PSF

      61 !NTITLE
 REMARKS original generated structure x-plor psf file
 REMARKS 42 patches were applied to the molecule.
 REMARKS topology /opt/charmm/toppar/top_all36_na.rtf 
 REMARKS topology /opt/vmd/plugins/noarch/tcl/solvate1.6/wat.top 
 REMARKS topology /opt/vmd/plugins/noarch/tcl/readcharmmtop1.1/top_all27_prot_lipid_na.inp 
 REMARKS segment DNA { first 5TER; last 3TER; auto angles dihedrals }
 REMARKS segment WT1 { first NONE; last NONE; auto none  }
 REMARKS segment WT2 { first NONE; last NONE; auto none  }
 REMARKS segment WT3 { first NONE; last NONE; auto none  }
 REMARKS segment WT4 { first NONE; last NONE; auto none  }
 REMARKS segment WT5 { first NONE; last NONE; auto none  }
 REMARKS segment WT6 { first NONE; last NONE; auto none  }
 REMARKS segment WT7 { first NONE; last NONE; auto none  }
 REMARKS segment WT8 { first NONE; last NONE; auto none  }
 REMARKS segment WT9 { first NONE; last NONE; auto none  }
 REMARKS segment WT10 { first NONE; last NONE; auto none  }
 REMARKS segment WT11 { first NONE; last NONE; auto none  }
 REMARKS segment WT12 { first NONE; last NONE; auto none  }
 REMARKS segment ION { first NONE; last NONE; auto angles dihedrals }
 REMARKS patch 5TER DNA:1  
 REMARKS patch 3TER DNA:40  
 REMARKS patch DEO5 DNA:1  
 REMARKS patch DEOX DNA:2  
 REMARKS patch DEOX DNA:3  
 REMARKS patch DEOX DNA:4  
 REMARKS patch DEOX DNA:5  
 REMARKS patch DEOX DNA:6  
 REMARKS patch DEOX DNA:7  
 REMARKS patch DEOX DNA:8  
 REMARKS patch DEOX DNA:9  
 REMARKS patch DEOX DNA:10  
 REMARKS patch DEOX DNA:11  
 REMARKS patch DEOX DNA:12  
 REMARKS patch DEOX DNA:13  
 REMARKS patch DEOX DNA:14  
 REMARKS patch DEOX DNA:15  
 REMARKS patch DEOX DNA:16  
 REMARKS patch DEOX DNA:17  
 REMARKS patch DEOX DNA:18  
 REMARKS patch DEOX DNA:19  
 REMARKS patch DEOX DNA:20  
 REMARKS patch DEOX DNA:21  
 REMARKS patch DEOX DNA:22  
 REMARKS patch DEOX DNA:23  
 REMARKS patch DEOX DNA:24  
 REMARKS patch DEOX DNA:25  
 REMARKS patch DEOX DNA:26  
 REMARKS patch DEOX DNA:27  
 REMARKS patch DEOX DNA:28  
 REMARKS patch DEOX DNA:29  
 REMARKS patch DEOX DNA:30  
 REMARKS patch DEOX DNA:31  
 REMARKS patch DEOX DNA:32  
 REMARKS patch DEOX DNA:33  
 REMARKS patch DEOX DNA:34  
 REMARKS patch DEOX DNA:35  
 REMARKS patch DEOX DNA:36  
 REMARKS patch DEOX DNA:37  
 REMARKS patch DEOX DNA:38  
 REMARKS patch DEOX DNA:39  
 REMARKS patch DEOX DNA:40  

   81284 !NATOM
       1 DNA  1    THY  H5T  HN5    0.430000        1.0080           0
       2 DNA  1    THY  O5'  ON5   -0.660000       15.9994           0
       3 DNA  1    THY  C5'  CN8B   0.050000       12.0110           0
       4 DNA  1    THY  H5'  HN8    0.090000        1.0080           0
       5 DNA  1    THY  H5'' HN8    0.090000        1.0080           0
       6 DNA  1    THY  C4'  CN7    0.160000       12.0110           0
       7 DNA  1    THY  H4'  HN7    0.090000        1.0080           0
       8 DNA  1    THY  O4'  ON6   -0.500000       15.9994           0
       9 DNA  1    THY  C1'  CN7B   0.160000       12.0110           0
      10 DNA  1    THY  H1'  HN7    0.090000        1.0080           0
      11 DNA  1    THY  N1   NN2B  -0.340000       14.0070           0
      12 DNA  1    THY  C6   CN3    0.170000       12.0110           0
      13 DNA  1    THY  H6   HN3    0.170000        1.0080           0
      14 DNA  1    THY  C2   CN1T   0.510000       12.0110           0
      15 DNA  1    THY  O2   ON1   -0.410000       15.9994           0
      16 DNA  1    THY  N3   NN2U  -0.460000       14.0070           0
      17 DNA  1    THY  H3   HN2    0.360000        1.0080           0
      18 DNA  1    THY  C4   CN1    0.500000       12.0110           0
      19 DNA  1    THY  O4   ON1   -0.450000       15.9994           0
      20 DNA  1    THY  C5   CN3T  -0.150000       12.0110           0
      21 DNA  1    THY  C5M  CN9   -0.110000       12.0110           0
      22 DNA  1    THY  H51  HN9    0.070000        1.0080           0
      23 DNA  1    THY  H52  HN9    0.070000        1.0080           0
      24 DNA  1    THY  H53  HN9    0.070000        1.0080           0
      25 DNA  1    THY  C2'  CN8   -0.180000       12.0110           0
      26 DNA  1    THY  H2'' HN8    0.090000        1.0080           0
      27 DNA  1    THY  H2'  HN8    0.090000        1.0080           0
      28 DNA  1    THY  C3'  CN7    0.010000       12.0110           0
      29 DNA  1    THY  H3'  HN7    0.090000        1.0080           0
      30 DNA  1    THY  O3'  ON2   -0.570000       15.9994           0
      31 DNA  2    THY  P    P2     1.500000       30.9740           0
      32 DNA  2    THY  O1P  ON3   -0.780000       15.9994           0
      33 DNA  2    THY  O2P  ON3   -0.780000       15.9994           0
      34 DNA  2    THY  O5'  ON2   -0.570000       15.9994           0
      35 DNA  2    THY  C5'  CN8B  -0.080000       12.0110           0
      36 DNA  2    THY  H5'  HN8    0.090000        1.0080           0
      37 DNA  2    THY  H5'' HN8    0.090000        1.0080           0
      38 DNA  2    THY  C4'  CN7    0.160000       12.0110           0
      39 DNA  2    THY  H4'  HN7    0.090000        1.0080           0
      40 DNA  2    THY  O4'  ON6   -0.500000       15.9994           0
      41 DNA  2    THY  C1'  CN7B   0.160000       12.0110           0
      42 DNA  2    THY  H1'  HN7    0.090000        1.0080           0
      43 DNA  2    THY  N1   NN2B  -0.340000       14.0070           0
      44 DNA  2    THY  C6   CN3    0.170000       12.0110           0
      45 DNA  2    THY  H6   HN3    0.170000        1.0080           0
      46 DNA  2    THY  C2   CN1T   0.510000       12.0110           0
      47 DNA  2    THY  O2   ON1   -0.410000       15.9994           0
      48 DNA  2    THY  N3   NN2U  -0.460000       14.0070           0
      49 DNA  2    THY  H3   HN2    0.360000        1.0080           0
      50 DNA  2    THY  C4   CN1    0.500000       12.0110           0
      51 DNA  2    THY  O4   ON1   -0.450000       15.9994           0
      52 DNA  2    THY  C5   CN3T  -0.150000       12.0110           0
      53 DNA  2    THY  C5M  CN9   -0.110000       12.0110           0
      54 DNA  2    THY  H51  HN9    0.070000        1.0080           0
      55 DNA  2    THY  H52  HN9    0.070000        1.0080           0
      56 DNA  2    THY  H53  HN9    0.070000        1.0080           0
      57 DNA  2    THY  C2'  CN8   -0.180000       12.0110           0
      58 DNA  2    THY  H2'' HN8    0.090000        1.0080           0
      59 DNA  2    THY  H2'  HN8    0.090000        1.0080           0
      60 DNA  2    THY  C3'  CN7    0.010000       12.0110           0
      61 DNA  2    THY  H3'  HN7    0.090000        1.0080           0
      62 DNA  2    THY  O3'  ON2   -0.570000       15.9994           0
      63 DNA  3    THY  P    P2     1.500000       30.9740           0
      64 DNA  3    THY  O1P  ON3   -0.780000       15.9994           0
      65 DNA  3    THY  O2P  ON3   -0.780000       15.9994           0
      66 DNA  3    THY  O5'  ON2   -0.570000       15.9994           0
      67 DNA  3    THY  C5'  CN8B  -0.080000       12.0110           0
      68 DNA  3    THY  H5'  HN8    0.090000        1.0080           0
      69 DNA  3    THY  H5'' HN8    0.090000        1.0080           0
      70 DNA  3    THY  C4'  CN7    0.160000       12.0110           0
      71 DNA  3    THY  H4'  HN7    0.090000        1.0080           0
      72 DNA  3    THY  O4'  ON6   -0.500000       15.9994           0
      73 DNA  3    THY  C1'  CN7B   0.160000       12.0110           0
      74 DNA  3    THY  H1'  HN7    0.090000        1.0080           0
      75 DNA  3    THY  N1   NN2B  -0.340000       14.0070           0
      76 DNA  3    THY  C6   CN3    0.170000       12.0110           0
      77 DNA  3    THY  H6   HN3    0.170000        1.0080           0
      78 DNA  3    THY  C2   CN1T   0.510000       12.0110           0
      79 DNA  3    THY  O2   ON1   -0.410000       15.9994           0
      80 DNA  3    THY  N3   NN2U  -0.460000       14.0070           0
      81 DNA  3    THY  H3   HN2    0.360000        1.0080           0
      82 DNA  3    THY  C4   CN1    0.500000       12.0110           0
      83 DNA  3    THY  O4   ON1   -0.450000       15.9994           0
      84 DNA  3    THY  C5   CN3T  -0.150000       12.0110           0
      85 DNA  3    THY  C5M  CN9   -0.110000       12.0110           0
      86 DNA  3    THY  H51  HN9    0.070000        1.0080           0
      87 DNA  3    THY  H52  HN9    0.070000        1.0080           0
      88 DNA  3    THY  H53  HN9    0.070000        1.0080           0
      89 DNA  3    THY  C2'  CN8   -0.180000       12.0110           0
      90 DNA  3    THY  H2'' HN8    0.090000        1.0080           0
      91 DNA  3    THY  H2'  HN8    0.090000        1.0080           0
      92 DNA  3    THY  C3'  CN7    0.010000       12.0110           0
      93 DNA  3    THY  H3'  HN7    0.090000        1.0080           0
      94 DNA  3    THY  O3'  ON2   -0.570000       15.9994           0
      95 DNA  4    THY  P    P2     1.500000       30.9740           0
      96 DNA  4    THY  O1P  ON3   -0.780000       15.9994           0
      97 DNA  4    THY  O2P  ON3   -0.780000       15.9994           0
      98 DNA  4    THY  O5'  ON2   -0.570000       15.9994           0
      99 DNA  4    THY  C5'  CN8B  -0.080000       12.0110           0
     100 DNA  4    THY  H5'  HN8    0.090000        1.0080           0
     101 DNA  4    THY  H5'' HN8    0.090000        1.0080           0
     102 DNA  4    THY  C4'  CN7    0.160000       12.0110           0
     103 DNA  4    THY  H4'  HN7    0.090000        1.0080           0
     104 DNA  4    THY  O4'  ON6   -0.500000       15.9994           0
     105 DNA  4    THY  C1'  CN7B   0.160000       12.0110           0
     106 DNA  4    THY  H1'  HN7    0.090000        1.0080           0
     107 DNA  4    THY  N1   NN2B  -0.340000       14.0070           0
     108 DNA  4    THY  C6   CN3    0.170000       12.0110           0
     109 DNA  4    THY  H6   HN3    0.170000        1.0080           0
     110 DNA  4    THY  C2   CN1T   0.510000       12.0110           0
     111 DNA  4    THY  O2   ON1   -0.410000       15.9994           0
     112 DNA  4    THY  N3   NN2U  -0.460000       14.0070           0
     113 DNA  4    THY  H3   HN2    0.360000        1.0080           0
     114 DNA  4    THY  C4   CN1    0.500000       12.0110           0
     115 DNA  4    THY  O4   ON1   -0.450000       15.9994           0
     116 DNA  4    THY  C5   CN3T  -0.150000       12.0110           0
     117 DNA  4    THY  C5M  CN9   -0.110000       12.0110           0
     118 DNA  4    THY  H51  HN9    0.070000        1.0080           0
     119 DNA  4    THY  H52  HN9    0.070000        1.0080           0
     120 DNA  4    THY  H53  HN9    0.070000        1.0080           0
     121 DNA  4    THY  C2'  CN8   -0.180000       12.0110           0
     122 DNA  4    THY  H2'' HN8    0.090000        1.0080           0
     123 DNA  4    THY  H2'  HN8    0.090000        1.0080           0
     124 DNA  4    THY  C3'  CN7    0.010000       12.0110           0
     125 DNA  4    THY  H3'  HN7    0.090000        1.0080           0
     126 DNA  4    THY  O3'  ON2   -0.570000       15.9994           0
     127 DNA  5    THY  P    P2     1.500000       30.9740           0
     128 DNA  5    THY  O1P  ON3   -0.780000       15.9994           0
     129 DNA  5    THY  O2P  ON3   -0.780000       15.9994           0
     130 DNA  5    THY  O5'  ON2   -0.570000       15.9994           0
     131 DNA  5    THY  C5'  CN8B  -0.080000       12.0110           0
     132 DNA  5    THY  H5'  HN8    0.090000        1.0080           0
     133 DNA  5    THY  H5'' HN8    0.090000        1.0080           0
     134 DNA  5    THY  C4'  CN7    0.160000       12.0110           0
     135 DNA  5    THY  H4'  HN7    0.090000        1.0080           0
     136 DNA  5    THY  O4'  ON6   -0.500000       15.9994           0
     137 DNA  5    THY  C1'  CN7B   0.160000       12.0110           0
     138 DNA  5    THY  H1'  HN7    0.090000        1.0080           0
     139 DNA  5    THY  N1   NN2B  -0.340000       14.0070           0
     140 DNA  5    THY  C6   CN3    0.170000       12.0110           0
     141 DNA  5    THY  H6   HN3    0.170000        1.0080           0
     142 DNA  5    THY  C2   CN1T   0.510000       12.0110           0
     143 DNA  5    THY  O2   ON1   -0.410000       15.9994           0
     144 DNA  5    THY  N3   NN2U  -0.460000       14.0070           0
     145 DNA  5    THY  H3   HN2    0.360000        1.0080           0
     146 DNA  5    THY  C4   CN1    0.500000       12.0110           0
     147 DNA  5    THY  O4   ON1   -0.450000       15.9994           0
     148 DNA  5    THY  C5   CN3T  -0.150000       12.0110           0
     149 DNA  5    THY  C5M  CN9   -0.110000       12.0110           0
     150 DNA  5    THY  H51  HN9    0.070000        1.0080           0
     151 DNA  5    THY  H52  HN9    0.070000        1.0080           0
     152 DNA  5    THY  H53  HN9    0.070000        1.0080           0
     153 DNA  5    THY  C2'  CN8   -0.180000       12.0110           0
     154 DNA  5    THY  H2'' HN8    0.090000        1.0080           0
     155 DNA  5    THY  H2'  HN8    0.090000        1.0080           0
     156 DNA  5    THY  C3'  CN7    0.010000       12.0110           0
     157 DNA  5    THY  H3'  HN7    0.090000        1.0080           0
     158 DNA  5    THY  O3'  ON2   -0.570000       15.9994           0
     159 DNA  6    THY  P    P2     1.500000       30.9740           0
     160 DNA  6    THY  O1P  ON3   -0.780000       15.9994           0
     161 DNA  6    THY  O2P  ON3   -0.780000       15.9994           0
     162 DNA  6    THY  O5'  ON2   -0.570000       15.9994           0
     163 DNA  6    THY  C5'  CN8B  -0.080000       12.0110           0
     164 DNA  6    THY  H5'  HN8    0.090000        1.0080           0
     165 DNA  6    THY  H5'' HN8    0.090000        1.0080           0
     166 DNA  6    THY  C4'  CN7    0.160000       12.0110           0
     167 DNA  6    THY  H4'  HN7    0.090000        1.0080           0
     168 DNA  6    THY  O4'  ON6   -0.500000       15.9994           0
     169 DNA  6    THY  C1'  CN7B   0.160000       12.0110           0
     170 DNA  6    THY  H1'  HN7    0.090000        1.0080           0
     171 DNA  6    THY  N1   NN2B  -0.340000       14.0070           0
     172 DNA  6    THY  C6   CN3    0.170000       12.0110           0
     173 DNA  6    THY  H6   HN3    0.170000        1.0080           0
     174 DNA  6    THY  C2   CN1T   0.510000       12.0110           0
     175 DNA  6    THY  O2   ON1   -0.410000       15.9994           0
     176 DNA  6    THY  N3   NN2U  -0.460000       14.0070           0
     177 DNA  6    THY  H3   HN2    0.360000        1.0080           0
     178 DNA  6    THY  C4   CN1    0.500000       12.0110           0
     179 DNA  6    THY  O4   ON1   -0.450000       15.9994           0
     180 DNA  6    THY  C5   CN3T  -0.150000       12.0110           0
     181 DNA  6    THY  C5M  CN9   -0.110000       12.0110           0
     182 DNA  6    THY  H51  HN9    0.070000        1.0080           0
     183 DNA  6    THY  H52  HN9    0.070000        1.0080           0
     184 DNA  6    THY  H53  HN9    0.070000        1.0080           0
     185 DNA  6    THY  C2'  CN8   -0.180000       12.0110           0
     186 DNA  6    THY  H2'' HN8    0.090000        1.0080           0
     187 DNA  6    THY  H2'  HN8    0.090000        1.0080           0
     188 DNA  6    THY  C3'  CN7    0.010000       12.0110           0
     189 DNA  6    THY  H3'  HN7    0.090000        1.0080           0
     190 DNA  6    THY  O3'  ON2   -0.570000       15.9994           0
     191 DNA  7    THY  P    P2     1.500000       30.9740           0
     192 DNA  7    THY  O1P  ON3   -0.780000       15.9994           0
     193 DNA  7    THY  O2P  ON3   -0.780000       15.9994           0
     194 DNA  7    THY  O5'  ON2   -0.570000       15.9994           0
     195 DNA  7    THY  C5'  CN8B  -0.080000       12.0110           0
     196 DNA  7    THY  H5'  HN8    0.090000        1.0080           0
     197 DNA  7    THY  H5'' HN8    0.090000        1.0080           0
     198 DNA  7    THY  C4'  CN7    0.160000       12.0110           0
     199 DNA  7    THY  H4'  HN7    0.090000        1.0080           0
     200 DNA  7    THY  O4'  ON6   -0.500000       15.9994           0
     201 DNA  7    THY  C1'  CN7B   0.160000       12.0110           0
     202 DNA  7    THY  H1'  HN7    0.090000        1.0080           0
     203 DNA  7    THY  N1   NN2B  -0.340000       14.0070           0
     204 DNA  7    THY  C6   CN3    0.170000       12.0110           0
     205 DNA  7    THY  H6   HN3    0.170000        1.0080           0
     206 DNA  7    THY  C2   CN1T   0.510000       12.0110           0
     207 DNA  7    THY  O2   ON1   -0.410000       15.9994           0
     208 DNA  7    THY  N3   NN2U  -0.460000       14.0070           0
     209 DNA  7    THY  H3   HN2    0.360000        1.0080           0
     210 DNA  7    THY  C4   CN1    0.500000       12.0110           0
     211 DNA  7    THY  O4   ON1   -0.450000       15.9994           0
     212 DNA  7    THY  C5   CN3T  -0.150000       12.0110           0
     213 DNA  7    THY  C5M  CN9   -0.110000       12.0110           0
     214 DNA  7    THY  H51  HN9    0.070000        1.0080           0
     215 DNA  7    THY  H52  HN9    0.070000        1.0080           0
     216 DNA  7    THY  H53  HN9    0.070000        1.0080           0
     217 DNA  7    THY  C2'  CN8   -0.180000       12.0110           0
     218 DNA  7    THY  H2'' HN8    0.090000        1.0080           0
     219 DNA  7    THY  H2'  HN8    0.090000        1.0080           0
     220 DNA  7    THY  C3'  CN7    0.010000       12.0110           0
     221 DNA  7    THY  H3'  HN7    0.090000        1.0080           0
     222 DNA  7    THY  O3'  ON2   -0.570000       15.9994           0
     223 DNA  8    THY  P    P2     1.500000       30.9740           0
     224 DNA  8    THY  O1P  ON3   -0.780000       15.9994           0
     225 DNA  8    THY  O2P  ON3   -0.780000       15.9994           0
     226 DNA  8    THY  O5'  ON2   -0.570000       15.9994           0
     227 DNA  8    THY  C5'  CN8B  -0.080000       12.0110           0
     228 DNA  8    THY  H5'  HN8    0.090000        1.0080           0
     229 DNA  8    THY  H5'' HN8    0.090000        1.0080           0
     230 DNA  8    THY  C4'  CN7    0.160000       12.0110           0
     231 DNA  8    THY  H4'  HN7    0.090000        1.0080           0
     232 DNA  8    THY  O4'  ON6   -0.500000       15.9994           0
     233 DNA  8    THY  C1'  CN7B   0.160000       12.0110           0
     234 DNA  8    THY  H1'  HN7    0.090000        1.0080           0
     235 DNA  8    THY  N1   NN2B  -0.340000       14.0070           0
     236 DNA  8    THY  C6   CN3    0.170000       12.0110           0
     237 DNA  8    THY  H6   HN3    0.170000        1.0080           0
     238 DNA  8    THY  C2   CN1T   0.510000       12.0110           0
     239 DNA  8    THY  O2   ON1   -0.410000       15.9994           0
     240 DNA  8    THY  N3   NN2U  -0.460000       14.0070           0
     241 DNA  8    THY  H3   HN2    0.360000        1.0080           0
     242 DNA  8    THY  C4   CN1    0.500000       12.0110           0
     243 DNA  8    THY  O4   ON1   -0.450000       15.9994           0
     244 DNA  8    THY  C5   CN3T  -0.150000       12.0110           0
     245 DNA  8    THY  C5M  CN9   -0.110000       12.0110           0
     246 DNA  8    THY  H51  HN9    0.070000        1.0080           0
     247 DNA  8    THY  H52  HN9    0.070000        1.0080           0
     248 DNA  8    THY  H53  HN9    0.070000        1.0080           0
     249 DNA  8    THY  C2'  CN8   -0.180000       12.0110           0
     250 DNA  8    THY  H2'' HN8    0.090000        1.0080           0
     251 DNA  8    THY  H2'  HN8    0.090000        1.0080           0
     252 DNA  8    THY  C3'  CN7    0.010000       12.0110           0
     253 DNA  8    THY  H3'  HN7    0.090000        1.0080           0
     254 DNA  8    THY  O3'  ON2   -0.570000       15.9994           0
     255 DNA  9    THY  P    P2     1.500000       30.9740           0
     256 DNA  9    THY  O1P  ON3   -0.780000       15.9994           0
     257 DNA  9    THY  O2P  ON3   -0.780000       15.9994           0
     258 DNA  9    THY  O5'  ON2   -0.570000       15.9994           0
     259 DNA  9    THY  C5'  CN8B  -0.080000       12.0110           0
     260 DNA  9    THY  H5'  HN8    0.090000        1.0080           0
     261 DNA  9    THY  H5'' HN8    0.090000        1.0080           0
     262 DNA  9    THY  C4'  CN7    0.160000       12.0110           0
     263 DNA  9    THY  H4'  HN7    0.090000        1.0080           0
     264 DNA  9    THY  O4'  ON6   -0.500000       15.9994           0
     265 DNA  9    THY  C1'  CN7B   0.160000       12.0110           0
     266 DNA  9    THY  H1'  HN7    0.090000        1.0080           0
     267 DNA  9    THY  N1   NN2B  -0.340000       14.0070           0
     268 DNA  9    THY  C6   CN3    0.170000       12.0110           0
     269 DNA  9    THY  H6   HN3    0.170000        1.0080           0
     270 DNA  9    THY  C2   CN1T   0.510000       12.0110           0
     271 DNA  9    THY  O2   ON1   -0.410000       15.9994           0
     272 DNA  9    THY  N3   NN2U  -0.460000       14.0070           0
     273 DNA  9    THY  H3   HN2    0.360000        1.0080           0
     274 DNA  9    THY  C4   CN1    0.500000       12.0110           0
     275 DNA  9    THY  O4   ON1   -0.450000       15.9994           0
     276 DNA  9    THY  C5   CN3T  -0.150000       12.0110           0
     277 DNA  9    THY  C5M  CN9   -0.110000       12.0110           0
     278 DNA  9    THY  H51  HN9    0.070000        1.0080           0
     279 DNA  9    THY  H52  HN9    0.070000        1.0080           0
     280 DNA  9    THY  H53  HN9    0.070000        1.0080           0
     281 DNA  9    THY  C2'  CN8   -0.180000       12.0110           0
     282 DNA  9    THY  H2'' HN8    0.090000        1.0080           0
     283 DNA  9    THY  H2'  HN8    0.090000        1.0080           0
     284 DNA  9    THY  C3'  CN7    0.010000       12.0110           0
     285 DNA  9    THY  H3'  HN7    0.090000        1.0080           0
     286 DNA  9    THY  O3'  ON2   -0.570000       15.9994           0
     287 DNA  10   THY  P    P2     1.500000       30.9740           0
     288 DNA  10   THY  O1P  ON3   -0.780000       15.9994           0
     289 DNA  10   THY  O2P  ON3   -0.780000       15.9994           0
     290 DNA  10   THY  O5'  ON2   -0.570000       15.9994           0
     291 DNA  10   THY  C5'  CN8B  -0.080000       12.0110           0
     292 DNA  10   THY  H5'  HN8    0.090000        1.0080           0
     293 DNA  10   THY  H5'' HN8    0.090000        1.0080           0
     294 DNA  10   THY  C4'  CN7    0.160000       12.0110           0
     295 DNA  10   THY  H4'  HN7    0.090000        1.0080           0
     296 DNA  10   THY  O4'  ON6   -0.500000       15.9994           0
     297 DNA  10   THY  C1'  CN7B   0.160000       12.0110           0
     298 DNA  10   THY  H1'  HN7    0.090000        1.0080           0
     299 DNA  10   THY  N1   NN2B  -0.340000       14.0070           0
     300 DNA  10   THY  C6   CN3    0.170000       12.0110           0
     301 DNA  10   THY  H6   HN3    0.170000        1.0080           0
     302 DNA  10   THY  C2   CN1T   0.510000       12.0110           0
     303 DNA  10   THY  O2   ON1   -0.410000       15.9994           0
     304 DNA  10   THY  N3   NN2U  -0.460000       14.0070           0
     305 DNA  10   THY  H3   HN2    0.360000        1.0080           0
     306 DNA  10   THY  C4   CN1    0.500000       12.0110           0
     307 DNA  10   THY  O4   ON1   -0.450000       15.9994           0
     308 DNA  10   THY  C5   CN3T  -0.150000       12.0110           0
     309 DNA  10   THY  C5M  CN9   -0.110000       12.0110           0
     310 DNA  10   THY  H51  HN9    0.070000        1.0080           0
     311 DNA  10   THY  H52  HN9    0.070000        1.0080           0
     312 DNA  10   THY  H53  HN9    0.070000        1.0080           0
     313 DNA  10   THY  C2'  CN8   -0.180000       12.0110           0
     314 DNA  10   THY  H2'' HN8    0.090000        1.0080           0
     315 DNA  10   THY  H2'  HN8    0.090000        1.0080           0
     316 DNA  10   THY  C3'  CN7    0.010000       12.0110           0
     317 DNA  10   THY  H3'  HN7    0.090000        1.0080           0
     318 DNA  10   THY  O3'  ON2   -0.570000       15.9994           0
     319 DNA  11   THY  P    P2     1.500000       30.9740           0
     320 DNA  11   THY  O1P  ON3   -0.780000       15.9994           0
     321 DNA  11   THY  O2P  ON3   -0.780000       15.9994           0
     322 DNA  11   THY  O5'  ON2   -0.570000       15.9994           0
     323 DNA  11   THY  C5'  CN8B  -0.080000       12.0110           0
     324 DNA  11   THY  H5'  HN8    0.090000        1.0080           0
     325 DNA  11   THY  H5'' HN8    0.090000        1.0080           0
     326 DNA  11   THY  C4'  CN7    0.160000       12.0110           0
     327 DNA  11   THY  H4'  HN7    0.090000        1.0080           0
     328 DNA  11   THY  O4'  ON6   -0.500000       15.9994           0
     329 DNA  11   THY  C1'  CN7B   0.160000       12.0110           0
     330 DNA  11   THY  H1'  HN7    0.090000        1.0080           0
     331 DNA  11   THY  N1   NN2B  -0.340000       14.0070           0
     332 DNA  11   THY  C6   CN3    0.170000       12.0110           0
     333 DNA  11   THY  H6   HN3    0.170000        1.0080           0
     334 DNA  11   THY  C2   CN1T   0.510000       12.0110           0
     335 DNA  11   THY  O2   ON1   -0.410000       15.9994           0
     336 DNA  11   THY  N3   NN2U  -0.460000       14.0070           0
     337 DNA  11   THY  H3   HN2    0.360000        1.0080           0
     338 DNA  11   THY  C4   CN1    0.500000       12.0110           0
     339 DNA  11   THY  O4   ON1   -0.450000       15.9994           0
     340 DNA  11   THY  C5   CN3T  -0.150000       12.0110           0
     341 DNA  11   THY  C5M  CN9   -0.110000       12.0110           0
     342 DNA  11   THY  H51  HN9    0.070000        1.0080           0
     343 DNA  11   THY  H52  HN9    0.070000        1.0080           0
     344 DNA  11   THY  H53  HN9    0.070000        1.0080           0
     345 DNA  11   THY  C2'  CN8   -0.180000       12.0110           0
     346 DNA  11   THY  H2'' HN8    0.090000        1.0080           0
     347 DNA  11   THY  H2'  HN8    0.090000        1.0080           0
     348 DNA  11   THY  C3'  CN7    0.010000       12.0110           0
     349 DNA  11   THY  H3'  HN7    0.090000        1.0080           0
     350 DNA  11   THY  O3'  ON2   -0.570000       15.9994           0
     351 DNA  12   THY  P    P2     1.500000       30.9740           0
     352 DNA  12   THY  O1P  ON3   -0.780000       15.9994           0
     353 DNA  12   THY  O2P  ON3   -0.780000       15.9994           0
     354 DNA  12   THY  O5'  ON2   -0.570000       15.9994           0
     355 DNA  12   THY  C5'  CN8B  -0.080000       12.0110           0
     356 DNA  12   THY  H5'  HN8    0.090000        1.0080           0
     357 DNA  12   THY  H5'' HN8    0.090000        1.0080           0
     358 DNA  12   THY  C4'  CN7    0.160000       12.0110           0
     359 DNA  12   THY  H4'  HN7    0.090000        1.0080           0
     360 DNA  12   THY  O4'  ON6   -0.500000       15.9994           0
     361 DNA  12   THY  C1'  CN7B   0.160000       12.0110           0
     362 DNA  12   THY  H1'  HN7    0.090000        1.0080           0
     363 DNA  12   THY  N1   NN2B  -0.340000       14.0070           0
     364 DNA  12   THY  C6   CN3    0.170000       12.0110           0
     365 DNA  12   THY  H6   HN3    0.170000        1.0080           0
     366 DNA  12   THY  C2   CN1T   0.510000       12.0110           0
     367 DNA  12   THY  O2   ON1   -0.410000       15.9994           0
     368 DNA  12   THY  N3   NN2U  -0.460000       14.0070           0
     369 DNA  12   THY  H3   HN2    0.360000        1.0080           0
     370 DNA  12   THY  C4   CN1    0.500000       12.0110           0
     371 DNA  12   THY  O4   ON1   -0.450000       15.9994           0
     372 DNA  12   THY  C5   CN3T  -0.150000       12.0110           0
     373 DNA  12   THY  C5M  CN9   -0.110000       12.0110           0
     374 DNA  12   THY  H51  HN9    0.070000        1.0080           0
     375 DNA  12   THY  H52  HN9    0.070000        1.0080           0
     376 DNA  12   THY  H53  HN9    0.070000        1.0080           0
     377 DNA  12   THY  C2'  CN8   -0.180000       12.0110           0
     378 DNA  12   THY  H2'' HN8    0.090000        1.0080           0
     379 DNA  12   THY  H2'  HN8    0.090000        1.0080           0
     380 DNA  12   THY  C3'  CN7    0.010000       12.0110           0
     381 DNA  12   THY  H3'  HN7    0.090000        1.0080           0
     382 DNA  12   THY  O3'  ON2   -0.570000       15.9994           0
     383 DNA  13   THY  P    P2     1.500000       30.9740           0
     384 DNA  13   THY  O1P  ON3   -0.780000       15.9994           0
     385 DNA  13   THY  O2P  ON3   -0.780000       15.9994           0
     386 DNA  13   THY  O5'  ON2   -0.570000       15.9994           0
     387 DNA  13   THY  C5'  CN8B  -0.080000       12.0110           0
     388 DNA  13   THY  H5'  HN8    0.090000        1.0080           0
     389 DNA  13   THY  H5'' HN8    0.090000        1.0080           0
     390 DNA  13   THY  C4'  CN7    0.160000       12.0110           0
     391 DNA  13   THY  H4'  HN7    0.090000        1.0080           0
     392 DNA  13   THY  O4'  ON6   -0.500000       15.9994           0
     393 DNA  13   THY  C1'  CN7B   0.160000       12.0110           0
     394 DNA  13   THY  H1'  HN7    0.090000        1.0080           0
     395 DNA  13   THY  N1   NN2B  -0.340000       14.0070           0
     396 DNA  13   THY  C6   CN3    0.170000       12.0110           0
     397 DNA  13   THY  H6   HN3    0.170000        1.0080           0
     398 DNA  13   THY  C2   CN1T   0.510000       12.0110           0
     399 DNA  13   THY  O2   ON1   -0.410000       15.9994           0
     400 DNA  13   THY  N3   NN2U  -0.460000       14.0070           0
     401 DNA  13   THY  H3   HN2    0.360000        1.0080           0
     402 DNA  13   THY  C4   CN1    0.500000       12.0110           0
     403 DNA  13   THY  O4   ON1   -0.450000       15.9994           0
     404 DNA  13   THY  C5   CN3T  -0.150000       12.0110           0
     405 DNA  13   THY  C5M  CN9   -0.110000       12.0110           0
     406 DNA  13   THY  H51  HN9    0.070000        1.0080           0
     407 DNA  13   THY  H52  HN9    0.070000        1.0080           0
     408 DNA  13   THY  H53  HN9    0.070000        1.0080           0
     409 DNA  13   THY  C2'  CN8   -0.180000       12.0110           0
     410 DNA  13   THY  H2'' HN8    0.090000        1.0080           0
     411 DNA  13   THY  H2'  HN8    0.090000        1.0080           0
     412 DNA  13   THY  C3'  CN7    0.010000       12.0110           0
     413 DNA  13   THY  H3'  HN7    0.090000        1.0080           0
     414 DNA  13   THY  O3'  ON2   -0.570000       15.9994           0
     415 DNA  14   THY  P    P2     1.500000       30.9740           0
     416 DNA  14   THY  O1P  ON3   -0.780000       15.9994           0
     417 DNA  14   THY  O2P  ON3   -0.780000       15.9994           0
     418 DNA  14   THY  O5'  ON2   -0.570000       15.9994           0
     419 DNA  14   THY  C5'  CN8B  -0.080000       12.0110           0
     420 DNA  14   THY  H5'  HN8    0.090000        1.0080           0
     421 DNA  14   THY  H5'' HN8    0.090000        1.0080           0
     422 DNA  14   THY  C4'  CN7    0.160000       12.0110           0
     423 DNA  14   THY  H4'  HN7    0.090000        1.0080           0
     424 DNA  14   THY  O4'  ON6   -0.500000       15.9994           0
     425 DNA  14   THY  C1'  CN7B   0.160000       12.0110           0
     426 DNA  14   THY  H1'  HN7    0.090000        1.0080           0
     427 DNA  14   THY  N1   NN2B  -0.340000       14.0070           0
     428 DNA  14   THY  C6   CN3    0.170000       12.0110           0
     429 DNA  14   THY  H6   HN3    0.170000        1.0080           0
     430 DNA  14   THY  C2   CN1T   0.510000       12.0110           0
     431 DNA  14   THY  O2   ON1   -0.410000       15.9994           0
     432 DNA  14   THY  N3   NN2U  -0.460000       14.0070           0
     433 DNA  14   THY  H3   HN2    0.360000        1.0080           0
     434 DNA  14   THY  C4   CN1    0.500000       12.0110           0
     435 DNA  14   THY  O4   ON1   -0.450000       15.9994           0
     436 DNA  14   THY  C5   CN3T  -0.150000       12.0110           0
     437 DNA  14   THY  C5M  CN9   -0.110000       12.0110           0
     438 DNA  14   THY  H51  HN9    0.070000        1.0080           0
     439 DNA  14   THY  H52  HN9    0.070000        1.0080           0
     440 DNA  14   THY  H53  HN9    0.070000        1.0080           0
     441 DNA  14   THY  C2'  CN8   -0.180000       12.0110           0
     442 DNA  14   THY  H2'' HN8    0.090000        1.0080           0
     443 DNA  14   THY  H2'  HN8    0.090000        1.0080           0
     444 DNA  14   THY  C3'  CN7    0.010000       12.0110           0
     445 DNA  14   THY  H3'  HN7    0.090000        1.0080           0
     446 DNA  14   THY  O3'  ON2   -0.570000       15.9994           0
     447 DNA  15   THY  P    P2     1.500000       30.9740           0
     448 DNA  15   THY  O1P  ON3   -0.780000       15.9994           0
     449 DNA  15   THY  O2P  ON3   -0.780000       15.9994           0
     450 DNA  15   THY  O5'  ON2   -0.570000       15.9994           0
     451 DNA  15   THY  C5'  CN8B  -0.080000       12.0110           0
     452 DNA  15   THY  H5'  HN8    0.090000        1.0080           0
     453 DNA  15   THY  H5'' HN8    0.090000        1.0080           0
     454 DNA  15   THY  C4'  CN7    0.160000       12.0110           0
     455 DNA  15   THY  H4'  HN7    0.090000        1.0080           0
     456 DNA  15   THY  O4'  ON6   -0.500000       15.9994           0
     457 DNA  15   THY  C1'  CN7B   0.160000       12.0110           0
     458 DNA  15   THY  H1'  HN7    0.090000        1.0080           0
     459 DNA  15   THY  N1   NN2B  -0.340000       14.0070           0
     460 DNA  15   THY  C6   CN3    0.170000       12.0110           0
     461 DNA  15   THY  H6   HN3    0.170000        1.0080           0
     462 DNA  15   THY  C2   CN1T   0.510000       12.0110           0
     463 DNA  15   THY  O2   ON1   -0.410000       15.9994           0
     464 DNA  15   THY  N3   NN2U  -0.460000       14.0070           0
     465 DNA  15   THY  H3   HN2    0.360000        1.0080           0
     466 DNA  15   THY  C4   CN1    0.500000       12.0110           0
     467 DNA  15   THY  O4   ON1   -0.450000       15.9994           0
     468 DNA  15   THY  C5   CN3T  -0.150000       12.0110           0
     469 DNA  15   THY  C5M  CN9   -0.110000       12.0110           0
     470 DNA  15   THY  H51  HN9    0.070000        1.0080           0
     471 DNA  15   THY  H52  HN9    0.070000        1.0080           0
     472 DNA  15   THY  H53  HN9    0.070000        1.0080           0
     473 DNA  15   THY  C2'  CN8   -0.180000       12.0110           0
     474 DNA  15   THY  H2'' HN8    0.090000        1.0080           0
     475 DNA  15   THY  H2'  HN8    0.090000        1.0080           0
     476 DNA  15   THY  C3'  CN7    0.010000       12.0110           0
     477 DNA  15   THY  H3'  HN7    0.090000        1.0080           0
     478 DNA  15   THY  O3'  ON2   -0.570000       15.9994           0
     479 DNA  16   THY  P    P2     1.500000       30.9740           0
     480 DNA  16   THY  O1P  ON3   -0.780000       15.9994           0
     481 DNA  16   THY  O2P  ON3   -0.780000       15.9994           0
     482 DNA  16   THY  O5'  ON2   -0.570000       15.9994           0
     483 DNA  16   THY  C5'  CN8B  -0.080000       12.0110           0
     484 DNA  16   THY  H5'  HN8    0.090000        1.0080           0
     485 DNA  16   THY  H5'' HN8    0.090000        1.0080           0
     486 DNA  16   THY  C4'  CN7    0.160000       12.0110           0
     487 DNA  16   THY  H4'  HN7    0.090000        1.0080           0
     488 DNA  16   THY  O4'  ON6   -0.500000       15.9994           0
     489 DNA  16   THY  C1'  CN7B   0.160000       12.0110           0
     490 DNA  16   THY  H1'  HN7    0.090000        1.0080           0
     491 DNA  16   THY  N1   NN2B  -0.340000       14.0070           0
     492 DNA  16   THY  C6   CN3    0.170000       12.0110           0
     493 DNA  16   THY  H6   HN3    0.170000        1.0080           0
     494 DNA  16   THY  C2   CN1T   0.510000       12.0110           0
     495 DNA  16   THY  O2   ON1   -0.410000       15.9994           0
     496 DNA  16   THY  N3   NN2U  -0.460000       14.0070           0
     497 DNA  16   THY  H3   HN2    0.360000        1.0080           0
     498 DNA  16   THY  C4   CN1    0.500000       12.0110           0
     499 DNA  16   THY  O4   ON1   -0.450000       15.9994           0
     500 DNA  16   THY  C5   CN3T  -0.150000       12.0110           0
     501 DNA  16   THY  C5M  CN9   -0.110000       12.0110           0
     502 DNA  16   THY  H51  HN9    0.070000        1.0080           0
     503 DNA  16   THY  H52  HN9    0.070000        1.0080           0
     504 DNA  16   THY  H53  HN9    0.070000        1.0080           0
     505 DNA  16   THY  C2'  CN8   -0.180000       12.0110           0
     506 DNA  16   THY  H2'' HN8    0.090000        1.0080           0
     507 DNA  16   THY  H2'  HN8    0.090000        1.0080           0
     508 DNA  16   THY  C3'  CN7    0.010000       12.0110           0
     509 DNA  16   THY  H3'  HN7    0.090000        1.0080           0
     510 DNA  16   THY  O3'  ON2   -0.570000       15.9994           0
     511 DNA  17   THY  P    P2     1.500000       30.9740           0
     512 DNA  17   THY  O1P  ON3   -0.780000       15.9994           0
     513 DNA  17   THY  O2P  ON3   -0.780000       15.9994           0
     514 DNA  17   THY  O5'  ON2   -0.570000       15.9994           0
     515 DNA  17   THY  C5'  CN8B  -0.080000       12.0110           0
     516 DNA  17   THY  H5'  HN8    0.090000        1.0080           0
     517 DNA  17   THY  H5'' HN8    0.090000        1.0080           0
     518 DNA  17   THY  C4'  CN7    0.160000       12.0110           0
     519 DNA  17   THY  H4'  HN7    0.090000        1.0080           0
     520 DNA  17   THY  O4'  ON6   -0.500000       15.9994           0
     521 DNA  17   THY  C1'  CN7B   0.160000       12.0110           0
     522 DNA  17   THY  H1'  HN7    0.090000        1.0080           0
     523 DNA  17   THY  N1   NN2B  -0.340000       14.0070           0
     524 DNA  17   THY  C6   CN3    0.170000       12.0110           0
     525 DNA  17   THY  H6   HN3    0.170000        1.0080           0
     526 DNA  17   THY  C2   CN1T   0.510000       12.0110           0
     527 DNA  17   THY  O2   ON1   -0.410000       15.9994           0
     528 DNA  17   THY  N3   NN2U  -0.460000       14.0070           0
     529 DNA  17   THY  H3   HN2    0.360000        1.0080           0
     530 DNA  17   THY  C4   CN1    0.500000       12.0110           0
     531 DNA  17   THY  O4   ON1   -0.450000       15.9994           0
     532 DNA  17   THY  C5   CN3T  -0.150000       12.0110           0
     533 DNA  17   THY  C5M  CN9   -0.110000       12.0110           0
     534 DNA  17   THY  H51  HN9    0.070000        1.0080           0
     535 DNA  17   THY  H52  HN9    0.070000        1.0080           0
     536 DNA  17   THY  H53  HN9    0.070000        1.0080           0
     537 DNA  17   THY  C2'  CN8   -0.180000       12.0110           0
     538 DNA  17   THY  H2'' HN8    0.090000        1.0080           0
     539 DNA  17   THY  H2'  HN8    0.090000        1.0080           0
     540 DNA  17   THY  C3'  CN7    0.010000       12.0110           0
     541 DNA  17   THY  H3'  HN7    0.090000        1.0080           0
     542 DNA  17   THY  O3'  ON2   -0.570000       15.9994           0
     543 DNA  18   THY  P    P2     1.500000       30.9740           0
     544 DNA  18   THY  O1P  ON3   -0.780000       15.9994           0
     545 DNA  18   THY  O2P  ON3   -0.780000       15.9994           0
     546 DNA  18   THY  O5'  ON2   -0.570000       15.9994           0
     547 DNA  18   THY  C5'  CN8B  -0.080000       12.0110           0
     548 DNA  18   THY  H5'  HN8    0.090000        1.0080           0
     549 DNA  18   THY  H5'' HN8    0.090000        1.0080           0
     550 DNA  18   THY  C4'  CN7    0.160000       12.0110           0
     551 DNA  18   THY  H4'  HN7    0.090000        1.0080           0
     552 DNA  18   THY  O4'  ON6   -0.500000       15.9994           0
     553 DNA  18   THY  C1'  CN7B   0.160000       12.0110           0
     554 DNA  18   THY  H1'  HN7    0.090000        1.0080           0
     555 DNA  18   THY  N1   NN2B  -0.340000       14.0070           0
     556 DNA  18   THY  C6   CN3    0.170000       12.0110           0
     557 DNA  18   THY  H6   HN3    0.170000        1.0080           0
     558 DNA  18   THY  C2   CN1T   0.510000       12.0110           0
     559 DNA  18   THY  O2   ON1   -0.410000       15.9994           0
     560 DNA  18   THY  N3   NN2U  -0.460000       14.0070           0
     561 DNA  18   THY  H3   HN2    0.360000        1.0080           0
     562 DNA  18   THY  C4   CN1    0.500000       12.0110           0
     563 DNA  18   THY  O4   ON1   -0.450000       15.9994           0
     564 DNA  18   THY  C5   CN3T  -0.150000       12.0110           0
     565 DNA  18   THY  C5M  CN9   -0.110000       12.0110           0
     566 DNA  18   THY  H51  HN9    0.070000        1.0080           0
     567 DNA  18   THY  H52  HN9    0.070000        1.0080           0
     568 DNA  18   THY  H53  HN9    0.070000        1.0080           0
     569 DNA  18   THY  C2'  CN8   -0.180000       12.0110           0
     570 DNA  18   THY  H2'' HN8    0.090000        1.0080           0
     571 DNA  18   THY  H2'  HN8    0.090000        1.0080           0
     572 DNA  18   THY  C3'  CN7    0.010000       12.0110           0
     573 DNA  18   THY  H3'  HN7    0.090000        1.0080           0
     574 DNA  18   THY  O3'  ON2   -0.570000       15.9994           0
     575 DNA  19   THY  P    P2     1.500000       30.9740           0
     576 DNA  19   THY  O1P  ON3   -0.780000       15.9994           0
     577 DNA  19   THY  O2P  ON3   -0.780000       15.9994           0
     578 DNA  19   THY  O5'  ON2   -0.570000       15.9994           0
     579 DNA  19   THY  C5'  CN8B  -0.080000       12.0110           0
     580 DNA  19   THY  H5'  HN8    0.090000        1.0080           0
     581 DNA  19   THY  H5'' HN8    0.090000        1.0080           0
     582 DNA  19   THY  C4'  CN7    0.160000       12.0110           0
     583 DNA  19   THY  H4'  HN7    0.090000        1.0080           0
     584 DNA  19   THY  O4'  ON6   -0.500000       15.9994           0
     585 DNA  19   THY  C1'  CN7B   0.160000       12.0110           0
     586 DNA  19   THY  H1'  HN7    0.090000        1.0080           0
     587 DNA  19   THY  N1   NN2B  -0.340000       14.0070           0
     588 DNA  19   THY  C6   CN3    0.170000       12.0110           0
     589 DNA  19   THY  H6   HN3    0.170000        1.0080           0
     590 DNA  19   THY  C2   CN1T   0.510000       12.0110           0
     591 DNA  19   THY  O2   ON1   -0.410000       15.9994           0
     592 DNA  19   THY  N3   NN2U  -0.460000       14.0070           0
     593 DNA  19   THY  H3   HN2    0.360000        1.0080           0
     594 DNA  19   THY  C4   CN1    0.500000       12.0110           0
     595 DNA  19   THY  O4   ON1   -0.450000       15.9994           0
     596 DNA  19   THY  C5   CN3T  -0.150000       12.0110           0
     597 DNA  19   THY  C5M  CN9   -0.110000       12.0110           0
     598 DNA  19   THY  H51  HN9    0.070000        1.0080           0
     599 DNA  19   THY  H52  HN9    0.070000        1.0080           0
     600 DNA  19   THY  H53  HN9    0.070000        1.0080           0
     601 DNA  19   THY  C2'  CN8   -0.180000       12.0110           0
     602 DNA  19   THY  H2'' HN8    0.090000        1.0080           0
     603 DNA  19   THY  H2'  HN8    0.090000        1.0080           0
     604 DNA  19   THY  C3'  CN7    0.010000       12.0110           0
     605 DNA  19   THY  H3'  HN7    0.090000        1.0080           0
     606 DNA  19   THY  O3'  ON2   -0.570000       15.9994           0
     607 DNA  20   THY  P    P2     1.500000       30.9740           0
     608 DNA  20   THY  O1P  ON3   -0.780000       15.9994           0
     609 DNA  20   THY  O2P  ON3   -0.780000       15.9994           0
     610 DNA  20   THY  O5'  ON2   -0.570000       15.9994           0
     611 DNA  20   THY  C5'  CN8B  -0.080000       12.0110           0
     612 DNA  20   THY  H5'  HN8    0.090000        1.0080           0
     613 DNA  20   THY  H5'' HN8    0.090000        1.0080           0
     614 DNA  20   THY  C4'  CN7    0.160000       12.0110           0
     615 DNA  20   THY  H4'  HN7    0.090000        1.0080           0
     616 DNA  20   THY  O4'  ON6   -0.500000       15.9994           0
     617 DNA  20   THY  C1'  CN7B   0.160000       12.0110           0
     618 DNA  20   THY  H1'  HN7    0.090000        1.0080           0
     619 DNA  20   THY  N1   NN2B  -0.340000       14.0070           0
     620 DNA  20   THY  C6   CN3    0.170000       12.0110           0
     621 DNA  20   THY  H6   HN3    0.170000        1.0080           0
     622 DNA  20   THY  C2   CN1T   0.510000       12.0110           0
     623 DNA  20   THY  O2   ON1   -0.410000       15.9994           0
     624 DNA  20   THY  N3   NN2U  -0.460000       14.0070           0
     625 DNA  20   THY  H3   HN2    0.360000        1.0080           0
     626 DNA  20   THY  C4   CN1    0.500000       12.0110           0
     627 DNA  20   THY  O4   ON1   -0.450000       15.9994           0
     628 DNA  20   THY  C5   CN3T  -0.150000       12.0110           0
     629 DNA  20   THY  C5M  CN9   -0.110000       12.0110           0
     630 DNA  20   THY  H51  HN9    0.070000        1.0080           0
     631 DNA  20   THY  H52  HN9    0.070000        1.0080           0
     632 DNA  20   THY  H53  HN9    0.070000        1.0080           0
     633 DNA  20   THY  C2'  CN8   -0.180000       12.0110           0
     634 DNA  20   THY  H2'' HN8    0.090000        1.0080           0
     635 DNA  20   THY  H2'  HN8    0.090000        1.0080           0
     636 DNA  20   THY  C3'  CN7    0.010000       12.0110           0
     637 DNA  20   THY  H3'  HN7    0.090000        1.0080           0
     638 DNA  20   THY  O3'  ON2   -0.570000       15.9994           0
     639 DNA  21   THY  P    P2     1.500000       30.9740           0
     640 DNA  21   THY  O1P  ON3   -0.780000       15.9994           0
     641 DNA  21   THY  O2P  ON3   -0.780000       15.9994           0
     642 DNA  21   THY  O5'  ON2   -0.570000       15.9994           0
     643 DNA  21   THY  C5'  CN8B  -0.080000       12.0110           0
     644 DNA  21   THY  H5'  HN8    0.090000        1.0080           0
     645 DNA  21   THY  H5'' HN8    0.090000        1.0080           0
     646 DNA  21   THY  C4'  CN7    0.160000       12.0110           0
     647 DNA  21   THY  H4'  HN7    0.090000        1.0080           0
     648 DNA  21   THY  O4'  ON6   -0.500000       15.9994           0
     649 DNA  21   THY  C1'  CN7B   0.160000       12.0110           0
     650 DNA  21   THY  H1'  HN7    0.090000        1.0080           0
     651 DNA  21   THY  N1   NN2B  -0.340000       14.0070           0
     652 DNA  21   THY  C6   CN3    0.170000       12.0110           0
     653 DNA  21   THY  H6   HN3    0.170000        1.0080           0
     654 DNA  21   THY  C2   CN1T   0.510000       12.0110           0
     655 DNA  21   THY  O2   ON1   -0.410000       15.9994           0
     656 DNA  21   THY  N3   NN2U  -0.460000       14.0070           0
     657 DNA  21   THY  H3   HN2    0.360000        1.0080           0
     658 DNA  21   THY  C4   CN1    0.500000       12.0110           0
     659 DNA  21   THY  O4   ON1   -0.450000       15.9994           0
     660 DNA  21   THY  C5   CN3T  -0.150000       12.0110           0
     661 DNA  21   THY  C5M  CN9   -0.110000       12.0110           0
     662 DNA  21   THY  H51  HN9    0.070000        1.0080           0
     663 DNA  21   THY  H52  HN9    0.070000        1.0080           0
     664 DNA  21   THY  H53  HN9    0.070000        1.0080           0
     665 DNA  21   THY  C2'  CN8   -0.180000       12.0110           0
     666 DNA  21   THY  H2'' HN8    0.090000        1.0080           0
     667 DNA  21   THY  H2'  HN8    0.090000        1.0080           0
     668 DNA  21   THY  C3'  CN7    0.010000       12.0110           0
     669 DNA  21   THY  H3'  HN7    0.090000        1.0080           0
     670 DNA  21   THY  O3'  ON2   -0.570000       15.9994           0
     671 DNA  22   THY  P    P2     1.500000       30.9740           0
     672 DNA  22   THY  O1P  ON3   -0.780000       15.9994           0
     673 DNA  22   THY  O2P  ON3   -0.780000       15.9994           0
     674 DNA  22   THY  O5'  ON2   -0.570000       15.9994           0
     675 DNA  22   THY  C5'  CN8B  -0.080000       12.0110           0
     676 DNA  22   THY  H5'  HN8    0.090000        1.0080           0
     677 DNA  22   THY  H5'' HN8    0.090000        1.0080           0
     678 DNA  22   THY  C4'  CN7    0.160000       12.0110           0
     679 DNA  22   THY  H4'  HN7    0.090000        1.0080           0
     680 DNA  22   THY  O4'  ON6   -0.500000       15.9994           0
     681 DNA  22   THY  C1'  CN7B   0.160000       12.0110           0
     682 DNA  22   THY  H1'  HN7    0.090000        1.0080           0
     683 DNA  22   THY  N1   NN2B  -0.340000       14.0070           0
     684 DNA  22   THY  C6   CN3    0.170000       12.0110           0
     685 DNA  22   THY  H6   HN3    0.170000        1.0080           0
     686 DNA  22   THY  C2   CN1T   0.510000       12.0110           0
     687 DNA  22   THY  O2   ON1   -0.410000       15.9994           0
     688 DNA  22   THY  N3   NN2U  -0.460000       14.0070           0
     689 DNA  22   THY  H3   HN2    0.360000        1.0080           0
     690 DNA  22   THY  C4   CN1    0.500000       12.0110           0
     691 DNA  22   THY  O4   ON1   -0.450000       15.9994           0
     692 DNA  22   THY  C5   CN3T  -0.150000       12.0110           0
     693 DNA  22   THY  C5M  CN9   -0.110000       12.0110           0
     694 DNA  22   THY  H51  HN9    0.070000        1.0080           0
     695 DNA  22   THY  H52  HN9    0.070000        1.0080           0
     696 DNA  22   THY  H53  HN9    0.070000        1.0080           0
     697 DNA  22   THY  C2'  CN8   -0.180000       12.0110           0
     698 DNA  22   THY  H2'' HN8    0.090000        1.0080           0
     699 DNA  22   THY  H2'  HN8    0.090000        1.0080           0
     700 DNA  22   THY  C3'  CN7    0.010000       12.0110           0
     701 DNA  22   THY  H3'  HN7    0.090000        1.0080           0
     702 DNA  22   THY  O3'  ON2   -0.570000       15.9994           0
     703 DNA  23   THY  P    P2     1.500000       30.9740           0
     704 DNA  23   THY  O1P  ON3   -0.780000       15.9994           0
     705 DNA  23   THY  O2P  ON3   -0.780000       15.9994           0
     706 DNA  23   THY  O5'  ON2   -0.570000       15.9994           0
     707 DNA  23   THY  C5'  CN8B  -0.080000       12.0110           0
     708 DNA  23   THY  H5'  HN8    0.090000        1.0080           0
     709 DNA  23   THY  H5'' HN8    0.090000        1.0080           0
     710 DNA  23   THY  C4'  CN7    0.160000       12.0110           0
     711 DNA  23   THY  H4'  HN7    0.090000        1.0080           0
     712 DNA  23   THY  O4'  ON6   -0.500000       15.9994           0
     713 DNA  23   THY  C1'  CN7B   0.160000       12.0110           0
     714 DNA  23   THY  H1'  HN7    0.090000        1.0080           0
     715 DNA  23   THY  N1   NN2B  -0.340000       14.0070           0
     716 DNA  23   THY  C6   CN3    0.170000       12.0110           0
     717 DNA  23   THY  H6   HN3    0.170000        1.0080           0
     718 DNA  23   THY  C2   CN1T   0.510000       12.0110           0
     719 DNA  23   THY  O2   ON1   -0.410000       15.9994           0
     720 DNA  23   THY  N3   NN2U  -0.460000       14.0070           0
     721 DNA  23   THY  H3   HN2    0.360000        1.0080           0
     722 DNA  23   THY  C4   CN1    0.500000       12.0110           0
     723 DNA  23   THY  O4   ON1   -0.450000       15.9994           0
     724 DNA  23   THY  C5   CN3T  -0.150000       12.0110           0
     725 DNA  23   THY  C5M  CN9   -0.110000       12.0110           0
     726 DNA  23   THY  H51  HN9    0.070000        1.0080           0
     727 DNA  23   THY  H52  HN9    0.070000        1.0080           0
     728 DNA  23   THY  H53  HN9    0.070000        1.0080           0
     729 DNA  23   THY  C2'  CN8   -0.180000       12.0110           0
     730 DNA  23   THY  H2'' HN8    0.090000        1.0080           0
     731 DNA  23   THY  H2'  HN8    0.090000        1.0080           0
     732 DNA  23   THY  C3'  CN7    0.010000       12.0110           0
     733 DNA  23   THY  H3'  HN7    0.090000        1.0080           0
     734 DNA  23   THY  O3'  ON2   -0.570000       15.9994           0
     735 DNA  24   THY  P    P2     1.500000       30.9740           0
     736 DNA  24   THY  O1P  ON3   -0.780000       15.9994           0
     737 DNA  24   THY  O2P  ON3   -0.780000       15.9994           0
     738 DNA  24   THY  O5'  ON2   -0.570000       15.9994           0
     739 DNA  24   THY  C5'  CN8B  -0.080000       12.0110           0
     740 DNA  24   THY  H5'  HN8    0.090000        1.0080           0
     741 DNA  24   THY  H5'' HN8    0.090000        1.0080           0
     742 DNA  24   THY  C4'  CN7    0.160000       12.0110           0
     743 DNA  24   THY  H4'  HN7    0.090000        1.0080           0
     744 DNA  24   THY  O4'  ON6   -0.500000       15.9994           0
     745 DNA  24   THY  C1'  CN7B   0.160000       12.0110           0
     746 DNA  24   THY  H1'  HN7    0.090000        1.0080           0
     747 DNA  24   THY  N1   NN2B  -0.340000       14.0070           0
     748 DNA  24   THY  C6   CN3    0.170000       12.0110           0
     749 DNA  24   THY  H6   HN3    0.170000        1.0080           0
     750 DNA  24   THY  C2   CN1T   0.510000       12.0110           0
     751 DNA  24   THY  O2   ON1   -0.410000       15.9994           0
     752 DNA  24   THY  N3   NN2U  -0.460000       14.0070           0
     753 DNA  24   THY  H3   HN2    0.360000        1.0080           0
     754 DNA  24   THY  C4   CN1    0.500000       12.0110           0
     755 DNA  24   THY  O4   ON1   -0.450000       15.9994           0
     756 DNA  24   THY  C5   CN3T  -0.150000       12.0110           0
     757 DNA  24   THY  C5M  CN9   -0.110000       12.0110           0
     758 DNA  24   THY  H51  HN9    0.070000        1.0080           0
     759 DNA  24   THY  H52  HN9    0.070000        1.0080           0
     760 DNA  24   THY  H53  HN9    0.070000        1.0080           0
     761 DNA  24   THY  C2'  CN8   -0.180000       12.0110           0
     762 DNA  24   THY  H2'' HN8    0.090000        1.0080           0
     763 DNA  24   THY  H2'  HN8    0.090000        1.0080           0
     764 DNA  24   THY  C3'  CN7    0.010000       12.0110           0
     765 DNA  24   THY  H3'  HN7    0.090000        1.0080           0
     766 DNA  24   THY  O3'  ON2   -0.570000       15.9994           0
     767 DNA  25   THY  P    P2     1.500000       30.9740           0
     768 DNA  25   THY  O1P  ON3   -0.780000       15.9994           0
     769 DNA  25   THY  O2P  ON3   -0.780000       15.9994           0
     770 DNA  25   THY  O5'  ON2   -0.570000       15.9994           0
     771 DNA  25   THY  C5'  CN8B  -0.080000       12.0110           0
     772 DNA  25   THY  H5'  HN8    0.090000        1.0080           0
     773 DNA  25   THY  H5'' HN8    0.090000        1.0080           0
     774 DNA  25   THY  C4'  CN7    0.160000       12.0110           0
     775 DNA  25   THY  H4'  HN7    0.090000        1.0080           0
     776 DNA  25   THY  O4'  ON6   -0.500000       15.9994           0
     777 DNA  25   THY  C1'  CN7B   0.160000       12.0110           0
     778 DNA  25   THY  H1'  HN7    0.090000        1.0080           0
     779 DNA  25   THY  N1   NN2B  -0.340000       14.0070           0
     780 DNA  25   THY  C6   CN3    0.170000       12.0110           0
     781 DNA  25   THY  H6   HN3    0.170000        1.0080           0
     782 DNA  25   THY  C2   CN1T   0.510000       12.0110           0
     783 DNA  25   THY  O2   ON1   -0.410000       15.9994           0
     784 DNA  25   THY  N3   NN2U  -0.460000       14.0070           0
     785 DNA  25   THY  H3   HN2    0.360000        1.0080           0
     786 DNA  25   THY  C4   CN1    0.500000       12.0110           0
     787 DNA  25   THY  O4   ON1   -0.450000       15.9994           0
     788 DNA  25   THY  C5   CN3T  -0.150000       12.0110           0
     789 DNA  25   THY  C5M  CN9   -0.110000       12.0110           0
     790 DNA  25   THY  H51  HN9    0.070000        1.0080           0
     791 DNA  25   THY  H52  HN9    0.070000        1.0080           0
     792 DNA  25   THY  H53  HN9    0.070000        1.0080           0
     793 DNA  25   THY  C2'  CN8   -0.180000       12.0110           0
     794 DNA  25   THY  H2'' HN8    0.090000        1.0080           0
     795 DNA  25   THY  H2'  HN8    0.090000        1.0080           0
     796 DNA  25   THY  C3'  CN7    0.010000       12.0110           0
     797 DNA  25   THY  H3'  HN7    0.090000        1.0080           0
     798 DNA  25   THY  O3'  ON2   -0.570000       15.9994           0
     799 DNA  26   THY  P    P2     1.500000       30.9740           0
     800 DNA  26   THY  O1P  ON3   -0.780000       15.9994           0
     801 DNA  26   THY  O2P  ON3   -0.780000       15.9994           0
     802 DNA  26   THY  O5'  ON2   -0.570000       15.9994           0
     803 DNA  26   THY  C5'  CN8B  -0.080000       12.0110           0
     804 DNA  26   THY  H5'  HN8    0.090000        1.0080           0
     805 DNA  26   THY  H5'' HN8    0.090000        1.0080           0
     806 DNA  26   THY  C4'  CN7    0.160000       12.0110           0
     807 DNA  26   THY  H4'  HN7    0.090000        1.0080           0
     808 DNA  26   THY  O4'  ON6   -0.500000       15.9994           0
     809 DNA  26   THY  C1'  CN7B   0.160000       12.0110           0
     810 DNA  26   THY  H1'  HN7    0.090000        1.0080           0
     811 DNA  26   THY  N1   NN2B  -0.340000       14.0070           0
     812 DNA  26   THY  C6   CN3    0.170000       12.0110           0
     813 DNA  26   THY  H6   HN3    0.170000        1.0080           0
     814 DNA  26   THY  C2   CN1T   0.510000       12.0110           0
     815 DNA  26   THY  O2   ON1   -0.410000       15.9994           0
     816 DNA  26   THY  N3   NN2U  -0.460000       14.0070           0
     817 DNA  26   THY  H3   HN2    0.360000        1.0080           0
     818 DNA  26   THY  C4   CN1    0.500000       12.0110           0
     819 DNA  26   THY  O4   ON1   -0.450000       15.9994           0
     820 DNA  26   THY  C5   CN3T  -0.150000       12.0110           0
     821 DNA  26   THY  C5M  CN9   -0.110000       12.0110           0
     822 DNA  26   THY  H51  HN9    0.070000        1.0080           0
     823 DNA  26   THY  H52  HN9    0.070000        1.0080           0
     824 DNA  26   THY  H53  HN9    0.070000        1.0080           0
     825 DNA  26   THY  C2'  CN8   -0.180000       12.0110           0
     826 DNA  26   THY  H2'' HN8    0.090000        1.0080           0
     827 DNA  26   THY  H2'  HN8    0.090000        1.0080           0
     828 DNA  26   THY  C3'  CN7    0.010000       12.0110           0
     829 DNA  26   THY  H3'  HN7    0.090000        1.0080           0
     830 DNA  26   THY  O3'  ON2   -0.570000       15.9994           0
     831 DNA  27   THY  P    P2     1.500000       30.9740           0
     832 DNA  27   THY  O1P  ON3   -0.780000       15.9994           0
     833 DNA  27   THY  O2P  ON3   -0.780000       15.9994           0
     834 DNA  27   THY  O5'  ON2   -0.570000       15.9994           0
     835 DNA  27   THY  C5'  CN8B  -0.080000       12.0110           0
     836 DNA  27   THY  H5'  HN8    0.090000        1.0080           0
     837 DNA  27   THY  H5'' HN8    0.090000        1.0080           0
     838 DNA  27   THY  C4'  CN7    0.160000       12.0110           0
     839 DNA  27   THY  H4'  HN7    0.090000        1.0080           0
     840 DNA  27   THY  O4'  ON6   -0.500000       15.9994           0
     841 DNA  27   THY  C1'  CN7B   0.160000       12.0110           0
     842 DNA  27   THY  H1'  HN7    0.090000        1.0080           0
     843 DNA  27   THY  N1   NN2B  -0.340000       14.0070           0
     844 DNA  27   THY  C6   CN3    0.170000       12.0110           0
     845 DNA  27   THY  H6   HN3    0.170000        1.0080           0
     846 DNA  27   THY  C2   CN1T   0.510000       12.0110           0
     847 DNA  27   THY  O2   ON1   -0.410000       15.9994           0
     848 DNA  27   THY  N3   NN2U  -0.460000       14.0070           0
     849 DNA  27   THY  H3   HN2    0.360000        1.0080           0
     850 DNA  27   THY  C4   CN1    0.500000       12.0110           0
     851 DNA  27   THY  O4   ON1   -0.450000       15.9994           0
     852 DNA  27   THY  C5   CN3T  -0.150000       12.0110           0
     853 DNA  27   THY  C5M  CN9   -0.110000       12.0110           0
     854 DNA  27   THY  H51  HN9    0.070000        1.0080           0
     855 DNA  27   THY  H52  HN9    0.070000        1.0080           0
     856 DNA  27   THY  H53  HN9    0.070000        1.0080           0
     857 DNA  27   THY  C2'  CN8   -0.180000       12.0110           0
     858 DNA  27   THY  H2'' HN8    0.090000        1.0080           0
     859 DNA  27   THY  H2'  HN8    0.090000        1.0080           0
     860 DNA  27   THY  C3'  CN7    0.010000       12.0110           0
     861 DNA  27   THY  H3'  HN7    0.090000        1.0080           0
     862 DNA  27   THY  O3'  ON2   -0.570000       15.9994           0
     863 DNA  28   THY  P    P2     1.500000       30.9740           0
     864 DNA  28   THY  O1P  ON3   -0.780000       15.9994           0
     865 DNA  28   THY  O2P  ON3   -0.780000       15.9994           0
     866 DNA  28   THY  O5'  ON2   -0.570000       15.9994           0
     867 DNA  28   THY  C5'  CN8B  -0.080000       12.0110           0
     868 DNA  28   THY  H5'  HN8    0.090000        1.0080           0
     869 DNA  28   THY  H5'' HN8    0.090000        1.0080           0
     870 DNA  28   THY  C4'  CN7    0.160000       12.0110           0
     871 DNA  28   THY  H4'  HN7    0.090000        1.0080           0
     872 DNA  28   THY  O4'  ON6   -0.500000       15.9994           0
     873 DNA  28   THY  C1'  CN7B   0.160000       12.0110           0
     874 DNA  28   THY  H1'  HN7    0.090000        1.0080           0
     875 DNA  28   THY  N1   NN2B  -0.340000       14.0070           0
     876 DNA  28   THY  C6   CN3    0.170000       12.0110           0
     877 DNA  28   THY  H6   HN3    0.170000        1.0080           0
     878 DNA  28   THY  C2   CN1T   0.510000       12.0110           0
     879 DNA  28   THY  O2   ON1   -0.410000       15.9994           0
     880 DNA  28   THY  N3   NN2U  -0.460000       14.0070           0
     881 DNA  28   THY  H3   HN2    0.360000        1.0080           0
     882 DNA  28   THY  C4   CN1    0.500000       12.0110           0
     883 DNA  28   THY  O4   ON1   -0.450000       15.9994           0
     884 DNA  28   THY  C5   CN3T  -0.150000       12.0110           0
     885 DNA  28   THY  C5M  CN9   -0.110000       12.0110           0
     886 DNA  28   THY  H51  HN9    0.070000        1.0080           0
     887 DNA  28   THY  H52  HN9    0.070000        1.0080           0
     888 DNA  28   THY  H53  HN9    0.070000        1.0080           0
     889 DNA  28   THY  C2'  CN8   -0.180000       12.0110           0
     890 DNA  28   THY  H2'' HN8    0.090000        1.0080           0
     891 DNA  28   THY  H2'  HN8    0.090000        1.0080           0
     892 DNA  28   THY  C3'  CN7    0.010000       12.0110           0
     893 DNA  28   THY  H3'  HN7    0.090000        1.0080           0
     894 DNA  28   THY  O3'  ON2   -0.570000       15.9994           0
     895 DNA  29   THY  P    P2     1.500000       30.9740           0
     896 DNA  29   THY  O1P  ON3   -0.780000       15.9994           0
     897 DNA  29   THY  O2P  ON3   -0.780000       15.9994           0
     898 DNA  29   THY  O5'  ON2   -0.570000       15.9994           0
     899 DNA  29   THY  C5'  CN8B  -0.080000       12.0110           0
     900 DNA  29   THY  H5'  HN8    0.090000        1.0080           0
     901 DNA  29   THY  H5'' HN8    0.090000        1.0080           0
     902 DNA  29   THY  C4'  CN7    0.160000       12.0110           0
     903 DNA  29   THY  H4'  HN7    0.090000        1.0080           0
     904 DNA  29   THY  O4'  ON6   -0.500000       15.9994           0
     905 DNA  29   THY  C1'  CN7B   0.160000       12.0110           0
     906 DNA  29   THY  H1'  HN7    0.090000        1.0080           0
     907 DNA  29   THY  N1   NN2B  -0.340000       14.0070           0
     908 DNA  29   THY  C6   CN3    0.170000       12.0110           0
     909 DNA  29   THY  H6   HN3    0.170000        1.0080           0
     910 DNA  29   THY  C2   CN1T   0.510000       12.0110           0
     911 DNA  29   THY  O2   ON1   -0.410000       15.9994           0
     912 DNA  29   THY  N3   NN2U  -0.460000       14.0070           0
     913 DNA  29   THY  H3   HN2    0.360000        1.0080           0
     914 DNA  29   THY  C4   CN1    0.500000       12.0110           0
     915 DNA  29   THY  O4   ON1   -0.450000       15.9994           0
     916 DNA  29   THY  C5   CN3T  -0.150000       12.0110           0
     917 DNA  29   THY  C5M  CN9   -0.110000       12.0110           0
     918 DNA  29   THY  H51  HN9    0.070000        1.0080           0
     919 DNA  29   THY  H52  HN9    0.070000        1.0080           0
     920 DNA  29   THY  H53  HN9    0.070000        1.0080           0
     921 DNA  29   THY  C2'  CN8   -0.180000       12.0110           0
     922 DNA  29   THY  H2'' HN8    0.090000        1.0080           0
     923 DNA  29   THY  H2'  HN8    0.090000        1.0080           0
     924 DNA  29   THY  C3'  CN7    0.010000       12.0110           0
     925 DNA  29   THY  H3'  HN7    0.090000        1.0080           0
     926 DNA  29   THY  O3'  ON2   -0.570000       15.9994           0
     927 DNA  30   THY  P    P2     1.500000       30.9740           0
     928 DNA  30   THY  O1P  ON3   -0.780000       15.9994           0
     929 DNA  30   THY  O2P  ON3   -0.780000       15.9994           0
     930 DNA  30   THY  O5'  ON2   -0.570000       15.9994           0
     931 DNA  30   THY  C5'  CN8B  -0.080000       12.0110           0
     932 DNA  30   THY  H5'  HN8    0.090000        1.0080           0
     933 DNA  30   THY  H5'' HN8    0.090000        1.0080           0
     934 DNA  30   THY  C4'  CN7    0.160000       12.0110           0
     935 DNA  30   THY  H4'  HN7    0.090000        1.0080           0
     936 DNA  30   THY  O4'  ON6   -0.500000       15.9994           0
     937 DNA  30   THY  C1'  CN7B   0.160000       12.0110           0
     938 DNA  30   THY  H1'  HN7    0.090000        1.0080           0
     939 DNA  30   THY  N1   NN2B  -0.340000       14.0070           0
     940 DNA  30   THY  C6   CN3    0.170000       12.0110           0
     941 DNA  30   THY  H6   HN3    0.170000        1.0080           0
     942 DNA  30   THY  C2   CN1T   0.510000       12.0110           0
     943 DNA  30   THY  O2   ON1   -0.410000       15.9994           0
     944 DNA  30   THY  N3   NN2U  -0.460000       14.0070           0
     945 DNA  30   THY  H3   HN2    0.360000        1.0080           0
     946 DNA  30   THY  C4   CN1    0.500000       12.0110           0
     947 DNA  30   THY  O4   ON1   -0.450000       15.9994           0
     948 DNA  30   THY  C5   CN3T  -0.150000       12.0110           0
     949 DNA  30   THY  C5M  CN9   -0.110000       12.0110           0
     950 DNA  30   THY  H51  HN9    0.070000        1.0080           0
     951 DNA  30   THY  H52  HN9    0.070000        1.0080           0
     952 DNA  30   THY  H53  HN9    0.070000        1.0080           0
     953 DNA  30   THY  C2'  CN8   -0.180000       12.0110           0
     954 DNA  30   THY  H2'' HN8    0.090000        1.0080           0
     955 DNA  30   THY  H2'  HN8    0.090000        1.0080           0
     956 DNA  30   THY  C3'  CN7    0.010000       12.0110           0
     957 DNA  30   THY  H3'  HN7    0.090000        1.0080           0
     958 DNA  30   THY  O3'  ON2   -0.570000       15.9994           0
     959 DNA  31   THY  P    P2     1.500000       30.9740           0
     960 DNA  31   THY  O1P  ON3   -0.780000       15.9994           0
     961 DNA  31   THY  O2P  ON3   -0.780000       15.9994           0
     962 DNA  31   THY  O5'  ON2   -0.570000       15.9994           0
     963 DNA  31   THY  C5'  CN8B  -0.080000       12.0110           0
     964 DNA  31   THY  H5'  HN8    0.090000        1.0080           0
     965 DNA  31   THY  H5'' HN8    0.090000        1.0080           0
     966 DNA  31   THY  C4'  CN7    0.160000       12.0110           0
     967 DNA  31   THY  H4'  HN7    0.090000        1.0080           0
     968 DNA  31   THY  O4'  ON6   -0.500000       15.9994           0
     969 DNA  31   THY  C1'  CN7B   0.160000       12.0110           0
     970 DNA  31   THY  H1'  HN7    0.090000        1.0080           0
     971 DNA  31   THY  N1   NN2B  -0.340000       14.0070           0
     972 DNA  31   THY  C6   CN3    0.170000       12.0110           0
     973 DNA  31   THY  H6   HN3    0.170000        1.0080           0
     974 DNA  31   THY  C2   CN1T   0.510000       12.0110           0
     975 DNA  31   THY  O2   ON1   -0.410000       15.9994           0
     976 DNA  31   THY  N3   NN2U  -0.460000       14.0070           0
     977 DNA  31   THY  H3   HN2    0.360000        1.0080           0
     978 DNA  31   THY  C4   CN1    0.500000       12.0110           0
     979 DNA  31   THY  O4   ON1   -0.450000       15.9994           0
     980 DNA  31   THY  C5   CN3T  -0.150000       12.0110           0
     981 DNA  31   THY  C5M  CN9   -0.110000       12.0110           0
     982 DNA  31   THY  H51  HN9    0.070000        1.0080           0
     983 DNA  31   THY  H52  HN9    0.070000        1.0080           0
     984 DNA  31   THY  H53  HN9    0.070000        1.0080           0
     985 DNA  31   THY  C2'  CN8   -0.180000       12.0110           0
     986 DNA  31   THY  H2'' HN8    0.090000        1.0080           0
     987 DNA  31   THY  H2'  HN8    0.090000        1.0080           0
     988 DNA  31   THY  C3'  CN7    0.010000       12.0110           0
     989 DNA  31   THY  H3'  HN7    0.090000        1.0080           0
     990 DNA  31   THY  O3'  ON2   -0.570000       15.9994           0
     991 DNA  32   THY  P    P2     1.500000       30.9740           0
     992 DNA  32   THY  O1P  ON3   -0.780000       15.9994           0
     993 DNA  32   THY  O2P  ON3   -0.780000       15.9994           0
     994 DNA  32   THY  O5'  ON2   -0.570000       15.9994           0
     995 DNA  32   THY  C5'  CN8B  -0.080000       12.0110           0
     996 DNA  32   THY  H5'  HN8    0.090000        1.0080           0
     997 DNA  32   THY  H5'' HN8    0.090000        1.0080           0
     998 DNA  32   THY  C4'  CN7    0.160000       12.0110           0
     999 DNA  32   THY  H4'  HN7    0.090000        1.0080           0
    1000 DNA  32   THY  O4'  ON6   -0.500000       15.9994           0
    1001 DNA  32   THY  C1'  CN7B   0.160000       12.0110           0
    1002 DNA  32   THY  H1'  HN7    0.090000        1.0080           0
    1003 DNA  32   THY  N1   NN2B  -0.340000       14.0070           0
    1004 DNA  32   THY  C6   CN3    0.170000       12.0110           0
    1005 DNA  32   THY  H6   HN3    0.170000        1.0080           0
    1006 DNA  32   THY  C2   CN1T   0.510000       12.0110           0
    1007 DNA  32   THY  O2   ON1   -0.410000       15.9994           0
    1008 DNA  32   THY  N3   NN2U  -0.460000       14.0070           0
    1009 DNA  32   THY  H3   HN2    0.360000        1.0080           0
    1010 DNA  32   THY  C4   CN1    0.500000       12.0110           0
    1011 DNA  32   THY  O4   ON1   -0.450000       15.9994           0
    1012 DNA  32   THY  C5   CN3T  -0.150000       12.0110           0
    1013 DNA  32   THY  C5M  CN9   -0.110000       12.0110           0
    1014 DNA  32   THY  H51  HN9    0.070000        1.0080           0
    1015 DNA  32   THY  H52  HN9    0.070000        1.0080           0
    1016 DNA  32   THY  H53  HN9    0.070000        1.0080           0
    1017 DNA  32   THY  C2'  CN8   -0.180000       12.0110           0
    1018 DNA  32   THY  H2'' HN8    0.090000        1.0080           0
    1019 DNA  32   THY  H2'  HN8    0.090000        1.0080           0
    1020 DNA  32   THY  C3'  CN7    0.010000       12.0110           0
    1021 DNA  32   THY  H3'  HN7    0.090000        1.0080           0
    1022 DNA  32   THY  O3'  ON2   -0.570000       15.9994           0
    1023 DNA  33   THY  P    P2     1.500000       30.9740           0
    1024 DNA  33   THY  O1P  ON3   -0.780000       15.9994           0
    1025 DNA  33   THY  O2P  ON3   -0.780000       15.9994           0
    1026 DNA  33   THY  O5'  ON2   -0.570000       15.9994           0
    1027 DNA  33   THY  C5'  CN8B  -0.080000       12.0110           0
    1028 DNA  33   THY  H5'  HN8    0.090000        1.0080           0
    1029 DNA  33   THY  H5'' HN8    0.090000        1.0080           0
    1030 DNA  33   THY  C4'  CN7    0.160000       12.0110           0
    1031 DNA  33   THY  H4'  HN7    0.090000        1.0080           0
    1032 DNA  33   THY  O4'  ON6   -0.500000       15.9994           0
    1033 DNA  33   THY  C1'  CN7B   0.160000       12.0110           0
    1034 DNA  33   THY  H1'  HN7    0.090000        1.0080           0
    1035 DNA  33   THY  N1   NN2B  -0.340000       14.0070           0
    1036 DNA  33   THY  C6   CN3    0.170000       12.0110           0
    1037 DNA  33   THY  H6   HN3    0.170000        1.0080           0
    1038 DNA  33   THY  C2   CN1T   0.510000       12.0110           0
    1039 DNA  33   THY  O2   ON1   -0.410000       15.9994           0
    1040 DNA  33   THY  N3   NN2U  -0.460000       14.0070           0
    1041 DNA  33   THY  H3   HN2    0.360000        1.0080           0
    1042 DNA  33   THY  C4   CN1    0.500000       12.0110           0
    1043 DNA  33   THY  O4   ON1   -0.450000       15.9994           0
    1044 DNA  33   THY  C5   CN3T  -0.150000       12.0110           0
    1045 DNA  33   THY  C5M  CN9   -0.110000       12.0110           0
    1046 DNA  33   THY  H51  HN9    0.070000        1.0080           0
    1047 DNA  33   THY  H52  HN9    0.070000        1.0080           0
    1048 DNA  33   THY  H53  HN9    0.070000        1.0080           0
    1049 DNA  33   THY  C2'  CN8   -0.180000       12.0110           0
    1050 DNA  33   THY  H2'' HN8    0.090000        1.0080           0
    1051 DNA  33   THY  H2'  HN8    0.090000        1.0080           0
    1052 DNA  33   THY  C3'  CN7    0.010000       12.0110           0
    1053 DNA  33   THY  H3'  HN7    0.090000        1.0080           0
    1054 DNA  33   THY  O3'  ON2   -0.570000       15.9994           0
    1055 DNA  34   THY  P    P2     1.500000       30.9740           0
    1056 DNA  34   THY  O1P  ON3   -0.780000       15.9994           0
    1057 DNA  34   THY  O2P  ON3   -0.780000       15.9994           0
    1058 DNA  34   THY  O5'  ON2   -0.570000       15.9994           0
    1059 DNA  34   THY  C5'  CN8B  -0.080000       12.0110           0
    1060 DNA  34   THY  H5'  HN8    0.090000        1.0080           0
    1061 DNA  34   THY  H5'' HN8    0.090000        1.0080           0
    1062 DNA  34   THY  C4'  CN7    0.160000       12.0110           0
    1063 DNA  34   THY  H4'  HN7    0.090000        1.0080           0
    1064 DNA  34   THY  O4'  ON6   -0.500000       15.9994           0
    1065 DNA  34   THY  C1'  CN7B   0.160000       12.0110           0
    1066 DNA  34   THY  H1'  HN7    0.090000        1.0080           0
    1067 DNA  34   THY  N1   NN2B  -0.340000       14.0070           0
    1068 DNA  34   THY  C6   CN3    0.170000       12.0110           0
    1069 DNA  34   THY  H6   HN3    0.170000        1.0080           0
    1070 DNA  34   THY  C2   CN1T   0.510000       12.0110           0
    1071 DNA  34   THY  O2   ON1   -0.410000       15.9994           0
    1072 DNA  34   THY  N3   NN2U  -0.460000       14.0070           0
    1073 DNA  34   THY  H3   HN2    0.360000        1.0080           0
    1074 DNA  34   THY  C4   CN1    0.500000       12.0110           0
    1075 DNA  34   THY  O4   ON1   -0.450000       15.9994           0
    1076 DNA  34   THY  C5   CN3T  -0.150000       12.0110           0
    1077 DNA  34   THY  C5M  CN9   -0.110000       12.0110           0
    1078 DNA  34   THY  H51  HN9    0.070000        1.0080           0
    1079 DNA  34   THY  H52  HN9    0.070000        1.0080           0
    1080 DNA  34   THY  H53  HN9    0.070000        1.0080           0
    1081 DNA  34   THY  C2'  CN8   -0.180000       12.0110           0
    1082 DNA  34   THY  H2'' HN8    0.090000        1.0080           0
    1083 DNA  34   THY  H2'  HN8    0.090000        1.0080           0
    1084 DNA  34   THY  C3'  CN7    0.010000       12.0110           0
    1085 DNA  34   THY  H3'  HN7    0.090000        1.0080           0
    1086 DNA  34   THY  O3'  ON2   -0.570000       15.9994           0
    1087 DNA  35   THY  P    P2     1.500000       30.9740           0
    1088 DNA  35   THY  O1P  ON3   -0.780000       15.9994           0
    1089 DNA  35   THY  O2P  ON3   -0.780000       15.9994           0
    1090 DNA  35   THY  O5'  ON2   -0.570000       15.9994           0
    1091 DNA  35   THY  C5'  CN8B  -0.080000       12.0110           0
    1092 DNA  35   THY  H5'  HN8    0.090000        1.0080           0
    1093 DNA  35   THY  H5'' HN8    0.090000        1.0080           0
    1094 DNA  35   THY  C4'  CN7    0.160000       12.0110           0
    1095 DNA  35   THY  H4'  HN7    0.090000        1.0080           0
    1096 DNA  35   THY  O4'  ON6   -0.500000       15.9994           0
    1097 DNA  35   THY  C1'  CN7B   0.160000       12.0110           0
    1098 DNA  35   THY  H1'  HN7    0.090000        1.0080           0
    1099 DNA  35   THY  N1   NN2B  -0.340000       14.0070           0
    1100 DNA  35   THY  C6   CN3    0.170000       12.0110           0
    1101 DNA  35   THY  H6   HN3    0.170000        1.0080           0
    1102 DNA  35   THY  C2   CN1T   0.510000       12.0110           0
    1103 DNA  35   THY  O2   ON1   -0.410000       15.9994           0
    1104 DNA  35   THY  N3   NN2U  -0.460000       14.0070           0
    1105 DNA  35   THY  H3   HN2    0.360000        1.0080           0
    1106 DNA  35   THY  C4   CN1    0.500000       12.0110           0
    1107 DNA  35   THY  O4   ON1   -0.450000       15.9994           0
    1108 DNA  35   THY  C5   CN3T  -0.150000       12.0110           0
    1109 DNA  35   THY  C5M  CN9   -0.110000       12.0110           0
    1110 DNA  35   THY  H51  HN9    0.070000        1.0080           0
    1111 DNA  35   THY  H52  HN9    0.070000        1.0080           0
    1112 DNA  35   THY  H53  HN9    0.070000        1.0080           0
    1113 DNA  35   THY  C2'  CN8   -0.180000       12.0110           0
    1114 DNA  35   THY  H2'' HN8    0.090000        1.0080           0
    1115 DNA  35   THY  H2'  HN8    0.090000        1.0080           0
    1116 DNA  35   THY  C3'  CN7    0.010000       12.0110           0
    1117 DNA  35   THY  H3'  HN7    0.090000        1.0080           0
    1118 DNA  35   THY  O3'  ON2   -0.570000       15.9994           0
    1119 DNA  36   THY  P    P2     1.500000       30.9740           0
    1120 DNA  36   THY  O1P  ON3   -0.780000       15.9994           0
    1121 DNA  36   THY  O2P  ON3   -0.780000       15.9994           0
    1122 DNA  36   THY  O5'  ON2   -0.570000       15.9994           0
    1123 DNA  36   THY  C5'  CN8B  -0.080000       12.0110           0
    1124 DNA  36   THY  H5'  HN8    0.090000        1.0080           0
    1125 DNA  36   THY  H5'' HN8    0.090000        1.0080           0
    1126 DNA  36   THY  C4'  CN7    0.160000       12.0110           0
    1127 DNA  36   THY  H4'  HN7    0.090000        1.0080           0
    1128 DNA  36   THY  O4'  ON6   -0.500000       15.9994           0
    1129 DNA  36   THY  C1'  CN7B   0.160000       12.0110           0
    1130 DNA  36   THY  H1'  HN7    0.090000        1.0080           0
    1131 DNA  36   THY  N1   NN2B  -0.340000       14.0070           0
    1132 DNA  36   THY  C6   CN3    0.170000       12.0110           0
    1133 DNA  36   THY  H6   HN3    0.170000        1.0080           0
    1134 DNA  36   THY  C2   CN1T   0.510000       12.0110           0
    1135 DNA  36   THY  O2   ON1   -0.410000       15.9994           0
    1136 DNA  36   THY  N3   NN2U  -0.460000       14.0070           0
    1137 DNA  36   THY  H3   HN2    0.360000        1.0080           0
    1138 DNA  36   THY  C4   CN1    0.500000       12.0110           0
    1139 DNA  36   THY  O4   ON1   -0.450000       15.9994           0
    1140 DNA  36   THY  C5   CN3T  -0.150000       12.0110           0
    1141 DNA  36   THY  C5M  CN9   -0.110000       12.0110           0
    1142 DNA  36   THY  H51  HN9    0.070000        1.0080           0
    1143 DNA  36   THY  H52  HN9    0.070000        1.0080           0
    1144 DNA  36   THY  H53  HN9    0.070000        1.0080           0
    1145 DNA  36   THY  C2'  CN8   -0.180000       12.0110           0
    1146 DNA  36   THY  H2'' HN8    0.090000        1.0080           0
    1147 DNA  36   THY  H2'  HN8    0.090000        1.0080           0
    1148 DNA  36   THY  C3'  CN7    0.010000       12.0110           0
    1149 DNA  36   THY  H3'  HN7    0.090000        1.0080           0
    1150 DNA  36   THY  O3'  ON2   -0.570000       15.9994           0
    1151 DNA  37   THY  P    P2     1.500000       30.9740           0
    1152 DNA  37   THY  O1P  ON3   -0.780000       15.9994           0
    1153 DNA  37   THY  O2P  ON3   -0.780000       15.9994           0
    1154 DNA  37   THY  O5'  ON2   -0.570000       15.9994           0
    1155 DNA  37   THY  C5'  CN8B  -0.080000       12.0110           0
    1156 DNA  37   THY  H5'  HN8    0.090000        1.0080           0
    1157 DNA  37   THY  H5'' HN8    0.090000        1.0080           0
    1158 DNA  37   THY  C4'  CN7    0.160000       12.0110           0
    1159 DNA  37   THY  H4'  HN7    0.090000        1.0080           0
    1160 DNA  37   THY  O4'  ON6   -0.500000       15.9994           0
    1161 DNA  37   THY  C1'  CN7B   0.160000       12.0110           0
    1162 DNA  37   THY  H1'  HN7    0.090000        1.0080           0
    1163 DNA  37   THY  N1   NN2B  -0.340000       14.0070           0
    1164 DNA  37   THY  C6   CN3    0.170000       12.0110           0
    1165 DNA  37   THY  H6   HN3    0.170000        1.0080           0
    1166 DNA  37   THY  C2   CN1T   0.510000       12.0110           0
    1167 DNA  37   THY  O2   ON1   -0.410000       15.9994           0
    1168 DNA  37   THY  N3   NN2U  -0.460000       14.0070           0
    1169 DNA  37   THY  H3   HN2    0.360000        1.0080           0
    1170 DNA  37   THY  C4   CN1    0.500000       12.0110           0
    1171 DNA  37   THY  O4   ON1   -0.450000       15.9994           0
    1172 DNA  37   THY  C5   CN3T  -0.150000       12.0110           0
    1173 DNA  37   THY  C5M  CN9   -0.110000       12.0110           0
    1174 DNA  37   THY  H51  HN9    0.070000        1.0080           0
    1175 DNA  37   THY  H52  HN9    0.070000        1.0080           0
    1176 DNA  37   THY  H53  HN9    0.070000        1.0080           0
    1177 DNA  37   THY  C2'  CN8   -0.180000       12.0110           0
    1178 DNA  37   THY  H2'' HN8    0.090000        1.0080           0
    1179 DNA  37   THY  H2'  HN8    0.090000        1.0080           0
    1180 DNA  37   THY  C3'  CN7    0.010000       12.0110           0
    1181 DNA  37   THY  H3'  HN7    0.090000        1.0080           0
    1182 DNA  37   THY  O3'  ON2   -0.570000       15.9994           0
    1183 DNA  38   THY  P    P2     1.500000       30.9740           0
    1184 DNA  38   THY  O1P  ON3   -0.780000       15.9994           0
    1185 DNA  38   THY  O2P  ON3   -0.780000       15.9994           0
    1186 DNA  38   THY  O5'  ON2   -0.570000       15.9994           0
    1187 DNA  38   THY  C5'  CN8B  -0.080000       12.0110           0
    1188 DNA  38   THY  H5'  HN8    0.090000        1.0080           0
    1189 DNA  38   THY  H5'' HN8    0.090000        1.0080           0
    1190 DNA  38   THY  C4'  CN7    0.160000       12.0110           0
    1191 DNA  38   THY  H4'  HN7    0.090000        1.0080           0
    1192 DNA  38   THY  O4'  ON6   -0.500000       15.9994           0
    1193 DNA  38   THY  C1'  CN7B   0.160000       12.0110           0
    1194 DNA  38   THY  H1'  HN7    0.090000        1.0080           0
    1195 DNA  38   THY  N1   NN2B  -0.340000       14.0070           0
    1196 DNA  38   THY  C6   CN3    0.170000       12.0110           0
    1197 DNA  38   THY  H6   HN3    0.170000        1.0080           0
    1198 DNA  38   THY  C2   CN1T   0.510000       12.0110           0
    1199 DNA  38   THY  O2   ON1   -0.410000       15.9994           0
    1200 DNA  38   THY  N3   NN2U  -0.460000       14.0070           0
    1201 DNA  38   THY  H3   HN2    0.360000        1.0080           0
    1202 DNA  38   THY  C4   CN1    0.500000       12.0110           0
    1203 DNA  38   THY  O4   ON1   -0.450000       15.9994           0
    1204 DNA  38   THY  C5   CN3T  -0.150000       12.0110           0
    1205 DNA  38   THY  C5M  CN9   -0.110000       12.0110           0
    1206 DNA  38   THY  H51  HN9    0.070000        1.0080           0
    1207 DNA  38   THY  H52  HN9    0.070000        1.0080           0
    1208 DNA  38   THY  H53  HN9    0.070000        1.0080           0
    1209 DNA  38   THY  C2'  CN8   -0.180000       12.0110           0
    1210 DNA  38   THY  H2'' HN8    0.090000        1.0080           0
    1211 DNA  38   THY  H2'  HN8    0.090000        1.0080           0
    1212 DNA  38   THY  C3'  CN7    0.010000       12.0110           0
    1213 DNA  38   THY  H3'  HN7    0.090000        1.0080           0
    1214 DNA  38   THY  O3'  ON2   -0.570000       15.9994           0
    1215 DNA  39   THY  P    P2     1.500000       30.9740           0
    1216 DNA  39   THY  O1P  ON3   -0.780000       15.9994           0
    1217 DNA  39   THY  O2P  ON3   -0.780000       15.9994           0
    1218 DNA  39   THY  O5'  ON2   -0.570000       15.9994           0
    1219 DNA  39   THY  C5'  CN8B  -0.080000       12.0110           0
    1220 DNA  39   THY  H5'  HN8    0.090000        1.0080           0
    1221 DNA  39   THY  H5'' HN8    0.090000        1.0080           0
    1222 DNA  39   THY  C4'  CN7    0.160000       12.0110           0
    1223 DNA  39   THY  H4'  HN7    0.090000        1.0080           0
    1224 DNA  39   THY  O4'  ON6   -0.500000       15.9994           0
    1225 DNA  39   THY  C1'  CN7B   0.160000       12.0110           0
    1226 DNA  39   THY  H1'  HN7    0.090000        1.0080           0
    1227 DNA  39   THY  N1   NN2B  -0.340000       14.0070           0
    1228 DNA  39   THY  C6   CN3    0.170000       12.0110           0
    1229 DNA  39   THY  H6   HN3    0.170000        1.0080           0
    1230 DNA  39   THY  C2   CN1T   0.510000       12.0110           0
    1231 DNA  39   THY  O2   ON1   -0.410000       15.9994           0
    1232 DNA  39   THY  N3   NN2U  -0.460000       14.0070           0
    1233 DNA  39   THY  H3   HN2    0.360000        1.0080           0
    1234 DNA  39   THY  C4   CN1    0.500000       12.0110           0
    1235 DNA  39   THY  O4   ON1   -0.450000       15.9994           0
    1236 DNA  39   THY  C5   CN3T  -0.150000       12.0110           0
    1237 DNA  39   THY  C5M  CN9   -0.110000       12.0110           0
    1238 DNA  39   THY  H51  HN9    0.070000        1.0080           0
    1239 DNA  39   THY  H52  HN9    0.070000        1.0080           0
    1240 DNA  39   THY  H53  HN9    0.070000        1.0080           0
    1241 DNA  39   THY  C2'  CN8   -0.180000       12.0110           0
    1242 DNA  39   THY  H2'' HN8    0.090000        1.0080           0
    1243 DNA  39   THY  H2'  HN8    0.090000        1.0080           0
    1244 DNA  39   THY  C3'  CN7    0.010000       12.0110           0
    1245 DNA  39   THY  H3'  HN7    0.090000        1.0080           0
    1246 DNA  39   THY  O3'  ON2   -0.570000       15.9994           0
    1247 DNA  40   THY  P    P2     1.500000       30.9740           0
    1248 DNA  40   THY  O1P  ON3   -0.780000       15.9994           0
    1249 DNA  40   THY  O2P  ON3   -0.780000       15.9994           0
    1250 DNA  40   THY  O5'  ON2   -0.570000       15.9994           0
    1251 DNA  40   THY  C5'  CN8B  -0.080000       12.0110           0
    1252 DNA  40   THY  H5'  HN8    0.090000        1.0080           0
    1253 DNA  40   THY  H5'' HN8    0.090000        1.0080           0
    1254 DNA  40   THY  C4'  CN7    0.160000       12.0110           0
    1255 DNA  40   THY  H4'  HN7    0.090000        1.0080           0
    1256 DNA  40   THY  O4'  ON6   -0.500000       15.9994           0
    1257 DNA  40   THY  C1'  CN7B   0.160000       12.0110           0
    1258 DNA  40   THY  H1'  HN7    0.090000        1.0080           0
    1259 DNA  40   THY  N1   NN2B  -0.340000       14.0070           0
    1260 DNA  40   THY  C6   CN3    0.170000       12.0110           0
    1261 DNA  40   THY  H6   HN3    0.170000        1.0080           0
    1262 DNA  40   THY  C2   CN1T   0.510000       12.0110           0
    1263 DNA  40   THY  O2   ON1   -0.410000       15.9994           0
    1264 DNA  40   THY  N3   NN2U  -0.460000       14.0070           0
    1265 DNA  40   THY  H3   HN2    0.360000        1.0080           0
    1266 DNA  40   THY  C4   CN1    0.500000       12.0110           0
    1267 DNA  40   THY  O4   ON1   -0.450000       15.9994           0
    1268 DNA  40   THY  C5   CN3T  -0.150000       12.0110           0
    1269 DNA  40   THY  C5M  CN9   -0.110000       12.0110           0
    1270 DNA  40   THY  H51  HN9    0.070000        1.0080           0
    1271 DNA  40   THY  H52  HN9    0.070000        1.0080           0
    1272 DNA  40   THY  H53  HN9    0.070000        1.0080           0
    1273 DNA  40   THY  C2'  CN8   -0.180000       12.0110           0
    1274 DNA  40   THY  H2'' HN8    0.090000        1.0080           0
    1275 DNA  40   THY  H2'  HN8    0.090000        1.0080           0
    1276 DNA  40   THY  C3'  CN7    0.140000       12.0110           0
    1277 DNA  40   THY  H3'  HN7    0.090000        1.0080           0
    1278 DNA  40   THY  O3'  ON5   -0.660000       15.9994           0
    1279 DNA  40   THY  H3T  HN5    0.430000        1.0080           0
    1280 WT1  1    TIP3 OH2  OT    -0.834000       15.9994           0
    1281 WT1  1    TIP3 H1   HT     0.417000        1.0080           0
    1282 WT1  1    TIP3 H2   HT     0.417000        1.0080           0
    1283 WT1  2    TIP3 OH2  OT    -0.834000       15.9994           0
    1284 WT1  2    TIP3 H1   HT     0.417000        1.0080           0
    1285 WT1  2    TIP3 H2   HT     0.417000        1.0080           0
    1286 WT1  3    TIP3 OH2  OT    -0.834000       15.9994           0
    1287 WT1  3    TIP3 H1   HT     0.417000        1.0080           0
    1288 WT1  3    TIP3 H2   HT     0.417000        1.0080           0
    1289 WT1  4    TIP3 OH2  OT    -0.834000       15.9994           0
    1290 WT1  4    TIP3 H1   HT     0.417000        1.0080           0
    1291 WT1  4    TIP3 H2   HT     0.417000        1.0080           0
    1292 WT1  5    TIP3 OH2  OT    -0.834000       15.9994           0
    1293 WT1  5    TIP3 H1   HT     0.417000        1.0080           0
    1294 WT1  5    TIP3 H2   HT     0.417000        1.0080           0
    1295 WT1  6    TIP3 OH2  OT    -0.834000       15.9994           0
    1296 WT1  6    TIP3 H1   HT     0.417000        1.0080           0
    1297 WT1  6    TIP3 H2   HT     0.417000        1.0080           0
    1298 WT1  7    TIP3 OH2  OT    -0.834000       15.9994           0
    1299 WT1  7    TIP3 H1   HT     0.417000        1.0080           0
    1300 WT1  7    TIP3 H2   HT     0.417000        1.0080           0
    1301 WT1  8    TIP3 OH2  OT    -0.834000       15.9994           0
    1302 WT1  8    TIP3 H1   HT     0.417000        1.0080           0
    1303 WT1  8    TIP3 H2   HT     0.417000        1.0080           0
    1304 WT1  10   TIP3 OH2  OT    -0.834000       15.9994           0
    1305 WT1  10   TIP3 H1   HT     0.417000        1.0080           0
    1306 WT1  10   TIP3 H2   HT     0.417000        1.0080           0
    1307 WT1  11   TIP3 OH2  OT    -0.834000       15.9994           0
    1308 WT1  11   TIP3 H1   HT     0.417000        1.0080           0
    1309 WT1  11   TIP3 H2   HT     0.417000        1.0080           0
    1310 WT1  12   TIP3 OH2  OT    -0.834000       15.9994           0
    1311 WT1  12   TIP3 H1   HT     0.417000        1.0080           0
    1312 WT1  12   TIP3 H2   HT     0.417000        1.0080           0
    1313 WT1  13   TIP3 OH2  OT    -0.834000       15.9994           0
    1314 WT1  13   TIP3 H1   HT     0.417000        1.0080           0
    1315 WT1  13   TIP3 H2   HT     0.417000        1.0080           0
    1316 WT1  14   TIP3 OH2  OT    -0.834000       15.9994           0
    1317 WT1  14   TIP3 H1   HT     0.417000        1.0080           0
    1318 WT1  14   TIP3 H2   HT     0.417000        1.0080           0
    1319 WT1  15   TIP3 OH2  OT    -0.834000       15.9994           0
    1320 WT1  15   TIP3 H1   HT     0.417000        1.0080           0
    1321 WT1  15   TIP3 H2   HT     0.417000        1.0080           0
    1322 WT1  16   TIP3 OH2  OT    -0.834000       15.9994           0
    1323 WT1  16   TIP3 H1   HT     0.417000        1.0080           0
    1324 WT1  16   TIP3 H2   HT     0.417000        1.0080           0
    1325 WT1  17   TIP3 OH2  OT    -0.834000       15.9994           0
    1326 WT1  17   TIP3 H1   HT     0.417000        1.0080           0
    1327 WT1  17   TIP3 H2   HT     0.417000        1.0080           0
    1328 WT1  19   TIP3 OH2  OT    -0.834000       15.9994           0
    1329 WT1  19   TIP3 H1   HT     0.417000        1.0080           0
    1330 WT1  19   TIP3 H2   HT     0.417000        1.0080           0
    1331 WT1  20   TIP3 OH2  OT    -0.834000       15.9994           0
    1332 WT1  20   TIP3 H1   HT     0.417000        1.0080           0
    1333 WT1  20   TIP3 H2   HT     0.417000        1.0080           0
    1334 WT1  21   TIP3 OH2  OT    -0.834000       15.9994           0
    1335 WT1  21   TIP3 H1   HT     0.417000        1.0080           0
    1336 WT1  21   TIP3 H2   HT     0.417000        1.0080           0
    1337 WT1  22   TIP3 OH2  OT    -0.834000       15.9994           0
    1338 WT1  22   TIP3 H1   HT     0.417000        1.0080           0
    1339 WT1  22   TIP3 H2   HT     0.417000        1.0080           0
    1340 WT1  23   TIP3 OH2  OT    -0.834000       15.9994           0
    1341 WT1  23   TIP3 H1   HT     0.417000        1.0080           0
    1342 WT1  23   TIP3 H2   HT     0.417000        1.0080           0
    1343 WT1  24   TIP3 OH2  OT    -0.834000       15.9994           0
    1344 WT1  24   TIP3 H1   HT     0.417000        1.0080           0
    1345 WT1  24   TIP3 H2   HT     0.417000        1.0080           0
    1346 WT1  25   TIP3 OH2  OT    -0.834000       15.9994           0
    1347 WT1  25   TIP3 H1   HT     0.417000        1.0080           0
    1348 WT1  25   TIP3 H2   HT     0.417000        1.0080           0
    1349 WT1  26   TIP3 OH2  OT    -0.834000       15.9994           0
    1350 WT1  26   TIP3 H1   HT     0.417000        1.0080           0
    1351 WT1  26   TIP3 H2   HT     0.417000        1.0080           0
    1352 WT1  27   TIP3 OH2  OT    -0.834000       15.9994           0
    1353 WT1  27   TIP3 H1   HT     0.417000        1.0080           0
    1354 WT1  27   TIP3 H2   HT     0.417000        1.0080           0
    1355 WT1  28   TIP3 OH2  OT    -0.834000       15.9994           0
    1356 WT1  28   TIP3 H1   HT     0.417000        1.0080           0
    1357 WT1  28   TIP3 H2   HT     0.417000        1.0080           0
    1358 WT1  29   TIP3 OH2  OT    -0.834000       15.9994           0
    1359 WT1  29   TIP3 H1   HT     0.417000        1.0080           0
    1360 WT1  29   TIP3 H2   HT     0.417000        1.0080           0
    1361 WT1  31   TIP3 OH2  OT    -0.834000       15.9994           0
    1362 WT1  31   TIP3 H1   HT     0.417000        1.0080           0
    1363 WT1  31   TIP3 H2   HT     0.417000        1.0080           0
    1364 WT1  32   TIP3 OH2  OT    -0.834000       15.9994           0
    1365 WT1  32   TIP3 H1   HT     0.417000        1.0080           0
    1366 WT1  32   TIP3 H2   HT     0.417000        1.0080           0
    1367 WT1  34   TIP3 OH2  OT    -0.834000       15.9994           0
    1368 WT1  34   TIP3 H1   HT     0.417000        1.0080           0
    1369 WT1  34   TIP3 H2   HT     0.417000        1.0080           0
    1370 WT1  35   TIP3 OH2  OT    -0.834000       15.9994           0
    1371 WT1  35   TIP3 H1   HT     0.417000        1.0080           0
    1372 WT1  35   TIP3 H2   HT     0.417000        1.0080           0
    1373 WT1  38   TIP3 OH2  OT    -0.834000       15.9994           0
    1374 WT1  38   TIP3 H1   HT     0.417000        1.0080           0
    1375 WT1  38   TIP3 H2   HT     0.417000        1.0080           0
    1376 WT1  39   TIP3 OH2  OT    -0.834000       15.9994           0
    1377 WT1  39   TIP3 H1   HT     0.417000        1.0080           0
    1378 WT1  39   TIP3 H2   HT     0.417000        1.0080           0
    1379 WT1  40   TIP3 OH2  OT    -0.834000       15.9994           0
    1380 WT1  40   TIP3 H1   HT     0.417000        1.0080           0
    1381 WT1  40   TIP3 H2   HT     0.417000        1.0080           0
    1382 WT1  41   TIP3 OH2  OT    -0.834000       15.9994           0
    1383 WT1  41   TIP3 H1   HT     0.417000        1.0080           0
    1384 WT1  41   TIP3 H2   HT     0.417000        1.0080           0
    1385 WT1  42   TIP3 OH2  OT    -0.834000       15.9994           0
    1386 WT1  42   TIP3 H1   HT     0.417000        1.0080           0
    1387 WT1  42   TIP3 H2   HT     0.417000        1.0080           0
    1388 WT1  43   TIP3 OH2  OT    -0.834000       15.9994           0
    1389 WT1  43   TIP3 H1   HT     0.417000        1.0080           0
    1390 WT1  43   TIP3 H2   HT     0.417000        1.0080           0
    1391 WT1  44   TIP3 OH2  OT    -0.834000       15.9994           0
    1392 WT1  44   TIP3 H1   HT     0.417000        1.0080           0
    1393 WT1  44   TIP3 H2   HT     0.417000        1.0080           0
    1394 WT1  45   TIP3 OH2  OT    -0.834000       15.9994           0
    1395 WT1  45   TIP3 H1   HT     0.417000        1.0080           0
    1396 WT1  45   TIP3 H2   HT     0.417000        1.0080           0
    1397 WT1  46   TIP3 OH2  OT    -0.834000       15.9994           0
    1398 WT1  46   TIP3 H1   HT     0.417000        1.0080           0
    1399 WT1  46   TIP3 H2   HT     0.417000        1.0080           0
    1400 WT1  47   TIP3 OH2  OT    -0.834000       15.9994           0
    1401 WT1  47   TIP3 H1   HT     0.417000        1.0080           0
    1402 WT1  47   TIP3 H2   HT     0.417000        1.0080           0
    1403 WT1  48   TIP3 OH2  OT    -0.834000       15.9994           0
    1404 WT1  48   TIP3 H1   HT     0.417000        1.0080           0
    1405 WT1  48   TIP3 H2   HT     0.417000        1.0080           0
    1406 WT1  49   TIP3 OH2  OT    -0.834000       15.9994           0
    1407 WT1  49   TIP3 H1   HT     0.417000        1.0080           0
    1408 WT1  49   TIP3 H2   HT     0.417000        1.0080           0
    1409 WT1  51   TIP3 OH2  OT    -0.834000       15.9994           0
    1410 WT1  51   TIP3 H1   HT     0.417000        1.0080           0
    1411 WT1  51   TIP3 H2   HT     0.417000        1.0080           0
    1412 WT1  52   TIP3 OH2  OT    -0.834000       15.9994           0
    1413 WT1  52   TIP3 H1   HT     0.417000        1.0080           0
    1414 WT1  52   TIP3 H2   HT     0.417000        1.0080           0
    1415 WT1  53   TIP3 OH2  OT    -0.834000       15.9994           0
    1416 WT1  53   TIP3 H1   HT     0.417000        1.0080           0
    1417 WT1  53   TIP3 H2   HT     0.417000        1.0080           0
    1418 WT1  54   TIP3 OH2  OT    -0.834000       15.9994           0
    1419 WT1  54   TIP3 H1   HT     0.417000        1.0080           0
    1420 WT1  54   TIP3 H2   HT     0.417000        1.0080           0
    1421 WT1  55   TIP3 OH2  OT    -0.834000       15.9994           0
    1422 WT1  55   TIP3 H1   HT     0.417000        1.0080           0
    1423 WT1  55   TIP3 H2   HT     0.417000        1.0080           0
    1424 WT1  56   TIP3 OH2  OT    -0.834000       15.9994           0
    1425 WT1  56   TIP3 H1   HT     0.417000        1.0080           0
    1426 WT1  56   TIP3 H2   HT     0.417000        1.0080           0
    1427 WT1  57   TIP3 OH2  OT    -0.834000       15.9994           0
    1428 WT1  57   TIP3 H1   HT     0.417000        1.0080           0
    1429 WT1  57   TIP3 H2   HT     0.417000        1.0080           0
    1430 WT1  59   TIP3 OH2  OT    -0.834000       15.9994           0
    1431 WT1  59   TIP3 H1   HT     0.417000        1.0080           0
    1432 WT1  59   TIP3 H2   HT     0.417000        1.0080           0
    1433 WT1  60   TIP3 OH2  OT    -0.834000       15.9994           0
    1434 WT1  60   TIP3 H1   HT     0.417000        1.0080           0
    1435 WT1  60   TIP3 H2   HT     0.417000        1.0080           0
    1436 WT1  61   TIP3 OH2  OT    -0.834000       15.9994           0
    1437 WT1  61   TIP3 H1   HT     0.417000        1.0080           0
    1438 WT1  61   TIP3 H2   HT     0.417000        1.0080           0
    1439 WT1  62   TIP3 OH2  OT    -0.834000       15.9994           0
    1440 WT1  62   TIP3 H1   HT     0.417000        1.0080           0
    1441 WT1  62   TIP3 H2   HT     0.417000        1.0080           0
    1442 WT1  63   TIP3 OH2  OT    -0.834000       15.9994           0
    1443 WT1  63   TIP3 H1   HT     0.417000        1.0080           0
    1444 WT1  63   TIP3 H2   HT     0.417000        1.0080           0
    1445 WT1  64   TIP3 OH2  OT    -0.834000       15.9994           0
    1446 WT1  64   TIP3 H1   HT     0.417000        1.0080           0
    1447 WT1  64   TIP3 H2   HT     0.417000        1.0080           0
    1448 WT1  65   TIP3 OH2  OT    -0.834000       15.9994           0
    1449 WT1  65   TIP3 H1   HT     0.417000        1.0080           0
    1450 WT1  65   TIP3 H2   HT     0.417000        1.0080           0
    1451 WT1  66   TIP3 OH2  OT    -0.834000       15.9994           0
    1452 WT1  66   TIP3 H1   HT     0.417000        1.0080           0
    1453 WT1  66   TIP3 H2   HT     0.417000        1.0080           0
    1454 WT1  67   TIP3 OH2  OT    -0.834000       15.9994           0
    1455 WT1  67   TIP3 H1   HT     0.417000        1.0080           0
    1456 WT1  67   TIP3 H2   HT     0.417000        1.0080           0
    1457 WT1  69   TIP3 OH2  OT    -0.834000       15.9994           0
    1458 WT1  69   TIP3 H1   HT     0.417000        1.0080           0
    1459 WT1  69   TIP3 H2   HT     0.417000        1.0080           0
    1460 WT1  70   TIP3 OH2  OT    -0.834000       15.9994           0
    1461 WT1  70   TIP3 H1   HT     0.417000        1.0080           0
    1462 WT1  70   TIP3 H2   HT     0.417000        1.0080           0
    1463 WT1  71   TIP3 OH2  OT    -0.834000       15.9994           0
    1464 WT1  71   TIP3 H1   HT     0.417000        1.0080           0
    1465 WT1  71   TIP3 H2   HT     0.417000        1.0080           0
    1466 WT1  72   TIP3 OH2  OT    -0.834000       15.9994           0
    1467 WT1  72   TIP3 H1   HT     0.417000        1.0080           0
    1468 WT1  72   TIP3 H2   HT     0.417000        1.0080           0
    1469 WT1  73   TIP3 OH2  OT    -0.834000       15.9994           0
    1470 WT1  73   TIP3 H1   HT     0.417000        1.0080           0
    1471 WT1  73   TIP3 H2   HT     0.417000        1.0080           0
    1472 WT1  75   TIP3 OH2  OT    -0.834000       15.9994           0
    1473 WT1  75   TIP3 H1   HT     0.417000        1.0080           0
    1474 WT1  75   TIP3 H2   HT     0.417000        1.0080           0
    1475 WT1  76   TIP3 OH2  OT    -0.834000       15.9994           0
    1476 WT1  76   TIP3 H1   HT     0.417000        1.0080           0
    1477 WT1  76   TIP3 H2   HT     0.417000        1.0080           0
    1478 WT1  78   TIP3 OH2  OT    -0.834000       15.9994           0
    1479 WT1  78   TIP3 H1   HT     0.417000        1.0080           0
    1480 WT1  78   TIP3 H2   HT     0.417000        1.0080           0
    1481 WT1  79   TIP3 OH2  OT    -0.834000       15.9994           0
    1482 WT1  79   TIP3 H1   HT     0.417000        1.0080           0
    1483 WT1  79   TIP3 H2   HT     0.417000        1.0080           0
    1484 WT1  80   TIP3 OH2  OT    -0.834000       15.9994           0
    1485 WT1  80   TIP3 H1   HT     0.417000        1.0080           0
    1486 WT1  80   TIP3 H2   HT     0.417000        1.0080           0
    1487 WT1  81   TIP3 OH2  OT    -0.834000       15.9994           0
    1488 WT1  81   TIP3 H1   HT     0.417000        1.0080           0
    1489 WT1  81   TIP3 H2   HT     0.417000        1.0080           0
    1490 WT1  82   TIP3 OH2  OT    -0.834000       15.9994           0
    1491 WT1  82   TIP3 H1   HT     0.417000        1.0080           0
    1492 WT1  82   TIP3 H2   HT     0.417000        1.0080           0
    1493 WT1  83   TIP3 OH2  OT    -0.834000       15.9994           0
    1494 WT1  83   TIP3 H1   HT     0.417000        1.0080           0
    1495 WT1  83   TIP3 H2   HT     0.417000        1.0080           0
    1496 WT1  84   TIP3 OH2  OT    -0.834000       15.9994           0
    1497 WT1  84   TIP3 H1   HT     0.417000        1.0080           0
    1498 WT1  84   TIP3 H2   HT     0.417000        1.0080           0
    1499 WT1  85   TIP3 OH2  OT    -0.834000       15.9994           0
    1500 WT1  85   TIP3 H1   HT     0.417000        1.0080           0
    1501 WT1  85   TIP3 H2   HT     0.417000        1.0080           0
    1502 WT1  87   TIP3 OH2  OT    -0.834000       15.9994           0
    1503 WT1  87   TIP3 H1   HT     0.417000        1.0080           0
    1504 WT1  87   TIP3 H2   HT     0.417000        1.0080           0
    1505 WT1  88   TIP3 OH2  OT    -0.834000       15.9994           0
    1506 WT1  88   TIP3 H1   HT     0.417000        1.0080           0
    1507 WT1  88   TIP3 H2   HT     0.417000        1.0080           0
    1508 WT1  89   TIP3 OH2  OT    -0.834000       15.9994           0
    1509 WT1  89   TIP3 H1   HT     0.417000        1.0080           0
    1510 WT1  89   TIP3 H2   HT     0.417000        1.0080           0
    1511 WT1  90   TIP3 OH2  OT    -0.834000       15.9994           0
    1512 WT1  90   TIP3 H1   HT     0.417000        1.0080           0
    1513 WT1  90   TIP3 H2   HT     0.417000        1.0080           0
    1514 WT1  91   TIP3 OH2  OT    -0.834000       15.9994           0
    1515 WT1  91   TIP3 H1   HT     0.417000        1.0080           0
    1516 WT1  91   TIP3 H2   HT     0.417000        1.0080           0
    1517 WT1  92   TIP3 OH2  OT    -0.834000       15.9994           0
    1518 WT1  92   TIP3 H1   HT     0.417000        1.0080           0
    1519 WT1  92   TIP3 H2   HT     0.417000        1.0080           0
    1520 WT1  93   TIP3 OH2  OT    -0.834000       15.9994           0
    1521 WT1  93   TIP3 H1   HT     0.417000        1.0080           0
    1522 WT1  93   TIP3 H2   HT     0.417000        1.0080           0
    1523 WT1  94   TIP3 OH2  OT    -0.834000       15.9994           0
    1524 WT1  94   TIP3 H1   HT     0.417000        1.0080           0
    1525 WT1  94   TIP3 H2   HT     0.417000        1.0080           0
    1526 WT1  96   TIP3 OH2  OT    -0.834000       15.9994           0
    1527 WT1  96   TIP3 H1   HT     0.417000        1.0080           0
    1528 WT1  96   TIP3 H2   HT     0.417000        1.0080           0
    1529 WT1  97   TIP3 OH2  OT    -0.834000       15.9994           0
    1530 WT1  97   TIP3 H1   HT     0.417000        1.0080           0
    1531 WT1  97   TIP3 H2   HT     0.417000        1.0080           0
    1532 WT1  98   TIP3 OH2  OT    -0.834000       15.9994           0
    1533 WT1  98   TIP3 H1   HT     0.417000        1.0080           0
    1534 WT1  98   TIP3 H2   HT     0.417000        1.0080           0
    1535 WT1  99   TIP3 OH2  OT    -0.834000       15.9994           0
    1536 WT1  99   TIP3 H1   HT     0.417000        1.0080           0
    1537 WT1  99   TIP3 H2   HT     0.417000        1.0080           0
    1538 WT1  100  TIP3 OH2  OT    -0.834000       15.9994           0
    1539 WT1  100  TIP3 H1   HT     0.417000        1.0080           0
    1540 WT1  100  TIP3 H2   HT     0.417000        1.0080           0
    1541 WT1  101  TIP3 OH2  OT    -0.834000       15.9994           0
    1542 WT1  101  TIP3 H1   HT     0.417000        1.0080           0
    1543 WT1  101  TIP3 H2   HT     0.417000        1.0080           0
    1544 WT1  102  TIP3 OH2  OT    -0.834000       15.9994           0
    1545 WT1  102  TIP3 H1   HT     0.417000        1.0080           0
    1546 WT1  102  TIP3 H2   HT     0.417000        1.0080           0
    1547 WT1  103  TIP3 OH2  OT    -0.834000       15.9994           0
    1548 WT1  103  TIP3 H1   HT     0.417000        1.0080           0
    1549 WT1  103  TIP3 H2   HT     0.417000        1.0080           0
    1550 WT1  104  TIP3 OH2  OT    -0.834000       15.9994           0
    1551 WT1  104  TIP3 H1   HT     0.417000        1.0080           0
    1552 WT1  104  TIP3 H2   HT     0.417000        1.0080           0
    1553 WT1  105  TIP3 OH2  OT    -0.834000       15.9994           0
    1554 WT1  105  TIP3 H1   HT     0.417000        1.0080           0
    1555 WT1  105  TIP3 H2   HT     0.417000        1.0080           0
    1556 WT1  106  TIP3 OH2  OT    -0.834000       15.9994           0
    1557 WT1  106  TIP3 H1   HT     0.417000        1.0080           0
    1558 WT1  106  TIP3 H2   HT     0.417000        1.0080           0
    1559 WT1  107  TIP3 OH2  OT    -0.834000       15.9994           0
    1560 WT1  107  TIP3 H1   HT     0.417000        1.0080           0
    1561 WT1  107  TIP3 H2   HT     0.417000        1.0080           0
    1562 WT1  109  TIP3 OH2  OT    -0.834000       15.9994           0
    1563 WT1  109  TIP3 H1   HT     0.417000        1.0080           0
    1564 WT1  109  TIP3 H2   HT     0.417000        1.0080           0
    1565 WT1  110  TIP3 OH2  OT    -0.834000       15.9994           0
    1566 WT1  110  TIP3 H1   HT     0.417000        1.0080           0
    1567 WT1  110  TIP3 H2   HT     0.417000        1.0080           0
    1568 WT1  111  TIP3 OH2  OT    -0.834000       15.9994           0
    1569 WT1  111  TIP3 H1   HT     0.417000        1.0080           0
    1570 WT1  111  TIP3 H2   HT     0.417000        1.0080           0
    1571 WT1  112  TIP3 OH2  OT    -0.834000       15.9994           0
    1572 WT1  112  TIP3 H1   HT     0.417000        1.0080           0
    1573 WT1  112  TIP3 H2   HT     0.417000        1.0080           0
    1574 WT1  113  TIP3 OH2  OT    -0.834000       15.9994           0
    1575 WT1  113  TIP3 H1   HT     0.417000        1.0080           0
    1576 WT1  113  TIP3 H2   HT     0.417000        1.0080           0
    1577 WT1  114  TIP3 OH2  OT    -0.834000       15.9994           0
    1578 WT1  114  TIP3 H1   HT     0.417000        1.0080           0
    1579 WT1  114  TIP3 H2   HT     0.417000        1.0080           0
    1580 WT1  115  TIP3 OH2  OT    -0.834000       15.9994           0
    1581 WT1  115  TIP3 H1   HT     0.417000        1.0080           0
    1582 WT1  115  TIP3 H2   HT     0.417000        1.0080           0
    1583 WT1  116  TIP3 OH2  OT    -0.834000       15.9994           0
    1584 WT1  116  TIP3 H1   HT     0.417000        1.0080           0
    1585 WT1  116  TIP3 H2   HT     0.417000        1.0080           0
    1586 WT1  117  TIP3 OH2  OT    -0.834000       15.9994           0
    1587 WT1  117  TIP3 H1   HT     0.417000        1.0080           0
    1588 WT1  117  TIP3 H2   HT     0.417000        1.0080           0
    1589 WT1  118  TIP3 OH2  OT    -0.834000       15.9994           0
    1590 WT1  118  TIP3 H1   HT     0.417000        1.0080           0
    1591 WT1  118  TIP3 H2   HT     0.417000        1.0080           0
    1592 WT1  119  TIP3 OH2  OT    -0.834000       15.9994           0
    1593 WT1  119  TIP3 H1   HT     0.417000        1.0080           0
    1594 WT1  119  TIP3 H2   HT     0.417000        1.0080           0
    1595 WT1  120  TIP3 OH2  OT    -0.834000       15.9994           0
    1596 WT1  120  TIP3 H1   HT     0.417000        1.0080           0
    1597 WT1  120  TIP3 H2   HT     0.417000        1.0080           0
    1598 WT1  121  TIP3 OH2  OT    -0.834000       15.9994           0
    1599 WT1  121  TIP3 H1   HT     0.417000        1.0080           0
    1600 WT1  121  TIP3 H2   HT     0.417000        1.0080           0
    1601 WT1  122  TIP3 OH2  OT    -0.834000       15.9994           0
    1602 WT1  122  TIP3 H1   HT     0.417000        1.0080           0
    1603 WT1  122  TIP3 H2   HT     0.417000        1.0080           0
    1604 WT1  123  TIP3 OH2  OT    -0.834000       15.9994           0
    1605 WT1  123  TIP3 H1   HT     0.417000        1.0080           0
    1606 WT1  123  TIP3 H2   HT     0.417000        1.0080           0
    1607 WT1  124  TIP3 OH2  OT    -0.834000       15.9994           0
    1608 WT1  124  TIP3 H1   HT     0.417000        1.0080           0
    1609 WT1  124  TIP3 H2   HT     0.417000        1.0080           0
    1610 WT1  125  TIP3 OH2  OT    -0.834000       15.9994           0
    1611 WT1  125  TIP3 H1   HT     0.417000        1.0080           0
    1612 WT1  125  TIP3 H2   HT     0.417000        1.0080           0
    1613 WT1  126  TIP3 OH2  OT    -0.834000       15.9994           0
    1614 WT1  126  TIP3 H1   HT     0.417000        1.0080           0
    1615 WT1  126  TIP3 H2   HT     0.417000        1.0080           0
    1616 WT1  127  TIP3 OH2  OT    -0.834000       15.9994           0
    1617 WT1  127  TIP3 H1   HT     0.417000        1.0080           0
    1618 WT1  127  TIP3 H2   HT     0.417000        1.0080           0
    1619 WT1  128  TIP3 OH2  OT    -0.834000       15.9994           0
    1620 WT1  128  TIP3 H1   HT     0.417000        1.0080           0
    1621 WT1  128  TIP3 H2   HT     0.417000        1.0080           0
    1622 WT1  130  TIP3 OH2  OT    -0.834000       15.9994           0
    1623 WT1  130  TIP3 H1   HT     0.417000        1.0080           0
    1624 WT1  130  TIP3 H2   HT     0.417000        1.0080           0
    1625 WT1  131  TIP3 OH2  OT    -0.834000       15.9994           0
    1626 WT1  131  TIP3 H1   HT     0.417000        1.0080           0
    1627 WT1  131  TIP3 H2   HT     0.417000        1.0080           0
    1628 WT1  132  TIP3 OH2  OT    -0.834000       15.9994           0
    1629 WT1  132  TIP3 H1   HT     0.417000        1.0080           0
    1630 WT1  132  TIP3 H2   HT     0.417000        1.0080           0
    1631 WT1  133  TIP3 OH2  OT    -0.834000       15.9994           0
    1632 WT1  133  TIP3 H1   HT     0.417000        1.0080           0
    1633 WT1  133  TIP3 H2   HT     0.417000        1.0080           0
    1634 WT1  134  TIP3 OH2  OT    -0.834000       15.9994           0
    1635 WT1  134  TIP3 H1   HT     0.417000        1.0080           0
    1636 WT1  134  TIP3 H2   HT     0.417000        1.0080           0
    1637 WT1  135  TIP3 OH2  OT    -0.834000       15.9994           0
    1638 WT1  135  TIP3 H1   HT     0.417000        1.0080           0
    1639 WT1  135  TIP3 H2   HT     0.417000        1.0080           0
    1640 WT1  136  TIP3 OH2  OT    -0.834000       15.9994           0
    1641 WT1  136  TIP3 H1   HT     0.417000        1.0080           0
    1642 WT1  136  TIP3 H2   HT     0.417000        1.0080           0
    1643 WT1  137  TIP3 OH2  OT    -0.834000       15.9994           0
    1644 WT1  137  TIP3 H1   HT     0.417000        1.0080           0
    1645 WT1  137  TIP3 H2   HT     0.417000        1.0080           0
    1646 WT1  138  TIP3 OH2  OT    -0.834000       15.9994           0
    1647 WT1  138  TIP3 H1   HT     0.417000        1.0080           0
    1648 WT1  138  TIP3 H2   HT     0.417000        1.0080           0
    1649 WT1  139  TIP3 OH2  OT    -0.834000       15.9994           0
    1650 WT1  139  TIP3 H1   HT     0.417000        1.0080           0
    1651 WT1  139  TIP3 H2   HT     0.417000        1.0080           0
    1652 WT1  140  TIP3 OH2  OT    -0.834000       15.9994           0
    1653 WT1  140  TIP3 H1   HT     0.417000        1.0080           0
    1654 WT1  140  TIP3 H2   HT     0.417000        1.0080           0
    1655 WT1  142  TIP3 OH2  OT    -0.834000       15.9994           0
    1656 WT1  142  TIP3 H1   HT     0.417000        1.0080           0
    1657 WT1  142  TIP3 H2   HT     0.417000        1.0080           0
    1658 WT1  143  TIP3 OH2  OT    -0.834000       15.9994           0
    1659 WT1  143  TIP3 H1   HT     0.417000        1.0080           0
    1660 WT1  143  TIP3 H2   HT     0.417000        1.0080           0
    1661 WT1  145  TIP3 OH2  OT    -0.834000       15.9994           0
    1662 WT1  145  TIP3 H1   HT     0.417000        1.0080           0
    1663 WT1  145  TIP3 H2   HT     0.417000        1.0080           0
    1664 WT1  147  TIP3 OH2  OT    -0.834000       15.9994           0
    1665 WT1  147  TIP3 H1   HT     0.417000        1.0080           0
    1666 WT1  147  TIP3 H2   HT     0.417000        1.0080           0
    1667 WT1  148  TIP3 OH2  OT    -0.834000       15.9994           0
    1668 WT1  148  TIP3 H1   HT     0.417000        1.0080           0
    1669 WT1  148  TIP3 H2   HT     0.417000        1.0080           0
    1670 WT1  149  TIP3 OH2  OT    -0.834000       15.9994           0
    1671 WT1  149  TIP3 H1   HT     0.417000        1.0080           0
    1672 WT1  149  TIP3 H2   HT     0.417000        1.0080           0
    1673 WT1  150  TIP3 OH2  OT    -0.834000       15.9994           0
    1674 WT1  150  TIP3 H1   HT     0.417000        1.0080           0
    1675 WT1  150  TIP3 H2   HT     0.417000        1.0080           0
    1676 WT1  151  TIP3 OH2  OT    -0.834000       15.9994           0
    1677 WT1  151  TIP3 H1   HT     0.417000        1.0080           0
    1678 WT1  151  TIP3 H2   HT     0.417000        1.0080           0
    1679 WT1  152  TIP3 OH2  OT    -0.834000       15.9994           0
    1680 WT1  152  TIP3 H1   HT     0.417000        1.0080           0
    1681 WT1  152  TIP3 H2   HT     0.417000        1.0080           0
    1682 WT1  153  TIP3 OH2  OT    -0.834000       15.9994           0
    1683 WT1  153  TIP3 H1   HT     0.417000        1.0080           0
    1684 WT1  153  TIP3 H2   HT     0.417000        1.0080           0
    1685 WT1  154  TIP3 OH2  OT    -0.834000       15.9994           0
    1686 WT1  154  TIP3 H1   HT     0.417000        1.0080           0
    1687 WT1  154  TIP3 H2   HT     0.417000        1.0080           0
    1688 WT1  156  TIP3 OH2  OT    -0.834000       15.9994           0
    1689 WT1  156  TIP3 H1   HT     0.417000        1.0080           0
    1690 WT1  156  TIP3 H2   HT     0.417000        1.0080           0
    1691 WT1  157  TIP3 OH2  OT    -0.834000       15.9994           0
    1692 WT1  157  TIP3 H1   HT     0.417000        1.0080           0
    1693 WT1  157  TIP3 H2   HT     0.417000        1.0080           0
    1694 WT1  158  TIP3 OH2  OT    -0.834000       15.9994           0
    1695 WT1  158  TIP3 H1   HT     0.417000        1.0080           0
    1696 WT1  158  TIP3 H2   HT     0.417000        1.0080           0
    1697 WT1  159  TIP3 OH2  OT    -0.834000       15.9994           0
    1698 WT1  159  TIP3 H1   HT     0.417000        1.0080           0
    1699 WT1  159  TIP3 H2   HT     0.417000        1.0080           0
    1700 WT1  160  TIP3 OH2  OT    -0.834000       15.9994           0
    1701 WT1  160  TIP3 H1   HT     0.417000        1.0080           0
    1702 WT1  160  TIP3 H2   HT     0.417000        1.0080           0
    1703 WT1  161  TIP3 OH2  OT    -0.834000       15.9994           0
    1704 WT1  161  TIP3 H1   HT     0.417000        1.0080           0
    1705 WT1  161  TIP3 H2   HT     0.417000        1.0080           0
    1706 WT1  162  TIP3 OH2  OT    -0.834000       15.9994           0
    1707 WT1  162  TIP3 H1   HT     0.417000        1.0080           0
    1708 WT1  162  TIP3 H2   HT     0.417000        1.0080           0
    1709 WT1  163  TIP3 OH2  OT    -0.834000       15.9994           0
    1710 WT1  163  TIP3 H1   HT     0.417000        1.0080           0
    1711 WT1  163  TIP3 H2   HT     0.417000        1.0080           0
    1712 WT1  164  TIP3 OH2  OT    -0.834000       15.9994           0
    1713 WT1  164  TIP3 H1   HT     0.417000        1.0080           0
    1714 WT1  164  TIP3 H2   HT     0.417000        1.0080           0
    1715 WT1  165  TIP3 OH2  OT    -0.834000       15.9994           0
    1716 WT1  165  TIP3 H1   HT     0.417000        1.0080           0
    1717 WT1  165  TIP3 H2   HT     0.417000        1.0080           0
    1718 WT1  166  TIP3 OH2  OT    -0.834000       15.9994           0
    1719 WT1  166  TIP3 H1   HT     0.417000        1.0080           0
    1720 WT1  166  TIP3 H2   HT     0.417000        1.0080           0
    1721 WT1  169  TIP3 OH2  OT    -0.834000       15.9994           0
    1722 WT1  169  TIP3 H1   HT     0.417000        1.0080           0
    1723 WT1  169  TIP3 H2   HT     0.417000        1.0080           0
    1724 WT1  170  TIP3 OH2  OT    -0.834000       15.9994           0
    1725 WT1  170  TIP3 H1   HT     0.417000        1.0080           0
    1726 WT1  170  TIP3 H2   HT     0.417000        1.0080           0
    1727 WT1  171  TIP3 OH2  OT    -0.834000       15.9994           0
    1728 WT1  171  TIP3 H1   HT     0.417000        1.0080           0
    1729 WT1  171  TIP3 H2   HT     0.417000        1.0080           0
    1730 WT1  172  TIP3 OH2  OT    -0.834000       15.9994           0
    1731 WT1  172  TIP3 H1   HT     0.417000        1.0080           0
    1732 WT1  172  TIP3 H2   HT     0.417000        1.0080           0
    1733 WT1  173  TIP3 OH2  OT    -0.834000       15.9994           0
    1734 WT1  173  TIP3 H1   HT     0.417000        1.0080           0
    1735 WT1  173  TIP3 H2   HT     0.417000        1.0080           0
    1736 WT1  176  TIP3 OH2  OT    -0.834000       15.9994           0
    1737 WT1  176  TIP3 H1   HT     0.417000        1.0080           0
    1738 WT1  176  TIP3 H2   HT     0.417000        1.0080           0
    1739 WT1  177  TIP3 OH2  OT    -0.834000       15.9994           0
    1740 WT1  177  TIP3 H1   HT     0.417000        1.0080           0
    1741 WT1  177  TIP3 H2   HT     0.417000        1.0080           0
    1742 WT1  178  TIP3 OH2  OT    -0.834000       15.9994           0
    1743 WT1  178  TIP3 H1   HT     0.417000        1.0080           0
    1744 WT1  178  TIP3 H2   HT     0.417000        1.0080           0
    1745 WT1  179  TIP3 OH2  OT    -0.834000       15.9994           0
    1746 WT1  179  TIP3 H1   HT     0.417000        1.0080           0
    1747 WT1  179  TIP3 H2   HT     0.417000        1.0080           0
    1748 WT1  180  TIP3 OH2  OT    -0.834000       15.9994           0
    1749 WT1  180  TIP3 H1   HT     0.417000        1.0080           0
    1750 WT1  180  TIP3 H2   HT     0.417000        1.0080           0
    1751 WT1  181  TIP3 OH2  OT    -0.834000       15.9994           0
    1752 WT1  181  TIP3 H1   HT     0.417000        1.0080           0
    1753 WT1  181  TIP3 H2   HT     0.417000        1.0080           0
    1754 WT1  183  TIP3 OH2  OT    -0.834000       15.9994           0
    1755 WT1  183  TIP3 H1   HT     0.417000        1.0080           0
    1756 WT1  183  TIP3 H2   HT     0.417000        1.0080           0
    1757 WT1  184  TIP3 OH2  OT    -0.834000       15.9994           0
    1758 WT1  184  TIP3 H1   HT     0.417000        1.0080           0
    1759 WT1  184  TIP3 H2   HT     0.417000        1.0080           0
    1760 WT1  185  TIP3 OH2  OT    -0.834000       15.9994           0
    1761 WT1  185  TIP3 H1   HT     0.417000        1.0080           0
    1762 WT1  185  TIP3 H2   HT     0.417000        1.0080           0
    1763 WT1  186  TIP3 OH2  OT    -0.834000       15.9994           0
    1764 WT1  186  TIP3 H1   HT     0.417000        1.0080           0
    1765 WT1  186  TIP3 H2   HT     0.417000        1.0080           0
    1766 WT1  187  TIP3 OH2  OT    -0.834000       15.9994           0
    1767 WT1  187  TIP3 H1   HT     0.417000        1.0080           0
    1768 WT1  187  TIP3 H2   HT     0.417000        1.0080           0
    1769 WT1  188  TIP3 OH2  OT    -0.834000       15.9994           0
    1770 WT1  188  TIP3 H1   HT     0.417000        1.0080           0
    1771 WT1  188  TIP3 H2   HT     0.417000        1.0080           0
    1772 WT1  190  TIP3 OH2  OT    -0.834000       15.9994           0
    1773 WT1  190  TIP3 H1   HT     0.417000        1.0080           0
    1774 WT1  190  TIP3 H2   HT     0.417000        1.0080           0
    1775 WT1  191  TIP3 OH2  OT    -0.834000       15.9994           0
    1776 WT1  191  TIP3 H1   HT     0.417000        1.0080           0
    1777 WT1  191  TIP3 H2   HT     0.417000        1.0080           0
    1778 WT1  192  TIP3 OH2  OT    -0.834000       15.9994           0
    1779 WT1  192  TIP3 H1   HT     0.417000        1.0080           0
    1780 WT1  192  TIP3 H2   HT     0.417000        1.0080           0
    1781 WT1  193  TIP3 OH2  OT    -0.834000       15.9994           0
    1782 WT1  193  TIP3 H1   HT     0.417000        1.0080           0
    1783 WT1  193  TIP3 H2   HT     0.417000        1.0080           0
    1784 WT1  196  TIP3 OH2  OT    -0.834000       15.9994           0
    1785 WT1  196  TIP3 H1   HT     0.417000        1.0080           0
    1786 WT1  196  TIP3 H2   HT     0.417000        1.0080           0
    1787 WT1  198  TIP3 OH2  OT    -0.834000       15.9994           0
    1788 WT1  198  TIP3 H1   HT     0.417000        1.0080           0
    1789 WT1  198  TIP3 H2   HT     0.417000        1.0080           0
    1790 WT1  199  TIP3 OH2  OT    -0.834000       15.9994           0
    1791 WT1  199  TIP3 H1   HT     0.417000        1.0080           0
    1792 WT1  199  TIP3 H2   HT     0.417000        1.0080           0
    1793 WT1  200  TIP3 OH2  OT    -0.834000       15.9994           0
    1794 WT1  200  TIP3 H1   HT     0.417000        1.0080           0
    1795 WT1  200  TIP3 H2   HT     0.417000        1.0080           0
    1796 WT1  201  TIP3 OH2  OT    -0.834000       15.9994           0
    1797 WT1  201  TIP3 H1   HT     0.417000        1.0080           0
    1798 WT1  201  TIP3 H2   HT     0.417000        1.0080           0
    1799 WT1  202  TIP3 OH2  OT    -0.834000       15.9994           0
    1800 WT1  202  TIP3 H1   HT     0.417000        1.0080           0
    1801 WT1  202  TIP3 H2   HT     0.417000        1.0080           0
    1802 WT1  203  TIP3 OH2  OT    -0.834000       15.9994           0
    1803 WT1  203  TIP3 H1   HT     0.417000        1.0080           0
    1804 WT1  203  TIP3 H2   HT     0.417000        1.0080           0
    1805 WT1  204  TIP3 OH2  OT    -0.834000       15.9994           0
    1806 WT1  204  TIP3 H1   HT     0.417000        1.0080           0
    1807 WT1  204  TIP3 H2   HT     0.417000        1.0080           0
    1808 WT1  205  TIP3 OH2  OT    -0.834000       15.9994           0
    1809 WT1  205  TIP3 H1   HT     0.417000        1.0080           0
    1810 WT1  205  TIP3 H2   HT     0.417000        1.0080           0
    1811 WT1  206  TIP3 OH2  OT    -0.834000       15.9994           0
    1812 WT1  206  TIP3 H1   HT     0.417000        1.0080           0
    1813 WT1  206  TIP3 H2   HT     0.417000        1.0080           0
    1814 WT1  207  TIP3 OH2  OT    -0.834000       15.9994           0
    1815 WT1  207  TIP3 H1   HT     0.417000        1.0080           0
    1816 WT1  207  TIP3 H2   HT     0.417000        1.0080           0
    1817 WT1  208  TIP3 OH2  OT    -0.834000       15.9994           0
    1818 WT1  208  TIP3 H1   HT     0.417000        1.0080           0
    1819 WT1  208  TIP3 H2   HT     0.417000        1.0080           0
    1820 WT1  209  TIP3 OH2  OT    -0.834000       15.9994           0
    1821 WT1  209  TIP3 H1   HT     0.417000        1.0080           0
    1822 WT1  209  TIP3 H2   HT     0.417000        1.0080           0
    1823 WT1  210  TIP3 OH2  OT    -0.834000       15.9994           0
    1824 WT1  210  TIP3 H1   HT     0.417000        1.0080           0
    1825 WT1  210  TIP3 H2   HT     0.417000        1.0080           0
    1826 WT1  211  TIP3 OH2  OT    -0.834000       15.9994           0
    1827 WT1  211  TIP3 H1   HT     0.417000        1.0080           0
    1828 WT1  211  TIP3 H2   HT     0.417000        1.0080           0
    1829 WT1  212  TIP3 OH2  OT    -0.834000       15.9994           0
    1830 WT1  212  TIP3 H1   HT     0.417000        1.0080           0
    1831 WT1  212  TIP3 H2   HT     0.417000        1.0080           0
    1832 WT1  213  TIP3 OH2  OT    -0.834000       15.9994           0
    1833 WT1  213  TIP3 H1   HT     0.417000        1.0080           0
    1834 WT1  213  TIP3 H2   HT     0.417000        1.0080           0
    1835 WT1  214  TIP3 OH2  OT    -0.834000       15.9994           0
    1836 WT1  214  TIP3 H1   HT     0.417000        1.0080           0
    1837 WT1  214  TIP3 H2   HT     0.417000        1.0080           0
    1838 WT1  215  TIP3 OH2  OT    -0.834000       15.9994           0
    1839 WT1  215  TIP3 H1   HT     0.417000        1.0080           0
    1840 WT1  215  TIP3 H2   HT     0.417000        1.0080           0
    1841 WT1  216  TIP3 OH2  OT    -0.834000       15.9994           0
    1842 WT1  216  TIP3 H1   HT     0.417000        1.0080           0
    1843 WT1  216  TIP3 H2   HT     0.417000        1.0080           0
    1844 WT1  217  TIP3 OH2  OT    -0.834000       15.9994           0
    1845 WT1  217  TIP3 H1   HT     0.417000        1.0080           0
    1846 WT1  217  TIP3 H2   HT     0.417000        1.0080           0
    1847 WT1  218  TIP3 OH2  OT    -0.834000       15.9994           0
    1848 WT1  218  TIP3 H1   HT     0.417000        1.0080           0
    1849 WT1  218  TIP3 H2   HT     0.417000        1.0080           0
    1850 WT1  221  TIP3 OH2  OT    -0.834000       15.9994           0
    1851 WT1  221  TIP3 H1   HT     0.417000        1.0080           0
    1852 WT1  221  TIP3 H2   HT     0.417000        1.0080           0
    1853 WT1  222  TIP3 OH2  OT    -0.834000       15.9994           0
    1854 WT1  222  TIP3 H1   HT     0.417000        1.0080           0
    1855 WT1  222  TIP3 H2   HT     0.417000        1.0080           0
    1856 WT1  223  TIP3 OH2  OT    -0.834000       15.9994           0
    1857 WT1  223  TIP3 H1   HT     0.417000        1.0080           0
    1858 WT1  223  TIP3 H2   HT     0.417000        1.0080           0
    1859 WT1  224  TIP3 OH2  OT    -0.834000       15.9994           0
    1860 WT1  224  TIP3 H1   HT     0.417000        1.0080           0
    1861 WT1  224  TIP3 H2   HT     0.417000        1.0080           0
    1862 WT1  225  TIP3 OH2  OT    -0.834000       15.9994           0
    1863 WT1  225  TIP3 H1   HT     0.417000        1.0080           0
    1864 WT1  225  TIP3 H2   HT     0.417000        1.0080           0
    1865 WT1  227  TIP3 OH2  OT    -0.834000       15.9994           0
    1866 WT1  227  TIP3 H1   HT     0.417000        1.0080           0
    1867 WT1  227  TIP3 H2   HT     0.417000        1.0080           0
    1868 WT1  228  TIP3 OH2  OT    -0.834000       15.9994           0
    1869 WT1  228  TIP3 H1   HT     0.417000        1.0080           0
    1870 WT1  228  TIP3 H2   HT     0.417000        1.0080           0
    1871 WT1  229  TIP3 OH2  OT    -0.834000       15.9994           0
    1872 WT1  229  TIP3 H1   HT     0.417000        1.0080           0
    1873 WT1  229  TIP3 H2   HT     0.417000        1.0080           0
    1874 WT1  230  TIP3 OH2  OT    -0.834000       15.9994           0
    1875 WT1  230  TIP3 H1   HT     0.417000        1.0080           0
    1876 WT1  230  TIP3 H2   HT     0.417000        1.0080           0
    1877 WT1  231  TIP3 OH2  OT    -0.834000       15.9994           0
    1878 WT1  231  TIP3 H1   HT     0.417000        1.0080           0
    1879 WT1  231  TIP3 H2   HT     0.417000        1.0080           0
    1880 WT1  232  TIP3 OH2  OT    -0.834000       15.9994           0
    1881 WT1  232  TIP3 H1   HT     0.417000        1.0080           0
    1882 WT1  232  TIP3 H2   HT     0.417000        1.0080           0
    1883 WT1  233  TIP3 OH2  OT    -0.834000       15.9994           0
    1884 WT1  233  TIP3 H1   HT     0.417000        1.0080           0
    1885 WT1  233  TIP3 H2   HT     0.417000        1.0080           0
    1886 WT1  235  TIP3 OH2  OT    -0.834000       15.9994           0
    1887 WT1  235  TIP3 H1   HT     0.417000        1.0080           0
    1888 WT1  235  TIP3 H2   HT     0.417000        1.0080           0
    1889 WT1  237  TIP3 OH2  OT    -0.834000       15.9994           0
    1890 WT1  237  TIP3 H1   HT     0.417000        1.0080           0
    1891 WT1  237  TIP3 H2   HT     0.417000        1.0080           0
    1892 WT1  238  TIP3 OH2  OT    -0.834000       15.9994           0
    1893 WT1  238  TIP3 H1   HT     0.417000        1.0080           0
    1894 WT1  238  TIP3 H2   HT     0.417000        1.0080           0
    1895 WT1  239  TIP3 OH2  OT    -0.834000       15.9994           0
    1896 WT1  239  TIP3 H1   HT     0.417000        1.0080           0
    1897 WT1  239  TIP3 H2   HT     0.417000        1.0080           0
    1898 WT1  240  TIP3 OH2  OT    -0.834000       15.9994           0
    1899 WT1  240  TIP3 H1   HT     0.417000        1.0080           0
    1900 WT1  240  TIP3 H2   HT     0.417000        1.0080           0
    1901 WT1  242  TIP3 OH2  OT    -0.834000       15.9994           0
    1902 WT1  242  TIP3 H1   HT     0.417000        1.0080           0
    1903 WT1  242  TIP3 H2   HT     0.417000        1.0080           0
    1904 WT1  244  TIP3 OH2  OT    -0.834000       15.9994           0
    1905 WT1  244  TIP3 H1   HT     0.417000        1.0080           0
    1906 WT1  244  TIP3 H2   HT     0.417000        1.0080           0
    1907 WT1  245  TIP3 OH2  OT    -0.834000       15.9994           0
    1908 WT1  245  TIP3 H1   HT     0.417000        1.0080           0
    1909 WT1  245  TIP3 H2   HT     0.417000        1.0080           0
    1910 WT1  246  TIP3 OH2  OT    -0.834000       15.9994           0
    1911 WT1  246  TIP3 H1   HT     0.417000        1.0080           0
    1912 WT1  246  TIP3 H2   HT     0.417000        1.0080           0
    1913 WT1  247  TIP3 OH2  OT    -0.834000       15.9994           0
    1914 WT1  247  TIP3 H1   HT     0.417000        1.0080           0
    1915 WT1  247  TIP3 H2   HT     0.417000        1.0080           0
    1916 WT1  248  TIP3 OH2  OT    -0.834000       15.9994           0
    1917 WT1  248  TIP3 H1   HT     0.417000        1.0080           0
    1918 WT1  248  TIP3 H2   HT     0.417000        1.0080           0
    1919 WT1  249  TIP3 OH2  OT    -0.834000       15.9994           0
    1920 WT1  249  TIP3 H1   HT     0.417000        1.0080           0
    1921 WT1  249  TIP3 H2   HT     0.417000        1.0080           0
    1922 WT1  250  TIP3 OH2  OT    -0.834000       15.9994           0
    1923 WT1  250  TIP3 H1   HT     0.417000        1.0080           0
    1924 WT1  250  TIP3 H2   HT     0.417000        1.0080           0
    1925 WT1  251  TIP3 OH2  OT    -0.834000       15.9994           0
    1926 WT1  251  TIP3 H1   HT     0.417000        1.0080           0
    1927 WT1  251  TIP3 H2   HT     0.417000        1.0080           0
    1928 WT1  252  TIP3 OH2  OT    -0.834000       15.9994           0
    1929 WT1  252  TIP3 H1   HT     0.417000        1.0080           0
    1930 WT1  252  TIP3 H2   HT     0.417000        1.0080           0
    1931 WT1  253  TIP3 OH2  OT    -0.834000       15.9994           0
    1932 WT1  253  TIP3 H1   HT     0.417000        1.0080           0
    1933 WT1  253  TIP3 H2   HT     0.417000        1.0080           0
    1934 WT1  254  TIP3 OH2  OT    -0.834000       15.9994           0
    1935 WT1  254  TIP3 H1   HT     0.417000        1.0080           0
    1936 WT1  254  TIP3 H2   HT     0.417000        1.0080           0
    1937 WT1  256  TIP3 OH2  OT    -0.834000       15.9994           0
    1938 WT1  256  TIP3 H1   HT     0.417000        1.0080           0
    1939 WT1  256  TIP3 H2   HT     0.417000        1.0080           0
    1940 WT1  257  TIP3 OH2  OT    -0.834000       15.9994           0
    1941 WT1  257  TIP3 H1   HT     0.417000        1.0080           0
    1942 WT1  257  TIP3 H2   HT     0.417000        1.0080           0
    1943 WT1  258  TIP3 OH2  OT    -0.834000       15.9994           0
    1944 WT1  258  TIP3 H1   HT     0.417000        1.0080           0
    1945 WT1  258  TIP3 H2   HT     0.417000        1.0080           0
    1946 WT1  259  TIP3 OH2  OT    -0.834000       15.9994           0
    1947 WT1  259  TIP3 H1   HT     0.417000        1.0080           0
    1948 WT1  259  TIP3 H2   HT     0.417000        1.0080           0
    1949 WT1  260  TIP3 OH2  OT    -0.834000       15.9994           0
    1950 WT1  260  TIP3 H1   HT     0.417000        1.0080           0
    1951 WT1  260  TIP3 H2   HT     0.417000        1.0080           0
    1952 WT1  261  TIP3 OH2  OT    -0.834000       15.9994           0
    1953 WT1  261  TIP3 H1   HT     0.417000        1.0080           0
    1954 WT1  261  TIP3 H2   HT     0.417000        1.0080           0
    1955 WT1  263  TIP3 OH2  OT    -0.834000       15.9994           0
    1956 WT1  263  TIP3 H1   HT     0.417000        1.0080           0
    1957 WT1  263  TIP3 H2   HT     0.417000        1.0080           0
    1958 WT1  264  TIP3 OH2  OT    -0.834000       15.9994           0
    1959 WT1  264  TIP3 H1   HT     0.417000        1.0080           0
    1960 WT1  264  TIP3 H2   HT     0.417000        1.0080           0
    1961 WT1  265  TIP3 OH2  OT    -0.834000       15.9994           0
    1962 WT1  265  TIP3 H1   HT     0.417000        1.0080           0
    1963 WT1  265  TIP3 H2   HT     0.417000        1.0080           0
    1964 WT1  266  TIP3 OH2  OT    -0.834000       15.9994           0
    1965 WT1  266  TIP3 H1   HT     0.417000        1.0080           0
    1966 WT1  266  TIP3 H2   HT     0.417000        1.0080           0
    1967 WT1  268  TIP3 OH2  OT    -0.834000       15.9994           0
    1968 WT1  268  TIP3 H1   HT     0.417000        1.0080           0
    1969 WT1  268  TIP3 H2   HT     0.417000        1.0080           0
    1970 WT1  269  TIP3 OH2  OT    -0.834000       15.9994           0
    1971 WT1  269  TIP3 H1   HT     0.417000        1.0080           0
    1972 WT1  269  TIP3 H2   HT     0.417000        1.0080           0
    1973 WT1  270  TIP3 OH2  OT    -0.834000       15.9994           0
    1974 WT1  270  TIP3 H1   HT     0.417000        1.0080           0
    1975 WT1  270  TIP3 H2   HT     0.417000        1.0080           0
    1976 WT1  271  TIP3 OH2  OT    -0.834000       15.9994           0
    1977 WT1  271  TIP3 H1   HT     0.417000        1.0080           0
    1978 WT1  271  TIP3 H2   HT     0.417000        1.0080           0
    1979 WT1  272  TIP3 OH2  OT    -0.834000       15.9994           0
    1980 WT1  272  TIP3 H1   HT     0.417000        1.0080           0
    1981 WT1  272  TIP3 H2   HT     0.417000        1.0080           0
    1982 WT1  273  TIP3 OH2  OT    -0.834000       15.9994           0
    1983 WT1  273  TIP3 H1   HT     0.417000        1.0080           0
    1984 WT1  273  TIP3 H2   HT     0.417000        1.0080           0
    1985 WT1  274  TIP3 OH2  OT    -0.834000       15.9994           0
    1986 WT1  274  TIP3 H1   HT     0.417000        1.0080           0
    1987 WT1  274  TIP3 H2   HT     0.417000        1.0080           0
    1988 WT1  276  TIP3 OH2  OT    -0.834000       15.9994           0
    1989 WT1  276  TIP3 H1   HT     0.417000        1.0080           0
    1990 WT1  276  TIP3 H2   HT     0.417000        1.0080           0
    1991 WT1  277  TIP3 OH2  OT    -0.834000       15.9994           0
    1992 WT1  277  TIP3 H1   HT     0.417000        1.0080           0
    1993 WT1  277  TIP3 H2   HT     0.417000        1.0080           0
    1994 WT1  278  TIP3 OH2  OT    -0.834000       15.9994           0
    1995 WT1  278  TIP3 H1   HT     0.417000        1.0080           0
    1996 WT1  278  TIP3 H2   HT     0.417000        1.0080           0
    1997 WT1  279  TIP3 OH2  OT    -0.834000       15.9994           0
    1998 WT1  279  TIP3 H1   HT     0.417000        1.0080           0
    1999 WT1  279  TIP3 H2   HT     0.417000        1.0080           0
    2000 WT1  280  TIP3 OH2  OT    -0.834000       15.9994           0
    2001 WT1  280  TIP3 H1   HT     0.417000        1.0080           0
    2002 WT1  280  TIP3 H2   HT     0.417000        1.0080           0
    2003 WT1  282  TIP3 OH2  OT    -0.834000       15.9994           0
    2004 WT1  282  TIP3 H1   HT     0.417000        1.0080           0
    2005 WT1  282  TIP3 H2   HT     0.417000        1.0080           0
    2006 WT1  283  TIP3 OH2  OT    -0.834000       15.9994           0
    2007 WT1  283  TIP3 H1   HT     0.417000        1.0080           0
    2008 WT1  283  TIP3 H2   HT     0.417000        1.0080           0
    2009 WT1  284  TIP3 OH2  OT    -0.834000       15.9994           0
    2010 WT1  284  TIP3 H1   HT     0.417000        1.0080           0
    2011 WT1  284  TIP3 H2   HT     0.417000        1.0080           0
    2012 WT1  285  TIP3 OH2  OT    -0.834000       15.9994           0
    2013 WT1  285  TIP3 H1   HT     0.417000        1.0080           0
    2014 WT1  285  TIP3 H2   HT     0.417000        1.0080           0
    2015 WT1  286  TIP3 OH2  OT    -0.834000       15.9994           0
    2016 WT1  286  TIP3 H1   HT     0.417000        1.0080           0
    2017 WT1  286  TIP3 H2   HT     0.417000        1.0080           0
    2018 WT1  288  TIP3 OH2  OT    -0.834000       15.9994           0
    2019 WT1  288  TIP3 H1   HT     0.417000        1.0080           0
    2020 WT1  288  TIP3 H2   HT     0.417000        1.0080           0
    2021 WT1  289  TIP3 OH2  OT    -0.834000       15.9994           0
    2022 WT1  289  TIP3 H1   HT     0.417000        1.0080           0
    2023 WT1  289  TIP3 H2   HT     0.417000        1.0080           0
    2024 WT1  290  TIP3 OH2  OT    -0.834000       15.9994           0
    2025 WT1  290  TIP3 H1   HT     0.417000        1.0080           0
    2026 WT1  290  TIP3 H2   HT     0.417000        1.0080           0
    2027 WT1  291  TIP3 OH2  OT    -0.834000       15.9994           0
    2028 WT1  291  TIP3 H1   HT     0.417000        1.0080           0
    2029 WT1  291  TIP3 H2   HT     0.417000        1.0080           0
    2030 WT1  292  TIP3 OH2  OT    -0.834000       15.9994           0
    2031 WT1  292  TIP3 H1   HT     0.417000        1.0080           0
    2032 WT1  292  TIP3 H2   HT     0.417000        1.0080           0
    2033 WT1  293  TIP3 OH2  OT    -0.834000       15.9994           0
    2034 WT1  293  TIP3 H1   HT     0.417000        1.0080           0
    2035 WT1  293  TIP3 H2   HT     0.417000        1.0080           0
    2036 WT1  294  TIP3 OH2  OT    -0.834000       15.9994           0
    2037 WT1  294  TIP3 H1   HT     0.417000        1.0080           0
    2038 WT1  294  TIP3 H2   HT     0.417000        1.0080           0
    2039 WT1  295  TIP3 OH2  OT    -0.834000       15.9994           0
    2040 WT1  295  TIP3 H1   HT     0.417000        1.0080           0
    2041 WT1  295  TIP3 H2   HT     0.417000        1.0080           0
    2042 WT1  296  TIP3 OH2  OT    -0.834000       15.9994           0
    2043 WT1  296  TIP3 H1   HT     0.417000        1.0080           0
    2044 WT1  296  TIP3 H2   HT     0.417000        1.0080           0
    2045 WT1  297  TIP3 OH2  OT    -0.834000       15.9994           0
    2046 WT1  297  TIP3 H1   HT     0.417000        1.0080           0
    2047 WT1  297  TIP3 H2   HT     0.417000        1.0080           0
    2048 WT1  298  TIP3 OH2  OT    -0.834000       15.9994           0
    2049 WT1  298  TIP3 H1   HT     0.417000        1.0080           0
    2050 WT1  298  TIP3 H2   HT     0.417000        1.0080           0
    2051 WT1  299  TIP3 OH2  OT    -0.834000       15.9994           0
    2052 WT1  299  TIP3 H1   HT     0.417000        1.0080           0
    2053 WT1  299  TIP3 H2   HT     0.417000        1.0080           0
    2054 WT1  300  TIP3 OH2  OT    -0.834000       15.9994           0
    2055 WT1  300  TIP3 H1   HT     0.417000        1.0080           0
    2056 WT1  300  TIP3 H2   HT     0.417000        1.0080           0
    2057 WT1  301  TIP3 OH2  OT    -0.834000       15.9994           0
    2058 WT1  301  TIP3 H1   HT     0.417000        1.0080           0
    2059 WT1  301  TIP3 H2   HT     0.417000        1.0080           0
    2060 WT1  302  TIP3 OH2  OT    -0.834000       15.9994           0
    2061 WT1  302  TIP3 H1   HT     0.417000        1.0080           0
    2062 WT1  302  TIP3 H2   HT     0.417000        1.0080           0
    2063 WT1  303  TIP3 OH2  OT    -0.834000       15.9994           0
    2064 WT1  303  TIP3 H1   HT     0.417000        1.0080           0
    2065 WT1  303  TIP3 H2   HT     0.417000        1.0080           0
    2066 WT1  304  TIP3 OH2  OT    -0.834000       15.9994           0
    2067 WT1  304  TIP3 H1   HT     0.417000        1.0080           0
    2068 WT1  304  TIP3 H2   HT     0.417000        1.0080           0
    2069 WT1  305  TIP3 OH2  OT    -0.834000       15.9994           0
    2070 WT1  305  TIP3 H1   HT     0.417000        1.0080           0
    2071 WT1  305  TIP3 H2   HT     0.417000        1.0080           0
    2072 WT1  306  TIP3 OH2  OT    -0.834000       15.9994           0
    2073 WT1  306  TIP3 H1   HT     0.417000        1.0080           0
    2074 WT1  306  TIP3 H2   HT     0.417000        1.0080           0
    2075 WT1  307  TIP3 OH2  OT    -0.834000       15.9994           0
    2076 WT1  307  TIP3 H1   HT     0.417000        1.0080           0
    2077 WT1  307  TIP3 H2   HT     0.417000        1.0080           0
    2078 WT1  308  TIP3 OH2  OT    -0.834000       15.9994           0
    2079 WT1  308  TIP3 H1   HT     0.417000        1.0080           0
    2080 WT1  308  TIP3 H2   HT     0.417000        1.0080           0
    2081 WT1  309  TIP3 OH2  OT    -0.834000       15.9994           0
    2082 WT1  309  TIP3 H1   HT     0.417000        1.0080           0
    2083 WT1  309  TIP3 H2   HT     0.417000        1.0080           0
    2084 WT1  310  TIP3 OH2  OT    -0.834000       15.9994           0
    2085 WT1  310  TIP3 H1   HT     0.417000        1.0080           0
    2086 WT1  310  TIP3 H2   HT     0.417000        1.0080           0
    2087 WT1  312  TIP3 OH2  OT    -0.834000       15.9994           0
    2088 WT1  312  TIP3 H1   HT     0.417000        1.0080           0
    2089 WT1  312  TIP3 H2   HT     0.417000        1.0080           0
    2090 WT1  313  TIP3 OH2  OT    -0.834000       15.9994           0
    2091 WT1  313  TIP3 H1   HT     0.417000        1.0080           0
    2092 WT1  313  TIP3 H2   HT     0.417000        1.0080           0
    2093 WT1  314  TIP3 OH2  OT    -0.834000       15.9994           0
    2094 WT1  314  TIP3 H1   HT     0.417000        1.0080           0
    2095 WT1  314  TIP3 H2   HT     0.417000        1.0080           0
    2096 WT1  317  TIP3 OH2  OT    -0.834000       15.9994           0
    2097 WT1  317  TIP3 H1   HT     0.417000        1.0080           0
    2098 WT1  317  TIP3 H2   HT     0.417000        1.0080           0
    2099 WT1  318  TIP3 OH2  OT    -0.834000       15.9994           0
    2100 WT1  318  TIP3 H1   HT     0.417000        1.0080           0
    2101 WT1  318  TIP3 H2   HT     0.417000        1.0080           0
    2102 WT1  319  TIP3 OH2  OT    -0.834000       15.9994           0
    2103 WT1  319  TIP3 H1   HT     0.417000        1.0080           0
    2104 WT1  319  TIP3 H2   HT     0.417000        1.0080           0
    2105 WT1  320  TIP3 OH2  OT    -0.834000       15.9994           0
    2106 WT1  320  TIP3 H1   HT     0.417000        1.0080           0
    2107 WT1  320  TIP3 H2   HT     0.417000        1.0080           0
    2108 WT1  322  TIP3 OH2  OT    -0.834000       15.9994           0
    2109 WT1  322  TIP3 H1   HT     0.417000        1.0080           0
    2110 WT1  322  TIP3 H2   HT     0.417000        1.0080           0
    2111 WT1  324  TIP3 OH2  OT    -0.834000       15.9994           0
    2112 WT1  324  TIP3 H1   HT     0.417000        1.0080           0
    2113 WT1  324  TIP3 H2   HT     0.417000        1.0080           0
    2114 WT1  325  TIP3 OH2  OT    -0.834000       15.9994           0
    2115 WT1  325  TIP3 H1   HT     0.417000        1.0080           0
    2116 WT1  325  TIP3 H2   HT     0.417000        1.0080           0
    2117 WT1  326  TIP3 OH2  OT    -0.834000       15.9994           0
    2118 WT1  326  TIP3 H1   HT     0.417000        1.0080           0
    2119 WT1  326  TIP3 H2   HT     0.417000        1.0080           0
    2120 WT1  327  TIP3 OH2  OT    -0.834000       15.9994           0
    2121 WT1  327  TIP3 H1   HT     0.417000        1.0080           0
    2122 WT1  327  TIP3 H2   HT     0.417000        1.0080           0
    2123 WT1  328  TIP3 OH2  OT    -0.834000       15.9994           0
    2124 WT1  328  TIP3 H1   HT     0.417000        1.0080           0
    2125 WT1  328  TIP3 H2   HT     0.417000        1.0080           0
    2126 WT1  329  TIP3 OH2  OT    -0.834000       15.9994           0
    2127 WT1  329  TIP3 H1   HT     0.417000        1.0080           0
    2128 WT1  329  TIP3 H2   HT     0.417000        1.0080           0
    2129 WT1  330  TIP3 OH2  OT    -0.834000       15.9994           0
    2130 WT1  330  TIP3 H1   HT     0.417000        1.0080           0
    2131 WT1  330  TIP3 H2   HT     0.417000        1.0080           0
    2132 WT1  331  TIP3 OH2  OT    -0.834000       15.9994           0
    2133 WT1  331  TIP3 H1   HT     0.417000        1.0080           0
    2134 WT1  331  TIP3 H2   HT     0.417000        1.0080           0
    2135 WT1  335  TIP3 OH2  OT    -0.834000       15.9994           0
    2136 WT1  335  TIP3 H1   HT     0.417000        1.0080           0
    2137 WT1  335  TIP3 H2   HT     0.417000        1.0080           0
    2138 WT1  336  TIP3 OH2  OT    -0.834000       15.9994           0
    2139 WT1  336  TIP3 H1   HT     0.417000        1.0080           0
    2140 WT1  336  TIP3 H2   HT     0.417000        1.0080           0
    2141 WT1  338  TIP3 OH2  OT    -0.834000       15.9994           0
    2142 WT1  338  TIP3 H1   HT     0.417000        1.0080           0
    2143 WT1  338  TIP3 H2   HT     0.417000        1.0080           0
    2144 WT1  339  TIP3 OH2  OT    -0.834000       15.9994           0
    2145 WT1  339  TIP3 H1   HT     0.417000        1.0080           0
    2146 WT1  339  TIP3 H2   HT     0.417000        1.0080           0
    2147 WT1  341  TIP3 OH2  OT    -0.834000       15.9994           0
    2148 WT1  341  TIP3 H1   HT     0.417000        1.0080           0
    2149 WT1  341  TIP3 H2   HT     0.417000        1.0080           0
    2150 WT1  343  TIP3 OH2  OT    -0.834000       15.9994           0
    2151 WT1  343  TIP3 H1   HT     0.417000        1.0080           0
    2152 WT1  343  TIP3 H2   HT     0.417000        1.0080           0
    2153 WT1  344  TIP3 OH2  OT    -0.834000       15.9994           0
    2154 WT1  344  TIP3 H1   HT     0.417000        1.0080           0
    2155 WT1  344  TIP3 H2   HT     0.417000        1.0080           0
    2156 WT1  345  TIP3 OH2  OT    -0.834000       15.9994           0
    2157 WT1  345  TIP3 H1   HT     0.417000        1.0080           0
    2158 WT1  345  TIP3 H2   HT     0.417000        1.0080           0
    2159 WT1  346  TIP3 OH2  OT    -0.834000       15.9994           0
    2160 WT1  346  TIP3 H1   HT     0.417000        1.0080           0
    2161 WT1  346  TIP3 H2   HT     0.417000        1.0080           0
    2162 WT1  347  TIP3 OH2  OT    -0.834000       15.9994           0
    2163 WT1  347  TIP3 H1   HT     0.417000        1.0080           0
    2164 WT1  347  TIP3 H2   HT     0.417000        1.0080           0
    2165 WT1  349  TIP3 OH2  OT    -0.834000       15.9994           0
    2166 WT1  349  TIP3 H1   HT     0.417000        1.0080           0
    2167 WT1  349  TIP3 H2   HT     0.417000        1.0080           0
    2168 WT1  350  TIP3 OH2  OT    -0.834000       15.9994           0
    2169 WT1  350  TIP3 H1   HT     0.417000        1.0080           0
    2170 WT1  350  TIP3 H2   HT     0.417000        1.0080           0
    2171 WT1  351  TIP3 OH2  OT    -0.834000       15.9994           0
    2172 WT1  351  TIP3 H1   HT     0.417000        1.0080           0
    2173 WT1  351  TIP3 H2   HT     0.417000        1.0080           0
    2174 WT1  352  TIP3 OH2  OT    -0.834000       15.9994           0
    2175 WT1  352  TIP3 H1   HT     0.417000        1.0080           0
    2176 WT1  352  TIP3 H2   HT     0.417000        1.0080           0
    2177 WT1  353  TIP3 OH2  OT    -0.834000       15.9994           0
    2178 WT1  353  TIP3 H1   HT     0.417000        1.0080           0
    2179 WT1  353  TIP3 H2   HT     0.417000        1.0080           0
    2180 WT1  354  TIP3 OH2  OT    -0.834000       15.9994           0
    2181 WT1  354  TIP3 H1   HT     0.417000        1.0080           0
    2182 WT1  354  TIP3 H2   HT     0.417000        1.0080           0
    2183 WT1  356  TIP3 OH2  OT    -0.834000       15.9994           0
    2184 WT1  356  TIP3 H1   HT     0.417000        1.0080           0
    2185 WT1  356  TIP3 H2   HT     0.417000        1.0080           0
    2186 WT1  358  TIP3 OH2  OT    -0.834000       15.9994           0
    2187 WT1  358  TIP3 H1   HT     0.417000        1.0080           0
    2188 WT1  358  TIP3 H2   HT     0.417000        1.0080           0
    2189 WT1  359  TIP3 OH2  OT    -0.834000       15.9994           0
    2190 WT1  359  TIP3 H1   HT     0.417000        1.0080           0
    2191 WT1  359  TIP3 H2   HT     0.417000        1.0080           0
    2192 WT1  360  TIP3 OH2  OT    -0.834000       15.9994           0
    2193 WT1  360  TIP3 H1   HT     0.417000        1.0080           0
    2194 WT1  360  TIP3 H2   HT     0.417000        1.0080           0
    2195 WT1  361  TIP3 OH2  OT    -0.834000       15.9994           0
    2196 WT1  361  TIP3 H1   HT     0.417000        1.0080           0
    2197 WT1  361  TIP3 H2   HT     0.417000        1.0080           0
    2198 WT1  362  TIP3 OH2  OT    -0.834000       15.9994           0
    2199 WT1  362  TIP3 H1   HT     0.417000        1.0080           0
    2200 WT1  362  TIP3 H2   HT     0.417000        1.0080           0
    2201 WT1  363  TIP3 OH2  OT    -0.834000       15.9994           0
    2202 WT1  363  TIP3 H1   HT     0.417000        1.0080           0
    2203 WT1  363  TIP3 H2   HT     0.417000        1.0080           0
    2204 WT1  364  TIP3 OH2  OT    -0.834000       15.9994           0
    2205 WT1  364  TIP3 H1   HT     0.417000        1.0080           0
    2206 WT1  364  TIP3 H2   HT     0.417000        1.0080           0
    2207 WT1  365  TIP3 OH2  OT    -0.834000       15.9994           0
    2208 WT1  365  TIP3 H1   HT     0.417000        1.0080           0
    2209 WT1  365  TIP3 H2   HT     0.417000        1.0080           0
    2210 WT1  366  TIP3 OH2  OT    -0.834000       15.9994           0
    2211 WT1  366  TIP3 H1   HT     0.417000        1.0080           0
    2212 WT1  366  TIP3 H2   HT     0.417000        1.0080           0
    2213 WT1  367  TIP3 OH2  OT    -0.834000       15.9994           0
    2214 WT1  367  TIP3 H1   HT     0.417000        1.0080           0
    2215 WT1  367  TIP3 H2   HT     0.417000        1.0080           0
    2216 WT1  368  TIP3 OH2  OT    -0.834000       15.9994           0
    2217 WT1  368  TIP3 H1   HT     0.417000        1.0080           0
    2218 WT1  368  TIP3 H2   HT     0.417000        1.0080           0
    2219 WT1  369  TIP3 OH2  OT    -0.834000       15.9994           0
    2220 WT1  369  TIP3 H1   HT     0.417000        1.0080           0
    2221 WT1  369  TIP3 H2   HT     0.417000        1.0080           0
    2222 WT1  371  TIP3 OH2  OT    -0.834000       15.9994           0
    2223 WT1  371  TIP3 H1   HT     0.417000        1.0080           0
    2224 WT1  371  TIP3 H2   HT     0.417000        1.0080           0
    2225 WT1  372  TIP3 OH2  OT    -0.834000       15.9994           0
    2226 WT1  372  TIP3 H1   HT     0.417000        1.0080           0
    2227 WT1  372  TIP3 H2   HT     0.417000        1.0080           0
    2228 WT1  373  TIP3 OH2  OT    -0.834000       15.9994           0
    2229 WT1  373  TIP3 H1   HT     0.417000        1.0080           0
    2230 WT1  373  TIP3 H2   HT     0.417000        1.0080           0
    2231 WT1  374  TIP3 OH2  OT    -0.834000       15.9994           0
    2232 WT1  374  TIP3 H1   HT     0.417000        1.0080           0
    2233 WT1  374  TIP3 H2   HT     0.417000        1.0080           0
    2234 WT1  375  TIP3 OH2  OT    -0.834000       15.9994           0
    2235 WT1  375  TIP3 H1   HT     0.417000        1.0080           0
    2236 WT1  375  TIP3 H2   HT     0.417000        1.0080           0
    2237 WT1  376  TIP3 OH2  OT    -0.834000       15.9994           0
    2238 WT1  376  TIP3 H1   HT     0.417000        1.0080           0
    2239 WT1  376  TIP3 H2   HT     0.417000        1.0080           0
    2240 WT1  378  TIP3 OH2  OT    -0.834000       15.9994           0
    2241 WT1  378  TIP3 H1   HT     0.417000        1.0080           0
    2242 WT1  378  TIP3 H2   HT     0.417000        1.0080           0
    2243 WT1  379  TIP3 OH2  OT    -0.834000       15.9994           0
    2244 WT1  379  TIP3 H1   HT     0.417000        1.0080           0
    2245 WT1  379  TIP3 H2   HT     0.417000        1.0080           0
    2246 WT1  380  TIP3 OH2  OT    -0.834000       15.9994           0
    2247 WT1  380  TIP3 H1   HT     0.417000        1.0080           0
    2248 WT1  380  TIP3 H2   HT     0.417000        1.0080           0
    2249 WT1  381  TIP3 OH2  OT    -0.834000       15.9994           0
    2250 WT1  381  TIP3 H1   HT     0.417000        1.0080           0
    2251 WT1  381  TIP3 H2   HT     0.417000        1.0080           0
    2252 WT1  383  TIP3 OH2  OT    -0.834000       15.9994           0
    2253 WT1  383  TIP3 H1   HT     0.417000        1.0080           0
    2254 WT1  383  TIP3 H2   HT     0.417000        1.0080           0
    2255 WT1  384  TIP3 OH2  OT    -0.834000       15.9994           0
    2256 WT1  384  TIP3 H1   HT     0.417000        1.0080           0
    2257 WT1  384  TIP3 H2   HT     0.417000        1.0080           0
    2258 WT1  386  TIP3 OH2  OT    -0.834000       15.9994           0
    2259 WT1  386  TIP3 H1   HT     0.417000        1.0080           0
    2260 WT1  386  TIP3 H2   HT     0.417000        1.0080           0
    2261 WT1  387  TIP3 OH2  OT    -0.834000       15.9994           0
    2262 WT1  387  TIP3 H1   HT     0.417000        1.0080           0
    2263 WT1  387  TIP3 H2   HT     0.417000        1.0080           0
    2264 WT1  388  TIP3 OH2  OT    -0.834000       15.9994           0
    2265 WT1  388  TIP3 H1   HT     0.417000        1.0080           0
    2266 WT1  388  TIP3 H2   HT     0.417000        1.0080           0
    2267 WT1  389  TIP3 OH2  OT    -0.834000       15.9994           0
    2268 WT1  389  TIP3 H1   HT     0.417000        1.0080           0
    2269 WT1  389  TIP3 H2   HT     0.417000        1.0080           0
    2270 WT1  390  TIP3 OH2  OT    -0.834000       15.9994           0
    2271 WT1  390  TIP3 H1   HT     0.417000        1.0080           0
    2272 WT1  390  TIP3 H2   HT     0.417000        1.0080           0
    2273 WT1  391  TIP3 OH2  OT    -0.834000       15.9994           0
    2274 WT1  391  TIP3 H1   HT     0.417000        1.0080           0
    2275 WT1  391  TIP3 H2   HT     0.417000        1.0080           0
    2276 WT1  393  TIP3 OH2  OT    -0.834000       15.9994           0
    2277 WT1  393  TIP3 H1   HT     0.417000        1.0080           0
    2278 WT1  393  TIP3 H2   HT     0.417000        1.0080           0
    2279 WT1  394  TIP3 OH2  OT    -0.834000       15.9994           0
    2280 WT1  394  TIP3 H1   HT     0.417000        1.0080           0
    2281 WT1  394  TIP3 H2   HT     0.417000        1.0080           0
    2282 WT1  395  TIP3 OH2  OT    -0.834000       15.9994           0
    2283 WT1  395  TIP3 H1   HT     0.417000        1.0080           0
    2284 WT1  395  TIP3 H2   HT     0.417000        1.0080           0
    2285 WT1  396  TIP3 OH2  OT    -0.834000       15.9994           0
    2286 WT1  396  TIP3 H1   HT     0.417000        1.0080           0
    2287 WT1  396  TIP3 H2   HT     0.417000        1.0080           0
    2288 WT1  397  TIP3 OH2  OT    -0.834000       15.9994           0
    2289 WT1  397  TIP3 H1   HT     0.417000        1.0080           0
    2290 WT1  397  TIP3 H2   HT     0.417000        1.0080           0
    2291 WT1  399  TIP3 OH2  OT    -0.834000       15.9994           0
    2292 WT1  399  TIP3 H1   HT     0.417000        1.0080           0
    2293 WT1  399  TIP3 H2   HT     0.417000        1.0080           0
    2294 WT1  401  TIP3 OH2  OT    -0.834000       15.9994           0
    2295 WT1  401  TIP3 H1   HT     0.417000        1.0080           0
    2296 WT1  401  TIP3 H2   HT     0.417000        1.0080           0
    2297 WT1  402  TIP3 OH2  OT    -0.834000       15.9994           0
    2298 WT1  402  TIP3 H1   HT     0.417000        1.0080           0
    2299 WT1  402  TIP3 H2   HT     0.417000        1.0080           0
    2300 WT1  403  TIP3 OH2  OT    -0.834000       15.9994           0
    2301 WT1  403  TIP3 H1   HT     0.417000        1.0080           0
    2302 WT1  403  TIP3 H2   HT     0.417000        1.0080           0
    2303 WT1  404  TIP3 OH2  OT    -0.834000       15.9994           0
    2304 WT1  404  TIP3 H1   HT     0.417000        1.0080           0
    2305 WT1  404  TIP3 H2   HT     0.417000        1.0080           0
    2306 WT1  405  TIP3 OH2  OT    -0.834000       15.9994           0
    2307 WT1  405  TIP3 H1   HT     0.417000        1.0080           0
    2308 WT1  405  TIP3 H2   HT     0.417000        1.0080           0
    2309 WT1  406  TIP3 OH2  OT    -0.834000       15.9994           0
    2310 WT1  406  TIP3 H1   HT     0.417000        1.0080           0
    2311 WT1  406  TIP3 H2   HT     0.417000        1.0080           0
    2312 WT1  407  TIP3 OH2  OT    -0.834000       15.9994           0
    2313 WT1  407  TIP3 H1   HT     0.417000        1.0080           0
    2314 WT1  407  TIP3 H2   HT     0.417000        1.0080           0
    2315 WT1  408  TIP3 OH2  OT    -0.834000       15.9994           0
    2316 WT1  408  TIP3 H1   HT     0.417000        1.0080           0
    2317 WT1  408  TIP3 H2   HT     0.417000        1.0080           0
    2318 WT1  409  TIP3 OH2  OT    -0.834000       15.9994           0
    2319 WT1  409  TIP3 H1   HT     0.417000        1.0080           0
    2320 WT1  409  TIP3 H2   HT     0.417000        1.0080           0
    2321 WT1  410  TIP3 OH2  OT    -0.834000       15.9994           0
    2322 WT1  410  TIP3 H1   HT     0.417000        1.0080           0
    2323 WT1  410  TIP3 H2   HT     0.417000        1.0080           0
    2324 WT1  411  TIP3 OH2  OT    -0.834000       15.9994           0
    2325 WT1  411  TIP3 H1   HT     0.417000        1.0080           0
    2326 WT1  411  TIP3 H2   HT     0.417000        1.0080           0
    2327 WT1  412  TIP3 OH2  OT    -0.834000       15.9994           0
    2328 WT1  412  TIP3 H1   HT     0.417000        1.0080           0
    2329 WT1  412  TIP3 H2   HT     0.417000        1.0080           0
    2330 WT1  414  TIP3 OH2  OT    -0.834000       15.9994           0
    2331 WT1  414  TIP3 H1   HT     0.417000        1.0080           0
    2332 WT1  414  TIP3 H2   HT     0.417000        1.0080           0
    2333 WT1  417  TIP3 OH2  OT    -0.834000       15.9994           0
    2334 WT1  417  TIP3 H1   HT     0.417000        1.0080           0
    2335 WT1  417  TIP3 H2   HT     0.417000        1.0080           0
    2336 WT1  419  TIP3 OH2  OT    -0.834000       15.9994           0
    2337 WT1  419  TIP3 H1   HT     0.417000        1.0080           0
    2338 WT1  419  TIP3 H2   HT     0.417000        1.0080           0
    2339 WT1  420  TIP3 OH2  OT    -0.834000       15.9994           0
    2340 WT1  420  TIP3 H1   HT     0.417000        1.0080           0
    2341 WT1  420  TIP3 H2   HT     0.417000        1.0080           0
    2342 WT1  424  TIP3 OH2  OT    -0.834000       15.9994           0
    2343 WT1  424  TIP3 H1   HT     0.417000        1.0080           0
    2344 WT1  424  TIP3 H2   HT     0.417000        1.0080           0
    2345 WT1  425  TIP3 OH2  OT    -0.834000       15.9994           0
    2346 WT1  425  TIP3 H1   HT     0.417000        1.0080           0
    2347 WT1  425  TIP3 H2   HT     0.417000        1.0080           0
    2348 WT1  426  TIP3 OH2  OT    -0.834000       15.9994           0
    2349 WT1  426  TIP3 H1   HT     0.417000        1.0080           0
    2350 WT1  426  TIP3 H2   HT     0.417000        1.0080           0
    2351 WT1  427  TIP3 OH2  OT    -0.834000       15.9994           0
    2352 WT1  427  TIP3 H1   HT     0.417000        1.0080           0
    2353 WT1  427  TIP3 H2   HT     0.417000        1.0080           0
    2354 WT1  428  TIP3 OH2  OT    -0.834000       15.9994           0
    2355 WT1  428  TIP3 H1   HT     0.417000        1.0080           0
    2356 WT1  428  TIP3 H2   HT     0.417000        1.0080           0
    2357 WT1  430  TIP3 OH2  OT    -0.834000       15.9994           0
    2358 WT1  430  TIP3 H1   HT     0.417000        1.0080           0
    2359 WT1  430  TIP3 H2   HT     0.417000        1.0080           0
    2360 WT1  431  TIP3 OH2  OT    -0.834000       15.9994           0
    2361 WT1  431  TIP3 H1   HT     0.417000        1.0080           0
    2362 WT1  431  TIP3 H2   HT     0.417000        1.0080           0
    2363 WT1  432  TIP3 OH2  OT    -0.834000       15.9994           0
    2364 WT1  432  TIP3 H1   HT     0.417000        1.0080           0
    2365 WT1  432  TIP3 H2   HT     0.417000        1.0080           0
    2366 WT1  434  TIP3 OH2  OT    -0.834000       15.9994           0
    2367 WT1  434  TIP3 H1   HT     0.417000        1.0080           0
    2368 WT1  434  TIP3 H2   HT     0.417000        1.0080           0
    2369 WT1  435  TIP3 OH2  OT    -0.834000       15.9994           0
    2370 WT1  435  TIP3 H1   HT     0.417000        1.0080           0
    2371 WT1  435  TIP3 H2   HT     0.417000        1.0080           0
    2372 WT1  436  TIP3 OH2  OT    -0.834000       15.9994           0
    2373 WT1  436  TIP3 H1   HT     0.417000        1.0080           0
    2374 WT1  436  TIP3 H2   HT     0.417000        1.0080           0
    2375 WT1  439  TIP3 OH2  OT    -0.834000       15.9994           0
    2376 WT1  439  TIP3 H1   HT     0.417000        1.0080           0
    2377 WT1  439  TIP3 H2   HT     0.417000        1.0080           0
    2378 WT1  440  TIP3 OH2  OT    -0.834000       15.9994           0
    2379 WT1  440  TIP3 H1   HT     0.417000        1.0080           0
    2380 WT1  440  TIP3 H2   HT     0.417000        1.0080           0
    2381 WT1  441  TIP3 OH2  OT    -0.834000       15.9994           0
    2382 WT1  441  TIP3 H1   HT     0.417000        1.0080           0
    2383 WT1  441  TIP3 H2   HT     0.417000        1.0080           0
    2384 WT1  442  TIP3 OH2  OT    -0.834000       15.9994           0
    2385 WT1  442  TIP3 H1   HT     0.417000        1.0080           0
    2386 WT1  442  TIP3 H2   HT     0.417000        1.0080           0
    2387 WT1  443  TIP3 OH2  OT    -0.834000       15.9994           0
    2388 WT1  443  TIP3 H1   HT     0.417000        1.0080           0
    2389 WT1  443  TIP3 H2   HT     0.417000        1.0080           0
    2390 WT1  444  TIP3 OH2  OT    -0.834000       15.9994           0
    2391 WT1  444  TIP3 H1   HT     0.417000        1.0080           0
    2392 WT1  444  TIP3 H2   HT     0.417000        1.0080           0
    2393 WT1  446  TIP3 OH2  OT    -0.834000       15.9994           0
    2394 WT1  446  TIP3 H1   HT     0.417000        1.0080           0
    2395 WT1  446  TIP3 H2   HT     0.417000        1.0080           0
    2396 WT1  447  TIP3 OH2  OT    -0.834000       15.9994           0
    2397 WT1  447  TIP3 H1   HT     0.417000        1.0080           0
    2398 WT1  447  TIP3 H2   HT     0.417000        1.0080           0
    2399 WT1  448  TIP3 OH2  OT    -0.834000       15.9994           0
    2400 WT1  448  TIP3 H1   HT     0.417000        1.0080           0
    2401 WT1  448  TIP3 H2   HT     0.417000        1.0080           0
    2402 WT1  450  TIP3 OH2  OT    -0.834000       15.9994           0
    2403 WT1  450  TIP3 H1   HT     0.417000        1.0080           0
    2404 WT1  450  TIP3 H2   HT     0.417000        1.0080           0
    2405 WT1  451  TIP3 OH2  OT    -0.834000       15.9994           0
    2406 WT1  451  TIP3 H1   HT     0.417000        1.0080           0
    2407 WT1  451  TIP3 H2   HT     0.417000        1.0080           0
    2408 WT1  452  TIP3 OH2  OT    -0.834000       15.9994           0
    2409 WT1  452  TIP3 H1   HT     0.417000        1.0080           0
    2410 WT1  452  TIP3 H2   HT     0.417000        1.0080           0
    2411 WT1  453  TIP3 OH2  OT    -0.834000       15.9994           0
    2412 WT1  453  TIP3 H1   HT     0.417000        1.0080           0
    2413 WT1  453  TIP3 H2   HT     0.417000        1.0080           0
    2414 WT1  454  TIP3 OH2  OT    -0.834000       15.9994           0
    2415 WT1  454  TIP3 H1   HT     0.417000        1.0080           0
    2416 WT1  454  TIP3 H2   HT     0.417000        1.0080           0
    2417 WT1  455  TIP3 OH2  OT    -0.834000       15.9994           0
    2418 WT1  455  TIP3 H1   HT     0.417000        1.0080           0
    2419 WT1  455  TIP3 H2   HT     0.417000        1.0080           0
    2420 WT1  456  TIP3 OH2  OT    -0.834000       15.9994           0
    2421 WT1  456  TIP3 H1   HT     0.417000        1.0080           0
    2422 WT1  456  TIP3 H2   HT     0.417000        1.0080           0
    2423 WT1  457  TIP3 OH2  OT    -0.834000       15.9994           0
    2424 WT1  457  TIP3 H1   HT     0.417000        1.0080           0
    2425 WT1  457  TIP3 H2   HT     0.417000        1.0080           0
    2426 WT1  458  TIP3 OH2  OT    -0.834000       15.9994           0
    2427 WT1  458  TIP3 H1   HT     0.417000        1.0080           0
    2428 WT1  458  TIP3 H2   HT     0.417000        1.0080           0
    2429 WT1  459  TIP3 OH2  OT    -0.834000       15.9994           0
    2430 WT1  459  TIP3 H1   HT     0.417000        1.0080           0
    2431 WT1  459  TIP3 H2   HT     0.417000        1.0080           0
    2432 WT1  460  TIP3 OH2  OT    -0.834000       15.9994           0
    2433 WT1  460  TIP3 H1   HT     0.417000        1.0080           0
    2434 WT1  460  TIP3 H2   HT     0.417000        1.0080           0
    2435 WT1  461  TIP3 OH2  OT    -0.834000       15.9994           0
    2436 WT1  461  TIP3 H1   HT     0.417000        1.0080           0
    2437 WT1  461  TIP3 H2   HT     0.417000        1.0080           0
    2438 WT1  464  TIP3 OH2  OT    -0.834000       15.9994           0
    2439 WT1  464  TIP3 H1   HT     0.417000        1.0080           0
    2440 WT1  464  TIP3 H2   HT     0.417000        1.0080           0
    2441 WT1  465  TIP3 OH2  OT    -0.834000       15.9994           0
    2442 WT1  465  TIP3 H1   HT     0.417000        1.0080           0
    2443 WT1  465  TIP3 H2   HT     0.417000        1.0080           0
    2444 WT1  466  TIP3 OH2  OT    -0.834000       15.9994           0
    2445 WT1  466  TIP3 H1   HT     0.417000        1.0080           0
    2446 WT1  466  TIP3 H2   HT     0.417000        1.0080           0
    2447 WT1  467  TIP3 OH2  OT    -0.834000       15.9994           0
    2448 WT1  467  TIP3 H1   HT     0.417000        1.0080           0
    2449 WT1  467  TIP3 H2   HT     0.417000        1.0080           0
    2450 WT1  469  TIP3 OH2  OT    -0.834000       15.9994           0
    2451 WT1  469  TIP3 H1   HT     0.417000        1.0080           0
    2452 WT1  469  TIP3 H2   HT     0.417000        1.0080           0
    2453 WT1  470  TIP3 OH2  OT    -0.834000       15.9994           0
    2454 WT1  470  TIP3 H1   HT     0.417000        1.0080           0
    2455 WT1  470  TIP3 H2   HT     0.417000        1.0080           0
    2456 WT1  472  TIP3 OH2  OT    -0.834000       15.9994           0
    2457 WT1  472  TIP3 H1   HT     0.417000        1.0080           0
    2458 WT1  472  TIP3 H2   HT     0.417000        1.0080           0
    2459 WT1  473  TIP3 OH2  OT    -0.834000       15.9994           0
    2460 WT1  473  TIP3 H1   HT     0.417000        1.0080           0
    2461 WT1  473  TIP3 H2   HT     0.417000        1.0080           0
    2462 WT1  474  TIP3 OH2  OT    -0.834000       15.9994           0
    2463 WT1  474  TIP3 H1   HT     0.417000        1.0080           0
    2464 WT1  474  TIP3 H2   HT     0.417000        1.0080           0
    2465 WT1  475  TIP3 OH2  OT    -0.834000       15.9994           0
    2466 WT1  475  TIP3 H1   HT     0.417000        1.0080           0
    2467 WT1  475  TIP3 H2   HT     0.417000        1.0080           0
    2468 WT1  476  TIP3 OH2  OT    -0.834000       15.9994           0
    2469 WT1  476  TIP3 H1   HT     0.417000        1.0080           0
    2470 WT1  476  TIP3 H2   HT     0.417000        1.0080           0
    2471 WT1  477  TIP3 OH2  OT    -0.834000       15.9994           0
    2472 WT1  477  TIP3 H1   HT     0.417000        1.0080           0
    2473 WT1  477  TIP3 H2   HT     0.417000        1.0080           0
    2474 WT1  478  TIP3 OH2  OT    -0.834000       15.9994           0
    2475 WT1  478  TIP3 H1   HT     0.417000        1.0080           0
    2476 WT1  478  TIP3 H2   HT     0.417000        1.0080           0
    2477 WT1  481  TIP3 OH2  OT    -0.834000       15.9994           0
    2478 WT1  481  TIP3 H1   HT     0.417000        1.0080           0
    2479 WT1  481  TIP3 H2   HT     0.417000        1.0080           0
    2480 WT1  482  TIP3 OH2  OT    -0.834000       15.9994           0
    2481 WT1  482  TIP3 H1   HT     0.417000        1.0080           0
    2482 WT1  482  TIP3 H2   HT     0.417000        1.0080           0
    2483 WT1  483  TIP3 OH2  OT    -0.834000       15.9994           0
    2484 WT1  483  TIP3 H1   HT     0.417000        1.0080           0
    2485 WT1  483  TIP3 H2   HT     0.417000        1.0080           0
    2486 WT1  484  TIP3 OH2  OT    -0.834000       15.9994           0
    2487 WT1  484  TIP3 H1   HT     0.417000        1.0080           0
    2488 WT1  484  TIP3 H2   HT     0.417000        1.0080           0
    2489 WT1  485  TIP3 OH2  OT    -0.834000       15.9994           0
    2490 WT1  485  TIP3 H1   HT     0.417000        1.0080           0
    2491 WT1  485  TIP3 H2   HT     0.417000        1.0080           0
    2492 WT1  486  TIP3 OH2  OT    -0.834000       15.9994           0
    2493 WT1  486  TIP3 H1   HT     0.417000        1.0080           0
    2494 WT1  486  TIP3 H2   HT     0.417000        1.0080           0
    2495 WT1  487  TIP3 OH2  OT    -0.834000       15.9994           0
    2496 WT1  487  TIP3 H1   HT     0.417000        1.0080           0
    2497 WT1  487  TIP3 H2   HT     0.417000        1.0080           0
    2498 WT1  488  TIP3 OH2  OT    -0.834000       15.9994           0
    2499 WT1  488  TIP3 H1   HT     0.417000        1.0080           0
    2500 WT1  488  TIP3 H2   HT     0.417000        1.0080           0
    2501 WT1  489  TIP3 OH2  OT    -0.834000       15.9994           0
    2502 WT1  489  TIP3 H1   HT     0.417000        1.0080           0
    2503 WT1  489  TIP3 H2   HT     0.417000        1.0080           0
    2504 WT1  490  TIP3 OH2  OT    -0.834000       15.9994           0
    2505 WT1  490  TIP3 H1   HT     0.417000        1.0080           0
    2506 WT1  490  TIP3 H2   HT     0.417000        1.0080           0
    2507 WT1  492  TIP3 OH2  OT    -0.834000       15.9994           0
    2508 WT1  492  TIP3 H1   HT     0.417000        1.0080           0
    2509 WT1  492  TIP3 H2   HT     0.417000        1.0080           0
    2510 WT1  494  TIP3 OH2  OT    -0.834000       15.9994           0
    2511 WT1  494  TIP3 H1   HT     0.417000        1.0080           0
    2512 WT1  494  TIP3 H2   HT     0.417000        1.0080           0
    2513 WT1  495  TIP3 OH2  OT    -0.834000       15.9994           0
    2514 WT1  495  TIP3 H1   HT     0.417000        1.0080           0
    2515 WT1  495  TIP3 H2   HT     0.417000        1.0080           0
    2516 WT1  496  TIP3 OH2  OT    -0.834000       15.9994           0
    2517 WT1  496  TIP3 H1   HT     0.417000        1.0080           0
    2518 WT1  496  TIP3 H2   HT     0.417000        1.0080           0
    2519 WT1  497  TIP3 OH2  OT    -0.834000       15.9994           0
    2520 WT1  497  TIP3 H1   HT     0.417000        1.0080           0
    2521 WT1  497  TIP3 H2   HT     0.417000        1.0080           0
    2522 WT1  498  TIP3 OH2  OT    -0.834000       15.9994           0
    2523 WT1  498  TIP3 H1   HT     0.417000        1.0080           0
    2524 WT1  498  TIP3 H2   HT     0.417000        1.0080           0
    2525 WT1  499  TIP3 OH2  OT    -0.834000       15.9994           0
    2526 WT1  499  TIP3 H1   HT     0.417000        1.0080           0
    2527 WT1  499  TIP3 H2   HT     0.417000        1.0080           0
    2528 WT1  500  TIP3 OH2  OT    -0.834000       15.9994           0
    2529 WT1  500  TIP3 H1   HT     0.417000        1.0080           0
    2530 WT1  500  TIP3 H2   HT     0.417000        1.0080           0
    2531 WT1  501  TIP3 OH2  OT    -0.834000       15.9994           0
    2532 WT1  501  TIP3 H1   HT     0.417000        1.0080           0
    2533 WT1  501  TIP3 H2   HT     0.417000        1.0080           0
    2534 WT1  502  TIP3 OH2  OT    -0.834000       15.9994           0
    2535 WT1  502  TIP3 H1   HT     0.417000        1.0080           0
    2536 WT1  502  TIP3 H2   HT     0.417000        1.0080           0
    2537 WT1  503  TIP3 OH2  OT    -0.834000       15.9994           0
    2538 WT1  503  TIP3 H1   HT     0.417000        1.0080           0
    2539 WT1  503  TIP3 H2   HT     0.417000        1.0080           0
    2540 WT1  504  TIP3 OH2  OT    -0.834000       15.9994           0
    2541 WT1  504  TIP3 H1   HT     0.417000        1.0080           0
    2542 WT1  504  TIP3 H2   HT     0.417000        1.0080           0
    2543 WT1  505  TIP3 OH2  OT    -0.834000       15.9994           0
    2544 WT1  505  TIP3 H1   HT     0.417000        1.0080           0
    2545 WT1  505  TIP3 H2   HT     0.417000        1.0080           0
    2546 WT1  506  TIP3 OH2  OT    -0.834000       15.9994           0
    2547 WT1  506  TIP3 H1   HT     0.417000        1.0080           0
    2548 WT1  506  TIP3 H2   HT     0.417000        1.0080           0
    2549 WT1  507  TIP3 OH2  OT    -0.834000       15.9994           0
    2550 WT1  507  TIP3 H1   HT     0.417000        1.0080           0
    2551 WT1  507  TIP3 H2   HT     0.417000        1.0080           0
    2552 WT1  508  TIP3 OH2  OT    -0.834000       15.9994           0
    2553 WT1  508  TIP3 H1   HT     0.417000        1.0080           0
    2554 WT1  508  TIP3 H2   HT     0.417000        1.0080           0
    2555 WT1  509  TIP3 OH2  OT    -0.834000       15.9994           0
    2556 WT1  509  TIP3 H1   HT     0.417000        1.0080           0
    2557 WT1  509  TIP3 H2   HT     0.417000        1.0080           0
    2558 WT1  510  TIP3 OH2  OT    -0.834000       15.9994           0
    2559 WT1  510  TIP3 H1   HT     0.417000        1.0080           0
    2560 WT1  510  TIP3 H2   HT     0.417000        1.0080           0
    2561 WT1  513  TIP3 OH2  OT    -0.834000       15.9994           0
    2562 WT1  513  TIP3 H1   HT     0.417000        1.0080           0
    2563 WT1  513  TIP3 H2   HT     0.417000        1.0080           0
    2564 WT1  514  TIP3 OH2  OT    -0.834000       15.9994           0
    2565 WT1  514  TIP3 H1   HT     0.417000        1.0080           0
    2566 WT1  514  TIP3 H2   HT     0.417000        1.0080           0
    2567 WT1  515  TIP3 OH2  OT    -0.834000       15.9994           0
    2568 WT1  515  TIP3 H1   HT     0.417000        1.0080           0
    2569 WT1  515  TIP3 H2   HT     0.417000        1.0080           0
    2570 WT1  516  TIP3 OH2  OT    -0.834000       15.9994           0
    2571 WT1  516  TIP3 H1   HT     0.417000        1.0080           0
    2572 WT1  516  TIP3 H2   HT     0.417000        1.0080           0
    2573 WT1  517  TIP3 OH2  OT    -0.834000       15.9994           0
    2574 WT1  517  TIP3 H1   HT     0.417000        1.0080           0
    2575 WT1  517  TIP3 H2   HT     0.417000        1.0080           0
    2576 WT1  518  TIP3 OH2  OT    -0.834000       15.9994           0
    2577 WT1  518  TIP3 H1   HT     0.417000        1.0080           0
    2578 WT1  518  TIP3 H2   HT     0.417000        1.0080           0
    2579 WT1  519  TIP3 OH2  OT    -0.834000       15.9994           0
    2580 WT1  519  TIP3 H1   HT     0.417000        1.0080           0
    2581 WT1  519  TIP3 H2   HT     0.417000        1.0080           0
    2582 WT1  521  TIP3 OH2  OT    -0.834000       15.9994           0
    2583 WT1  521  TIP3 H1   HT     0.417000        1.0080           0
    2584 WT1  521  TIP3 H2   HT     0.417000        1.0080           0
    2585 WT1  522  TIP3 OH2  OT    -0.834000       15.9994           0
    2586 WT1  522  TIP3 H1   HT     0.417000        1.0080           0
    2587 WT1  522  TIP3 H2   HT     0.417000        1.0080           0
    2588 WT1  523  TIP3 OH2  OT    -0.834000       15.9994           0
    2589 WT1  523  TIP3 H1   HT     0.417000        1.0080           0
    2590 WT1  523  TIP3 H2   HT     0.417000        1.0080           0
    2591 WT1  524  TIP3 OH2  OT    -0.834000       15.9994           0
    2592 WT1  524  TIP3 H1   HT     0.417000        1.0080           0
    2593 WT1  524  TIP3 H2   HT     0.417000        1.0080           0
    2594 WT1  525  TIP3 OH2  OT    -0.834000       15.9994           0
    2595 WT1  525  TIP3 H1   HT     0.417000        1.0080           0
    2596 WT1  525  TIP3 H2   HT     0.417000        1.0080           0
    2597 WT1  526  TIP3 OH2  OT    -0.834000       15.9994           0
    2598 WT1  526  TIP3 H1   HT     0.417000        1.0080           0
    2599 WT1  526  TIP3 H2   HT     0.417000        1.0080           0
    2600 WT1  527  TIP3 OH2  OT    -0.834000       15.9994           0
    2601 WT1  527  TIP3 H1   HT     0.417000        1.0080           0
    2602 WT1  527  TIP3 H2   HT     0.417000        1.0080           0
    2603 WT1  528  TIP3 OH2  OT    -0.834000       15.9994           0
    2604 WT1  528  TIP3 H1   HT     0.417000        1.0080           0
    2605 WT1  528  TIP3 H2   HT     0.417000        1.0080           0
    2606 WT1  529  TIP3 OH2  OT    -0.834000       15.9994           0
    2607 WT1  529  TIP3 H1   HT     0.417000        1.0080           0
    2608 WT1  529  TIP3 H2   HT     0.417000        1.0080           0
    2609 WT1  530  TIP3 OH2  OT    -0.834000       15.9994           0
    2610 WT1  530  TIP3 H1   HT     0.417000        1.0080           0
    2611 WT1  530  TIP3 H2   HT     0.417000        1.0080           0
    2612 WT1  531  TIP3 OH2  OT    -0.834000       15.9994           0
    2613 WT1  531  TIP3 H1   HT     0.417000        1.0080           0
    2614 WT1  531  TIP3 H2   HT     0.417000        1.0080           0
    2615 WT1  532  TIP3 OH2  OT    -0.834000       15.9994           0
    2616 WT1  532  TIP3 H1   HT     0.417000        1.0080           0
    2617 WT1  532  TIP3 H2   HT     0.417000        1.0080           0
    2618 WT1  533  TIP3 OH2  OT    -0.834000       15.9994           0
    2619 WT1  533  TIP3 H1   HT     0.417000        1.0080           0
    2620 WT1  533  TIP3 H2   HT     0.417000        1.0080           0
    2621 WT1  534  TIP3 OH2  OT    -0.834000       15.9994           0
    2622 WT1  534  TIP3 H1   HT     0.417000        1.0080           0
    2623 WT1  534  TIP3 H2   HT     0.417000        1.0080           0
    2624 WT1  535  TIP3 OH2  OT    -0.834000       15.9994           0
    2625 WT1  535  TIP3 H1   HT     0.417000        1.0080           0
    2626 WT1  535  TIP3 H2   HT     0.417000        1.0080           0
    2627 WT1  536  TIP3 OH2  OT    -0.834000       15.9994           0
    2628 WT1  536  TIP3 H1   HT     0.417000        1.0080           0
    2629 WT1  536  TIP3 H2   HT     0.417000        1.0080           0
    2630 WT1  537  TIP3 OH2  OT    -0.834000       15.9994           0
    2631 WT1  537  TIP3 H1   HT     0.417000        1.0080           0
    2632 WT1  537  TIP3 H2   HT     0.417000        1.0080           0
    2633 WT1  538  TIP3 OH2  OT    -0.834000       15.9994           0
    2634 WT1  538  TIP3 H1   HT     0.417000        1.0080           0
    2635 WT1  538  TIP3 H2   HT     0.417000        1.0080           0
    2636 WT1  539  TIP3 OH2  OT    -0.834000       15.9994           0
    2637 WT1  539  TIP3 H1   HT     0.417000        1.0080           0
    2638 WT1  539  TIP3 H2   HT     0.417000        1.0080           0
    2639 WT1  540  TIP3 OH2  OT    -0.834000       15.9994           0
    2640 WT1  540  TIP3 H1   HT     0.417000        1.0080           0
    2641 WT1  540  TIP3 H2   HT     0.417000        1.0080           0
    2642 WT1  541  TIP3 OH2  OT    -0.834000       15.9994           0
    2643 WT1  541  TIP3 H1   HT     0.417000        1.0080           0
    2644 WT1  541  TIP3 H2   HT     0.417000        1.0080           0
    2645 WT1  542  TIP3 OH2  OT    -0.834000       15.9994           0
    2646 WT1  542  TIP3 H1   HT     0.417000        1.0080           0
    2647 WT1  542  TIP3 H2   HT     0.417000        1.0080           0
    2648 WT1  543  TIP3 OH2  OT    -0.834000       15.9994           0
    2649 WT1  543  TIP3 H1   HT     0.417000        1.0080           0
    2650 WT1  543  TIP3 H2   HT     0.417000        1.0080           0
    2651 WT1  544  TIP3 OH2  OT    -0.834000       15.9994           0
    2652 WT1  544  TIP3 H1   HT     0.417000        1.0080           0
    2653 WT1  544  TIP3 H2   HT     0.417000        1.0080           0
    2654 WT1  546  TIP3 OH2  OT    -0.834000       15.9994           0
    2655 WT1  546  TIP3 H1   HT     0.417000        1.0080           0
    2656 WT1  546  TIP3 H2   HT     0.417000        1.0080           0
    2657 WT1  549  TIP3 OH2  OT    -0.834000       15.9994           0
    2658 WT1  549  TIP3 H1   HT     0.417000        1.0080           0
    2659 WT1  549  TIP3 H2   HT     0.417000        1.0080           0
    2660 WT1  551  TIP3 OH2  OT    -0.834000       15.9994           0
    2661 WT1  551  TIP3 H1   HT     0.417000        1.0080           0
    2662 WT1  551  TIP3 H2   HT     0.417000        1.0080           0
    2663 WT1  553  TIP3 OH2  OT    -0.834000       15.9994           0
    2664 WT1  553  TIP3 H1   HT     0.417000        1.0080           0
    2665 WT1  553  TIP3 H2   HT     0.417000        1.0080           0
    2666 WT1  554  TIP3 OH2  OT    -0.834000       15.9994           0
    2667 WT1  554  TIP3 H1   HT     0.417000        1.0080           0
    2668 WT1  554  TIP3 H2   HT     0.417000        1.0080           0
    2669 WT1  555  TIP3 OH2  OT    -0.834000       15.9994           0
    2670 WT1  555  TIP3 H1   HT     0.417000        1.0080           0
    2671 WT1  555  TIP3 H2   HT     0.417000        1.0080           0
    2672 WT1  556  TIP3 OH2  OT    -0.834000       15.9994           0
    2673 WT1  556  TIP3 H1   HT     0.417000        1.0080           0
    2674 WT1  556  TIP3 H2   HT     0.417000        1.0080           0
    2675 WT1  557  TIP3 OH2  OT    -0.834000       15.9994           0
    2676 WT1  557  TIP3 H1   HT     0.417000        1.0080           0
    2677 WT1  557  TIP3 H2   HT     0.417000        1.0080           0
    2678 WT1  559  TIP3 OH2  OT    -0.834000       15.9994           0
    2679 WT1  559  TIP3 H1   HT     0.417000        1.0080           0
    2680 WT1  559  TIP3 H2   HT     0.417000        1.0080           0
    2681 WT1  561  TIP3 OH2  OT    -0.834000       15.9994           0
    2682 WT1  561  TIP3 H1   HT     0.417000        1.0080           0
    2683 WT1  561  TIP3 H2   HT     0.417000        1.0080           0
    2684 WT1  562  TIP3 OH2  OT    -0.834000       15.9994           0
    2685 WT1  562  TIP3 H1   HT     0.417000        1.0080           0
    2686 WT1  562  TIP3 H2   HT     0.417000        1.0080           0
    2687 WT1  564  TIP3 OH2  OT    -0.834000       15.9994           0
    2688 WT1  564  TIP3 H1   HT     0.417000        1.0080           0
    2689 WT1  564  TIP3 H2   HT     0.417000        1.0080           0
    2690 WT1  565  TIP3 OH2  OT    -0.834000       15.9994           0
    2691 WT1  565  TIP3 H1   HT     0.417000        1.0080           0
    2692 WT1  565  TIP3 H2   HT     0.417000        1.0080           0
    2693 WT1  567  TIP3 OH2  OT    -0.834000       15.9994           0
    2694 WT1  567  TIP3 H1   HT     0.417000        1.0080           0
    2695 WT1  567  TIP3 H2   HT     0.417000        1.0080           0
    2696 WT1  568  TIP3 OH2  OT    -0.834000       15.9994           0
    2697 WT1  568  TIP3 H1   HT     0.417000        1.0080           0
    2698 WT1  568  TIP3 H2   HT     0.417000        1.0080           0
    2699 WT1  569  TIP3 OH2  OT    -0.834000       15.9994           0
    2700 WT1  569  TIP3 H1   HT     0.417000        1.0080           0
    2701 WT1  569  TIP3 H2   HT     0.417000        1.0080           0
    2702 WT1  570  TIP3 OH2  OT    -0.834000       15.9994           0
    2703 WT1  570  TIP3 H1   HT     0.417000        1.0080           0
    2704 WT1  570  TIP3 H2   HT     0.417000        1.0080           0
    2705 WT1  571  TIP3 OH2  OT    -0.834000       15.9994           0
    2706 WT1  571  TIP3 H1   HT     0.417000        1.0080           0
    2707 WT1  571  TIP3 H2   HT     0.417000        1.0080           0
    2708 WT1  572  TIP3 OH2  OT    -0.834000       15.9994           0
    2709 WT1  572  TIP3 H1   HT     0.417000        1.0080           0
    2710 WT1  572  TIP3 H2   HT     0.417000        1.0080           0
    2711 WT1  573  TIP3 OH2  OT    -0.834000       15.9994           0
    2712 WT1  573  TIP3 H1   HT     0.417000        1.0080           0
    2713 WT1  573  TIP3 H2   HT     0.417000        1.0080           0
    2714 WT1  574  TIP3 OH2  OT    -0.834000       15.9994           0
    2715 WT1  574  TIP3 H1   HT     0.417000        1.0080           0
    2716 WT1  574  TIP3 H2   HT     0.417000        1.0080           0
    2717 WT1  575  TIP3 OH2  OT    -0.834000       15.9994           0
    2718 WT1  575  TIP3 H1   HT     0.417000        1.0080           0
    2719 WT1  575  TIP3 H2   HT     0.417000        1.0080           0
    2720 WT1  576  TIP3 OH2  OT    -0.834000       15.9994           0
    2721 WT1  576  TIP3 H1   HT     0.417000        1.0080           0
    2722 WT1  576  TIP3 H2   HT     0.417000        1.0080           0
    2723 WT1  577  TIP3 OH2  OT    -0.834000       15.9994           0
    2724 WT1  577  TIP3 H1   HT     0.417000        1.0080           0
    2725 WT1  577  TIP3 H2   HT     0.417000        1.0080           0
    2726 WT1  578  TIP3 OH2  OT    -0.834000       15.9994           0
    2727 WT1  578  TIP3 H1   HT     0.417000        1.0080           0
    2728 WT1  578  TIP3 H2   HT     0.417000        1.0080           0
    2729 WT1  579  TIP3 OH2  OT    -0.834000       15.9994           0
    2730 WT1  579  TIP3 H1   HT     0.417000        1.0080           0
    2731 WT1  579  TIP3 H2   HT     0.417000        1.0080           0
    2732 WT1  580  TIP3 OH2  OT    -0.834000       15.9994           0
    2733 WT1  580  TIP3 H1   HT     0.417000        1.0080           0
    2734 WT1  580  TIP3 H2   HT     0.417000        1.0080           0
    2735 WT1  583  TIP3 OH2  OT    -0.834000       15.9994           0
    2736 WT1  583  TIP3 H1   HT     0.417000        1.0080           0
    2737 WT1  583  TIP3 H2   HT     0.417000        1.0080           0
    2738 WT1  584  TIP3 OH2  OT    -0.834000       15.9994           0
    2739 WT1  584  TIP3 H1   HT     0.417000        1.0080           0
    2740 WT1  584  TIP3 H2   HT     0.417000        1.0080           0
    2741 WT1  585  TIP3 OH2  OT    -0.834000       15.9994           0
    2742 WT1  585  TIP3 H1   HT     0.417000        1.0080           0
    2743 WT1  585  TIP3 H2   HT     0.417000        1.0080           0
    2744 WT1  586  TIP3 OH2  OT    -0.834000       15.9994           0
    2745 WT1  586  TIP3 H1   HT     0.417000        1.0080           0
    2746 WT1  586  TIP3 H2   HT     0.417000        1.0080           0
    2747 WT1  587  TIP3 OH2  OT    -0.834000       15.9994           0
    2748 WT1  587  TIP3 H1   HT     0.417000        1.0080           0
    2749 WT1  587  TIP3 H2   HT     0.417000        1.0080           0
    2750 WT1  590  TIP3 OH2  OT    -0.834000       15.9994           0
    2751 WT1  590  TIP3 H1   HT     0.417000        1.0080           0
    2752 WT1  590  TIP3 H2   HT     0.417000        1.0080           0
    2753 WT1  591  TIP3 OH2  OT    -0.834000       15.9994           0
    2754 WT1  591  TIP3 H1   HT     0.417000        1.0080           0
    2755 WT1  591  TIP3 H2   HT     0.417000        1.0080           0
    2756 WT1  592  TIP3 OH2  OT    -0.834000       15.9994           0
    2757 WT1  592  TIP3 H1   HT     0.417000        1.0080           0
    2758 WT1  592  TIP3 H2   HT     0.417000        1.0080           0
    2759 WT1  593  TIP3 OH2  OT    -0.834000       15.9994           0
    2760 WT1  593  TIP3 H1   HT     0.417000        1.0080           0
    2761 WT1  593  TIP3 H2   HT     0.417000        1.0080           0
    2762 WT1  594  TIP3 OH2  OT    -0.834000       15.9994           0
    2763 WT1  594  TIP3 H1   HT     0.417000        1.0080           0
    2764 WT1  594  TIP3 H2   HT     0.417000        1.0080           0
    2765 WT1  595  TIP3 OH2  OT    -0.834000       15.9994           0
    2766 WT1  595  TIP3 H1   HT     0.417000        1.0080           0
    2767 WT1  595  TIP3 H2   HT     0.417000        1.0080           0
    2768 WT1  596  TIP3 OH2  OT    -0.834000       15.9994           0
    2769 WT1  596  TIP3 H1   HT     0.417000        1.0080           0
    2770 WT1  596  TIP3 H2   HT     0.417000        1.0080           0
    2771 WT1  597  TIP3 OH2  OT    -0.834000       15.9994           0
    2772 WT1  597  TIP3 H1   HT     0.417000        1.0080           0
    2773 WT1  597  TIP3 H2   HT     0.417000        1.0080           0
    2774 WT1  598  TIP3 OH2  OT    -0.834000       15.9994           0
    2775 WT1  598  TIP3 H1   HT     0.417000        1.0080           0
    2776 WT1  598  TIP3 H2   HT     0.417000        1.0080           0
    2777 WT1  599  TIP3 OH2  OT    -0.834000       15.9994           0
    2778 WT1  599  TIP3 H1   HT     0.417000        1.0080           0
    2779 WT1  599  TIP3 H2   HT     0.417000        1.0080           0
    2780 WT1  600  TIP3 OH2  OT    -0.834000       15.9994           0
    2781 WT1  600  TIP3 H1   HT     0.417000        1.0080           0
    2782 WT1  600  TIP3 H2   HT     0.417000        1.0080           0
    2783 WT1  601  TIP3 OH2  OT    -0.834000       15.9994           0
    2784 WT1  601  TIP3 H1   HT     0.417000        1.0080           0
    2785 WT1  601  TIP3 H2   HT     0.417000        1.0080           0
    2786 WT1  602  TIP3 OH2  OT    -0.834000       15.9994           0
    2787 WT1  602  TIP3 H1   HT     0.417000        1.0080           0
    2788 WT1  602  TIP3 H2   HT     0.417000        1.0080           0
    2789 WT1  603  TIP3 OH2  OT    -0.834000       15.9994           0
    2790 WT1  603  TIP3 H1   HT     0.417000        1.0080           0
    2791 WT1  603  TIP3 H2   HT     0.417000        1.0080           0
    2792 WT1  604  TIP3 OH2  OT    -0.834000       15.9994           0
    2793 WT1  604  TIP3 H1   HT     0.417000        1.0080           0
    2794 WT1  604  TIP3 H2   HT     0.417000        1.0080           0
    2795 WT1  605  TIP3 OH2  OT    -0.834000       15.9994           0
    2796 WT1  605  TIP3 H1   HT     0.417000        1.0080           0
    2797 WT1  605  TIP3 H2   HT     0.417000        1.0080           0
    2798 WT1  607  TIP3 OH2  OT    -0.834000       15.9994           0
    2799 WT1  607  TIP3 H1   HT     0.417000        1.0080           0
    2800 WT1  607  TIP3 H2   HT     0.417000        1.0080           0
    2801 WT1  610  TIP3 OH2  OT    -0.834000       15.9994           0
    2802 WT1  610  TIP3 H1   HT     0.417000        1.0080           0
    2803 WT1  610  TIP3 H2   HT     0.417000        1.0080           0
    2804 WT1  611  TIP3 OH2  OT    -0.834000       15.9994           0
    2805 WT1  611  TIP3 H1   HT     0.417000        1.0080           0
    2806 WT1  611  TIP3 H2   HT     0.417000        1.0080           0
    2807 WT1  612  TIP3 OH2  OT    -0.834000       15.9994           0
    2808 WT1  612  TIP3 H1   HT     0.417000        1.0080           0
    2809 WT1  612  TIP3 H2   HT     0.417000        1.0080           0
    2810 WT1  613  TIP3 OH2  OT    -0.834000       15.9994           0
    2811 WT1  613  TIP3 H1   HT     0.417000        1.0080           0
    2812 WT1  613  TIP3 H2   HT     0.417000        1.0080           0
    2813 WT1  614  TIP3 OH2  OT    -0.834000       15.9994           0
    2814 WT1  614  TIP3 H1   HT     0.417000        1.0080           0
    2815 WT1  614  TIP3 H2   HT     0.417000        1.0080           0
    2816 WT1  615  TIP3 OH2  OT    -0.834000       15.9994           0
    2817 WT1  615  TIP3 H1   HT     0.417000        1.0080           0
    2818 WT1  615  TIP3 H2   HT     0.417000        1.0080           0
    2819 WT1  616  TIP3 OH2  OT    -0.834000       15.9994           0
    2820 WT1  616  TIP3 H1   HT     0.417000        1.0080           0
    2821 WT1  616  TIP3 H2   HT     0.417000        1.0080           0
    2822 WT1  617  TIP3 OH2  OT    -0.834000       15.9994           0
    2823 WT1  617  TIP3 H1   HT     0.417000        1.0080           0
    2824 WT1  617  TIP3 H2   HT     0.417000        1.0080           0
    2825 WT1  618  TIP3 OH2  OT    -0.834000       15.9994           0
    2826 WT1  618  TIP3 H1   HT     0.417000        1.0080           0
    2827 WT1  618  TIP3 H2   HT     0.417000        1.0080           0
    2828 WT1  619  TIP3 OH2  OT    -0.834000       15.9994           0
    2829 WT1  619  TIP3 H1   HT     0.417000        1.0080           0
    2830 WT1  619  TIP3 H2   HT     0.417000        1.0080           0
    2831 WT1  620  TIP3 OH2  OT    -0.834000       15.9994           0
    2832 WT1  620  TIP3 H1   HT     0.417000        1.0080           0
    2833 WT1  620  TIP3 H2   HT     0.417000        1.0080           0
    2834 WT1  621  TIP3 OH2  OT    -0.834000       15.9994           0
    2835 WT1  621  TIP3 H1   HT     0.417000        1.0080           0
    2836 WT1  621  TIP3 H2   HT     0.417000        1.0080           0
    2837 WT1  622  TIP3 OH2  OT    -0.834000       15.9994           0
    2838 WT1  622  TIP3 H1   HT     0.417000        1.0080           0
    2839 WT1  622  TIP3 H2   HT     0.417000        1.0080           0
    2840 WT1  623  TIP3 OH2  OT    -0.834000       15.9994           0
    2841 WT1  623  TIP3 H1   HT     0.417000        1.0080           0
    2842 WT1  623  TIP3 H2   HT     0.417000        1.0080           0
    2843 WT1  624  TIP3 OH2  OT    -0.834000       15.9994           0
    2844 WT1  624  TIP3 H1   HT     0.417000        1.0080           0
    2845 WT1  624  TIP3 H2   HT     0.417000        1.0080           0
    2846 WT1  625  TIP3 OH2  OT    -0.834000       15.9994           0
    2847 WT1  625  TIP3 H1   HT     0.417000        1.0080           0
    2848 WT1  625  TIP3 H2   HT     0.417000        1.0080           0
    2849 WT1  626  TIP3 OH2  OT    -0.834000       15.9994           0
    2850 WT1  626  TIP3 H1   HT     0.417000        1.0080           0
    2851 WT1  626  TIP3 H2   HT     0.417000        1.0080           0
    2852 WT1  627  TIP3 OH2  OT    -0.834000       15.9994           0
    2853 WT1  627  TIP3 H1   HT     0.417000        1.0080           0
    2854 WT1  627  TIP3 H2   HT     0.417000        1.0080           0
    2855 WT1  628  TIP3 OH2  OT    -0.834000       15.9994           0
    2856 WT1  628  TIP3 H1   HT     0.417000        1.0080           0
    2857 WT1  628  TIP3 H2   HT     0.417000        1.0080           0
    2858 WT1  629  TIP3 OH2  OT    -0.834000       15.9994           0
    2859 WT1  629  TIP3 H1   HT     0.417000        1.0080           0
    2860 WT1  629  TIP3 H2   HT     0.417000        1.0080           0
    2861 WT1  630  TIP3 OH2  OT    -0.834000       15.9994           0
    2862 WT1  630  TIP3 H1   HT     0.417000        1.0080           0
    2863 WT1  630  TIP3 H2   HT     0.417000        1.0080           0
    2864 WT1  631  TIP3 OH2  OT    -0.834000       15.9994           0
    2865 WT1  631  TIP3 H1   HT     0.417000        1.0080           0
    2866 WT1  631  TIP3 H2   HT     0.417000        1.0080           0
    2867 WT1  632  TIP3 OH2  OT    -0.834000       15.9994           0
    2868 WT1  632  TIP3 H1   HT     0.417000        1.0080           0
    2869 WT1  632  TIP3 H2   HT     0.417000        1.0080           0
    2870 WT1  634  TIP3 OH2  OT    -0.834000       15.9994           0
    2871 WT1  634  TIP3 H1   HT     0.417000        1.0080           0
    2872 WT1  634  TIP3 H2   HT     0.417000        1.0080           0
    2873 WT1  635  TIP3 OH2  OT    -0.834000       15.9994           0
    2874 WT1  635  TIP3 H1   HT     0.417000        1.0080           0
    2875 WT1  635  TIP3 H2   HT     0.417000        1.0080           0
    2876 WT1  636  TIP3 OH2  OT    -0.834000       15.9994           0
    2877 WT1  636  TIP3 H1   HT     0.417000        1.0080           0
    2878 WT1  636  TIP3 H2   HT     0.417000        1.0080           0
    2879 WT1  637  TIP3 OH2  OT    -0.834000       15.9994           0
    2880 WT1  637  TIP3 H1   HT     0.417000        1.0080           0
    2881 WT1  637  TIP3 H2   HT     0.417000        1.0080           0
    2882 WT1  638  TIP3 OH2  OT    -0.834000       15.9994           0
    2883 WT1  638  TIP3 H1   HT     0.417000        1.0080           0
    2884 WT1  638  TIP3 H2   HT     0.417000        1.0080           0
    2885 WT1  639  TIP3 OH2  OT    -0.834000       15.9994           0
    2886 WT1  639  TIP3 H1   HT     0.417000        1.0080           0
    2887 WT1  639  TIP3 H2   HT     0.417000        1.0080           0
    2888 WT1  640  TIP3 OH2  OT    -0.834000       15.9994           0
    2889 WT1  640  TIP3 H1   HT     0.417000        1.0080           0
    2890 WT1  640  TIP3 H2   HT     0.417000        1.0080           0
    2891 WT1  641  TIP3 OH2  OT    -0.834000       15.9994           0
    2892 WT1  641  TIP3 H1   HT     0.417000        1.0080           0
    2893 WT1  641  TIP3 H2   HT     0.417000        1.0080           0
    2894 WT1  642  TIP3 OH2  OT    -0.834000       15.9994           0
    2895 WT1  642  TIP3 H1   HT     0.417000        1.0080           0
    2896 WT1  642  TIP3 H2   HT     0.417000        1.0080           0
    2897 WT1  643  TIP3 OH2  OT    -0.834000       15.9994           0
    2898 WT1  643  TIP3 H1   HT     0.417000        1.0080           0
    2899 WT1  643  TIP3 H2   HT     0.417000        1.0080           0
    2900 WT1  644  TIP3 OH2  OT    -0.834000       15.9994           0
    2901 WT1  644  TIP3 H1   HT     0.417000        1.0080           0
    2902 WT1  644  TIP3 H2   HT     0.417000        1.0080           0
    2903 WT1  645  TIP3 OH2  OT    -0.834000       15.9994           0
    2904 WT1  645  TIP3 H1   HT     0.417000        1.0080           0
    2905 WT1  645  TIP3 H2   HT     0.417000        1.0080           0
    2906 WT1  646  TIP3 OH2  OT    -0.834000       15.9994           0
    2907 WT1  646  TIP3 H1   HT     0.417000        1.0080           0
    2908 WT1  646  TIP3 H2   HT     0.417000        1.0080           0
    2909 WT1  648  TIP3 OH2  OT    -0.834000       15.9994           0
    2910 WT1  648  TIP3 H1   HT     0.417000        1.0080           0
    2911 WT1  648  TIP3 H2   HT     0.417000        1.0080           0
    2912 WT1  649  TIP3 OH2  OT    -0.834000       15.9994           0
    2913 WT1  649  TIP3 H1   HT     0.417000        1.0080           0
    2914 WT1  649  TIP3 H2   HT     0.417000        1.0080           0
    2915 WT1  650  TIP3 OH2  OT    -0.834000       15.9994           0
    2916 WT1  650  TIP3 H1   HT     0.417000        1.0080           0
    2917 WT1  650  TIP3 H2   HT     0.417000        1.0080           0
    2918 WT1  651  TIP3 OH2  OT    -0.834000       15.9994           0
    2919 WT1  651  TIP3 H1   HT     0.417000        1.0080           0
    2920 WT1  651  TIP3 H2   HT     0.417000        1.0080           0
    2921 WT1  652  TIP3 OH2  OT    -0.834000       15.9994           0
    2922 WT1  652  TIP3 H1   HT     0.417000        1.0080           0
    2923 WT1  652  TIP3 H2   HT     0.417000        1.0080           0
    2924 WT1  653  TIP3 OH2  OT    -0.834000       15.9994           0
    2925 WT1  653  TIP3 H1   HT     0.417000        1.0080           0
    2926 WT1  653  TIP3 H2   HT     0.417000        1.0080           0
    2927 WT1  655  TIP3 OH2  OT    -0.834000       15.9994           0
    2928 WT1  655  TIP3 H1   HT     0.417000        1.0080           0
    2929 WT1  655  TIP3 H2   HT     0.417000        1.0080           0
    2930 WT1  656  TIP3 OH2  OT    -0.834000       15.9994           0
    2931 WT1  656  TIP3 H1   HT     0.417000        1.0080           0
    2932 WT1  656  TIP3 H2   HT     0.417000        1.0080           0
    2933 WT1  657  TIP3 OH2  OT    -0.834000       15.9994           0
    2934 WT1  657  TIP3 H1   HT     0.417000        1.0080           0
    2935 WT1  657  TIP3 H2   HT     0.417000        1.0080           0
    2936 WT1  658  TIP3 OH2  OT    -0.834000       15.9994           0
    2937 WT1  658  TIP3 H1   HT     0.417000        1.0080           0
    2938 WT1  658  TIP3 H2   HT     0.417000        1.0080           0
    2939 WT1  659  TIP3 OH2  OT    -0.834000       15.9994           0
    2940 WT1  659  TIP3 H1   HT     0.417000        1.0080           0
    2941 WT1  659  TIP3 H2   HT     0.417000        1.0080           0
    2942 WT1  660  TIP3 OH2  OT    -0.834000       15.9994           0
    2943 WT1  660  TIP3 H1   HT     0.417000        1.0080           0
    2944 WT1  660  TIP3 H2   HT     0.417000        1.0080           0
    2945 WT1  661  TIP3 OH2  OT    -0.834000       15.9994           0
    2946 WT1  661  TIP3 H1   HT     0.417000        1.0080           0
    2947 WT1  661  TIP3 H2   HT     0.417000        1.0080           0
    2948 WT1  662  TIP3 OH2  OT    -0.834000       15.9994           0
    2949 WT1  662  TIP3 H1   HT     0.417000        1.0080           0
    2950 WT1  662  TIP3 H2   HT     0.417000        1.0080           0
    2951 WT1  664  TIP3 OH2  OT    -0.834000       15.9994           0
    2952 WT1  664  TIP3 H1   HT     0.417000        1.0080           0
    2953 WT1  664  TIP3 H2   HT     0.417000        1.0080           0
    2954 WT1  665  TIP3 OH2  OT    -0.834000       15.9994           0
    2955 WT1  665  TIP3 H1   HT     0.417000        1.0080           0
    2956 WT1  665  TIP3 H2   HT     0.417000        1.0080           0
    2957 WT1  666  TIP3 OH2  OT    -0.834000       15.9994           0
    2958 WT1  666  TIP3 H1   HT     0.417000        1.0080           0
    2959 WT1  666  TIP3 H2   HT     0.417000        1.0080           0
    2960 WT1  667  TIP3 OH2  OT    -0.834000       15.9994           0
    2961 WT1  667  TIP3 H1   HT     0.417000        1.0080           0
    2962 WT1  667  TIP3 H2   HT     0.417000        1.0080           0
    2963 WT1  668  TIP3 OH2  OT    -0.834000       15.9994           0
    2964 WT1  668  TIP3 H1   HT     0.417000        1.0080           0
    2965 WT1  668  TIP3 H2   HT     0.417000        1.0080           0
    2966 WT1  669  TIP3 OH2  OT    -0.834000       15.9994           0
    2967 WT1  669  TIP3 H1   HT     0.417000        1.0080           0
    2968 WT1  669  TIP3 H2   HT     0.417000        1.0080           0
    2969 WT1  670  TIP3 OH2  OT    -0.834000       15.9994           0
    2970 WT1  670  TIP3 H1   HT     0.417000        1.0080           0
    2971 WT1  670  TIP3 H2   HT     0.417000        1.0080           0
    2972 WT1  671  TIP3 OH2  OT    -0.834000       15.9994           0
    2973 WT1  671  TIP3 H1   HT     0.417000        1.0080           0
    2974 WT1  671  TIP3 H2   HT     0.417000        1.0080           0
    2975 WT1  672  TIP3 OH2  OT    -0.834000       15.9994           0
    2976 WT1  672  TIP3 H1   HT     0.417000        1.0080           0
    2977 WT1  672  TIP3 H2   HT     0.417000        1.0080           0
    2978 WT1  674  TIP3 OH2  OT    -0.834000       15.9994           0
    2979 WT1  674  TIP3 H1   HT     0.417000        1.0080           0
    2980 WT1  674  TIP3 H2   HT     0.417000        1.0080           0
    2981 WT1  675  TIP3 OH2  OT    -0.834000       15.9994           0
    2982 WT1  675  TIP3 H1   HT     0.417000        1.0080           0
    2983 WT1  675  TIP3 H2   HT     0.417000        1.0080           0
    2984 WT1  676  TIP3 OH2  OT    -0.834000       15.9994           0
    2985 WT1  676  TIP3 H1   HT     0.417000        1.0080           0
    2986 WT1  676  TIP3 H2   HT     0.417000        1.0080           0
    2987 WT1  677  TIP3 OH2  OT    -0.834000       15.9994           0
    2988 WT1  677  TIP3 H1   HT     0.417000        1.0080           0
    2989 WT1  677  TIP3 H2   HT     0.417000        1.0080           0
    2990 WT1  679  TIP3 OH2  OT    -0.834000       15.9994           0
    2991 WT1  679  TIP3 H1   HT     0.417000        1.0080           0
    2992 WT1  679  TIP3 H2   HT     0.417000        1.0080           0
    2993 WT1  680  TIP3 OH2  OT    -0.834000       15.9994           0
    2994 WT1  680  TIP3 H1   HT     0.417000        1.0080           0
    2995 WT1  680  TIP3 H2   HT     0.417000        1.0080           0
    2996 WT1  681  TIP3 OH2  OT    -0.834000       15.9994           0
    2997 WT1  681  TIP3 H1   HT     0.417000        1.0080           0
    2998 WT1  681  TIP3 H2   HT     0.417000        1.0080           0
    2999 WT1  682  TIP3 OH2  OT    -0.834000       15.9994           0
    3000 WT1  682  TIP3 H1   HT     0.417000        1.0080           0
    3001 WT1  682  TIP3 H2   HT     0.417000        1.0080           0
    3002 WT1  683  TIP3 OH2  OT    -0.834000       15.9994           0
    3003 WT1  683  TIP3 H1   HT     0.417000        1.0080           0
    3004 WT1  683  TIP3 H2   HT     0.417000        1.0080           0
    3005 WT1  684  TIP3 OH2  OT    -0.834000       15.9994           0
    3006 WT1  684  TIP3 H1   HT     0.417000        1.0080           0
    3007 WT1  684  TIP3 H2   HT     0.417000        1.0080           0
    3008 WT1  685  TIP3 OH2  OT    -0.834000       15.9994           0
    3009 WT1  685  TIP3 H1   HT     0.417000        1.0080           0
    3010 WT1  685  TIP3 H2   HT     0.417000        1.0080           0
    3011 WT1  686  TIP3 OH2  OT    -0.834000       15.9994           0
    3012 WT1  686  TIP3 H1   HT     0.417000        1.0080           0
    3013 WT1  686  TIP3 H2   HT     0.417000        1.0080           0
    3014 WT1  687  TIP3 OH2  OT    -0.834000       15.9994           0
    3015 WT1  687  TIP3 H1   HT     0.417000        1.0080           0
    3016 WT1  687  TIP3 H2   HT     0.417000        1.0080           0
    3017 WT1  689  TIP3 OH2  OT    -0.834000       15.9994           0
    3018 WT1  689  TIP3 H1   HT     0.417000        1.0080           0
    3019 WT1  689  TIP3 H2   HT     0.417000        1.0080           0
    3020 WT1  690  TIP3 OH2  OT    -0.834000       15.9994           0
    3021 WT1  690  TIP3 H1   HT     0.417000        1.0080           0
    3022 WT1  690  TIP3 H2   HT     0.417000        1.0080           0
    3023 WT1  692  TIP3 OH2  OT    -0.834000       15.9994           0
    3024 WT1  692  TIP3 H1   HT     0.417000        1.0080           0
    3025 WT1  692  TIP3 H2   HT     0.417000        1.0080           0
    3026 WT1  693  TIP3 OH2  OT    -0.834000       15.9994           0
    3027 WT1  693  TIP3 H1   HT     0.417000        1.0080           0
    3028 WT1  693  TIP3 H2   HT     0.417000        1.0080           0
    3029 WT1  694  TIP3 OH2  OT    -0.834000       15.9994           0
    3030 WT1  694  TIP3 H1   HT     0.417000        1.0080           0
    3031 WT1  694  TIP3 H2   HT     0.417000        1.0080           0
    3032 WT1  695  TIP3 OH2  OT    -0.834000       15.9994           0
    3033 WT1  695  TIP3 H1   HT     0.417000        1.0080           0
    3034 WT1  695  TIP3 H2   HT     0.417000        1.0080           0
    3035 WT1  696  TIP3 OH2  OT    -0.834000       15.9994           0
    3036 WT1  696  TIP3 H1   HT     0.417000        1.0080           0
    3037 WT1  696  TIP3 H2   HT     0.417000        1.0080           0
    3038 WT1  697  TIP3 OH2  OT    -0.834000       15.9994           0
    3039 WT1  697  TIP3 H1   HT     0.417000        1.0080           0
    3040 WT1  697  TIP3 H2   HT     0.417000        1.0080           0
    3041 WT1  698  TIP3 OH2  OT    -0.834000       15.9994           0
    3042 WT1  698  TIP3 H1   HT     0.417000        1.0080           0
    3043 WT1  698  TIP3 H2   HT     0.417000        1.0080           0
    3044 WT1  699  TIP3 OH2  OT    -0.834000       15.9994           0
    3045 WT1  699  TIP3 H1   HT     0.417000        1.0080           0
    3046 WT1  699  TIP3 H2   HT     0.417000        1.0080           0
    3047 WT1  700  TIP3 OH2  OT    -0.834000       15.9994           0
    3048 WT1  700  TIP3 H1   HT     0.417000        1.0080           0
    3049 WT1  700  TIP3 H2   HT     0.417000        1.0080           0
    3050 WT1  701  TIP3 OH2  OT    -0.834000       15.9994           0
    3051 WT1  701  TIP3 H1   HT     0.417000        1.0080           0
    3052 WT1  701  TIP3 H2   HT     0.417000        1.0080           0
    3053 WT1  702  TIP3 OH2  OT    -0.834000       15.9994           0
    3054 WT1  702  TIP3 H1   HT     0.417000        1.0080           0
    3055 WT1  702  TIP3 H2   HT     0.417000        1.0080           0
    3056 WT1  703  TIP3 OH2  OT    -0.834000       15.9994           0
    3057 WT1  703  TIP3 H1   HT     0.417000        1.0080           0
    3058 WT1  703  TIP3 H2   HT     0.417000        1.0080           0
    3059 WT1  704  TIP3 OH2  OT    -0.834000       15.9994           0
    3060 WT1  704  TIP3 H1   HT     0.417000        1.0080           0
    3061 WT1  704  TIP3 H2   HT     0.417000        1.0080           0
    3062 WT1  705  TIP3 OH2  OT    -0.834000       15.9994           0
    3063 WT1  705  TIP3 H1   HT     0.417000        1.0080           0
    3064 WT1  705  TIP3 H2   HT     0.417000        1.0080           0
    3065 WT1  706  TIP3 OH2  OT    -0.834000       15.9994           0
    3066 WT1  706  TIP3 H1   HT     0.417000        1.0080           0
    3067 WT1  706  TIP3 H2   HT     0.417000        1.0080           0
    3068 WT1  707  TIP3 OH2  OT    -0.834000       15.9994           0
    3069 WT1  707  TIP3 H1   HT     0.417000        1.0080           0
    3070 WT1  707  TIP3 H2   HT     0.417000        1.0080           0
    3071 WT1  708  TIP3 OH2  OT    -0.834000       15.9994           0
    3072 WT1  708  TIP3 H1   HT     0.417000        1.0080           0
    3073 WT1  708  TIP3 H2   HT     0.417000        1.0080           0
    3074 WT1  710  TIP3 OH2  OT    -0.834000       15.9994           0
    3075 WT1  710  TIP3 H1   HT     0.417000        1.0080           0
    3076 WT1  710  TIP3 H2   HT     0.417000        1.0080           0
    3077 WT1  711  TIP3 OH2  OT    -0.834000       15.9994           0
    3078 WT1  711  TIP3 H1   HT     0.417000        1.0080           0
    3079 WT1  711  TIP3 H2   HT     0.417000        1.0080           0
    3080 WT1  712  TIP3 OH2  OT    -0.834000       15.9994           0
    3081 WT1  712  TIP3 H1   HT     0.417000        1.0080           0
    3082 WT1  712  TIP3 H2   HT     0.417000        1.0080           0
    3083 WT1  714  TIP3 OH2  OT    -0.834000       15.9994           0
    3084 WT1  714  TIP3 H1   HT     0.417000        1.0080           0
    3085 WT1  714  TIP3 H2   HT     0.417000        1.0080           0
    3086 WT1  715  TIP3 OH2  OT    -0.834000       15.9994           0
    3087 WT1  715  TIP3 H1   HT     0.417000        1.0080           0
    3088 WT1  715  TIP3 H2   HT     0.417000        1.0080           0
    3089 WT1  716  TIP3 OH2  OT    -0.834000       15.9994           0
    3090 WT1  716  TIP3 H1   HT     0.417000        1.0080           0
    3091 WT1  716  TIP3 H2   HT     0.417000        1.0080           0
    3092 WT1  717  TIP3 OH2  OT    -0.834000       15.9994           0
    3093 WT1  717  TIP3 H1   HT     0.417000        1.0080           0
    3094 WT1  717  TIP3 H2   HT     0.417000        1.0080           0
    3095 WT1  718  TIP3 OH2  OT    -0.834000       15.9994           0
    3096 WT1  718  TIP3 H1   HT     0.417000        1.0080           0
    3097 WT1  718  TIP3 H2   HT     0.417000        1.0080           0
    3098 WT1  719  TIP3 OH2  OT    -0.834000       15.9994           0
    3099 WT1  719  TIP3 H1   HT     0.417000        1.0080           0
    3100 WT1  719  TIP3 H2   HT     0.417000        1.0080           0
    3101 WT1  720  TIP3 OH2  OT    -0.834000       15.9994           0
    3102 WT1  720  TIP3 H1   HT     0.417000        1.0080           0
    3103 WT1  720  TIP3 H2   HT     0.417000        1.0080           0
    3104 WT1  721  TIP3 OH2  OT    -0.834000       15.9994           0
    3105 WT1  721  TIP3 H1   HT     0.417000        1.0080           0
    3106 WT1  721  TIP3 H2   HT     0.417000        1.0080           0
    3107 WT1  723  TIP3 OH2  OT    -0.834000       15.9994           0
    3108 WT1  723  TIP3 H1   HT     0.417000        1.0080           0
    3109 WT1  723  TIP3 H2   HT     0.417000        1.0080           0
    3110 WT1  724  TIP3 OH2  OT    -0.834000       15.9994           0
    3111 WT1  724  TIP3 H1   HT     0.417000        1.0080           0
    3112 WT1  724  TIP3 H2   HT     0.417000        1.0080           0
    3113 WT1  725  TIP3 OH2  OT    -0.834000       15.9994           0
    3114 WT1  725  TIP3 H1   HT     0.417000        1.0080           0
    3115 WT1  725  TIP3 H2   HT     0.417000        1.0080           0
    3116 WT1  726  TIP3 OH2  OT    -0.834000       15.9994           0
    3117 WT1  726  TIP3 H1   HT     0.417000        1.0080           0
    3118 WT1  726  TIP3 H2   HT     0.417000        1.0080           0
    3119 WT1  727  TIP3 OH2  OT    -0.834000       15.9994           0
    3120 WT1  727  TIP3 H1   HT     0.417000        1.0080           0
    3121 WT1  727  TIP3 H2   HT     0.417000        1.0080           0
    3122 WT1  728  TIP3 OH2  OT    -0.834000       15.9994           0
    3123 WT1  728  TIP3 H1   HT     0.417000        1.0080           0
    3124 WT1  728  TIP3 H2   HT     0.417000        1.0080           0
    3125 WT1  729  TIP3 OH2  OT    -0.834000       15.9994           0
    3126 WT1  729  TIP3 H1   HT     0.417000        1.0080           0
    3127 WT1  729  TIP3 H2   HT     0.417000        1.0080           0
    3128 WT1  730  TIP3 OH2  OT    -0.834000       15.9994           0
    3129 WT1  730  TIP3 H1   HT     0.417000        1.0080           0
    3130 WT1  730  TIP3 H2   HT     0.417000        1.0080           0
    3131 WT1  731  TIP3 OH2  OT    -0.834000       15.9994           0
    3132 WT1  731  TIP3 H1   HT     0.417000        1.0080           0
    3133 WT1  731  TIP3 H2   HT     0.417000        1.0080           0
    3134 WT1  732  TIP3 OH2  OT    -0.834000       15.9994           0
    3135 WT1  732  TIP3 H1   HT     0.417000        1.0080           0
    3136 WT1  732  TIP3 H2   HT     0.417000        1.0080           0
    3137 WT1  733  TIP3 OH2  OT    -0.834000       15.9994           0
    3138 WT1  733  TIP3 H1   HT     0.417000        1.0080           0
    3139 WT1  733  TIP3 H2   HT     0.417000        1.0080           0
    3140 WT1  734  TIP3 OH2  OT    -0.834000       15.9994           0
    3141 WT1  734  TIP3 H1   HT     0.417000        1.0080           0
    3142 WT1  734  TIP3 H2   HT     0.417000        1.0080           0
    3143 WT1  735  TIP3 OH2  OT    -0.834000       15.9994           0
    3144 WT1  735  TIP3 H1   HT     0.417000        1.0080           0
    3145 WT1  735  TIP3 H2   HT     0.417000        1.0080           0
    3146 WT1  736  TIP3 OH2  OT    -0.834000       15.9994           0
    3147 WT1  736  TIP3 H1   HT     0.417000        1.0080           0
    3148 WT1  736  TIP3 H2   HT     0.417000        1.0080           0
    3149 WT1  738  TIP3 OH2  OT    -0.834000       15.9994           0
    3150 WT1  738  TIP3 H1   HT     0.417000        1.0080           0
    3151 WT1  738  TIP3 H2   HT     0.417000        1.0080           0
    3152 WT1  739  TIP3 OH2  OT    -0.834000       15.9994           0
    3153 WT1  739  TIP3 H1   HT     0.417000        1.0080           0
    3154 WT1  739  TIP3 H2   HT     0.417000        1.0080           0
    3155 WT1  740  TIP3 OH2  OT    -0.834000       15.9994           0
    3156 WT1  740  TIP3 H1   HT     0.417000        1.0080           0
    3157 WT1  740  TIP3 H2   HT     0.417000        1.0080           0
    3158 WT1  741  TIP3 OH2  OT    -0.834000       15.9994           0
    3159 WT1  741  TIP3 H1   HT     0.417000        1.0080           0
    3160 WT1  741  TIP3 H2   HT     0.417000        1.0080           0
    3161 WT1  742  TIP3 OH2  OT    -0.834000       15.9994           0
    3162 WT1  742  TIP3 H1   HT     0.417000        1.0080           0
    3163 WT1  742  TIP3 H2   HT     0.417000        1.0080           0
    3164 WT1  743  TIP3 OH2  OT    -0.834000       15.9994           0
    3165 WT1  743  TIP3 H1   HT     0.417000        1.0080           0
    3166 WT1  743  TIP3 H2   HT     0.417000        1.0080           0
    3167 WT1  744  TIP3 OH2  OT    -0.834000       15.9994           0
    3168 WT1  744  TIP3 H1   HT     0.417000        1.0080           0
    3169 WT1  744  TIP3 H2   HT     0.417000        1.0080           0
    3170 WT1  745  TIP3 OH2  OT    -0.834000       15.9994           0
    3171 WT1  745  TIP3 H1   HT     0.417000        1.0080           0
    3172 WT1  745  TIP3 H2   HT     0.417000        1.0080           0
    3173 WT1  746  TIP3 OH2  OT    -0.834000       15.9994           0
    3174 WT1  746  TIP3 H1   HT     0.417000        1.0080           0
    3175 WT1  746  TIP3 H2   HT     0.417000        1.0080           0
    3176 WT1  747  TIP3 OH2  OT    -0.834000       15.9994           0
    3177 WT1  747  TIP3 H1   HT     0.417000        1.0080           0
    3178 WT1  747  TIP3 H2   HT     0.417000        1.0080           0
    3179 WT1  748  TIP3 OH2  OT    -0.834000       15.9994           0
    3180 WT1  748  TIP3 H1   HT     0.417000        1.0080           0
    3181 WT1  748  TIP3 H2   HT     0.417000        1.0080           0
    3182 WT1  749  TIP3 OH2  OT    -0.834000       15.9994           0
    3183 WT1  749  TIP3 H1   HT     0.417000        1.0080           0
    3184 WT1  749  TIP3 H2   HT     0.417000        1.0080           0
    3185 WT1  750  TIP3 OH2  OT    -0.834000       15.9994           0
    3186 WT1  750  TIP3 H1   HT     0.417000        1.0080           0
    3187 WT1  750  TIP3 H2   HT     0.417000        1.0080           0
    3188 WT1  751  TIP3 OH2  OT    -0.834000       15.9994           0
    3189 WT1  751  TIP3 H1   HT     0.417000        1.0080           0
    3190 WT1  751  TIP3 H2   HT     0.417000        1.0080           0
    3191 WT1  752  TIP3 OH2  OT    -0.834000       15.9994           0
    3192 WT1  752  TIP3 H1   HT     0.417000        1.0080           0
    3193 WT1  752  TIP3 H2   HT     0.417000        1.0080           0
    3194 WT1  753  TIP3 OH2  OT    -0.834000       15.9994           0
    3195 WT1  753  TIP3 H1   HT     0.417000        1.0080           0
    3196 WT1  753  TIP3 H2   HT     0.417000        1.0080           0
    3197 WT1  754  TIP3 OH2  OT    -0.834000       15.9994           0
    3198 WT1  754  TIP3 H1   HT     0.417000        1.0080           0
    3199 WT1  754  TIP3 H2   HT     0.417000        1.0080           0
    3200 WT1  755  TIP3 OH2  OT    -0.834000       15.9994           0
    3201 WT1  755  TIP3 H1   HT     0.417000        1.0080           0
    3202 WT1  755  TIP3 H2   HT     0.417000        1.0080           0
    3203 WT1  756  TIP3 OH2  OT    -0.834000       15.9994           0
    3204 WT1  756  TIP3 H1   HT     0.417000        1.0080           0
    3205 WT1  756  TIP3 H2   HT     0.417000        1.0080           0
    3206 WT1  757  TIP3 OH2  OT    -0.834000       15.9994           0
    3207 WT1  757  TIP3 H1   HT     0.417000        1.0080           0
    3208 WT1  757  TIP3 H2   HT     0.417000        1.0080           0
    3209 WT1  760  TIP3 OH2  OT    -0.834000       15.9994           0
    3210 WT1  760  TIP3 H1   HT     0.417000        1.0080           0
    3211 WT1  760  TIP3 H2   HT     0.417000        1.0080           0
    3212 WT1  761  TIP3 OH2  OT    -0.834000       15.9994           0
    3213 WT1  761  TIP3 H1   HT     0.417000        1.0080           0
    3214 WT1  761  TIP3 H2   HT     0.417000        1.0080           0
    3215 WT1  762  TIP3 OH2  OT    -0.834000       15.9994           0
    3216 WT1  762  TIP3 H1   HT     0.417000        1.0080           0
    3217 WT1  762  TIP3 H2   HT     0.417000        1.0080           0
    3218 WT1  763  TIP3 OH2  OT    -0.834000       15.9994           0
    3219 WT1  763  TIP3 H1   HT     0.417000        1.0080           0
    3220 WT1  763  TIP3 H2   HT     0.417000        1.0080           0
    3221 WT1  764  TIP3 OH2  OT    -0.834000       15.9994           0
    3222 WT1  764  TIP3 H1   HT     0.417000        1.0080           0
    3223 WT1  764  TIP3 H2   HT     0.417000        1.0080           0
    3224 WT1  765  TIP3 OH2  OT    -0.834000       15.9994           0
    3225 WT1  765  TIP3 H1   HT     0.417000        1.0080           0
    3226 WT1  765  TIP3 H2   HT     0.417000        1.0080           0
    3227 WT1  766  TIP3 OH2  OT    -0.834000       15.9994           0
    3228 WT1  766  TIP3 H1   HT     0.417000        1.0080           0
    3229 WT1  766  TIP3 H2   HT     0.417000        1.0080           0
    3230 WT1  767  TIP3 OH2  OT    -0.834000       15.9994           0
    3231 WT1  767  TIP3 H1   HT     0.417000        1.0080           0
    3232 WT1  767  TIP3 H2   HT     0.417000        1.0080           0
    3233 WT1  768  TIP3 OH2  OT    -0.834000       15.9994           0
    3234 WT1  768  TIP3 H1   HT     0.417000        1.0080           0
    3235 WT1  768  TIP3 H2   HT     0.417000        1.0080           0
    3236 WT1  769  TIP3 OH2  OT    -0.834000       15.9994           0
    3237 WT1  769  TIP3 H1   HT     0.417000        1.0080           0
    3238 WT1  769  TIP3 H2   HT     0.417000        1.0080           0
    3239 WT1  770  TIP3 OH2  OT    -0.834000       15.9994           0
    3240 WT1  770  TIP3 H1   HT     0.417000        1.0080           0
    3241 WT1  770  TIP3 H2   HT     0.417000        1.0080           0
    3242 WT1  771  TIP3 OH2  OT    -0.834000       15.9994           0
    3243 WT1  771  TIP3 H1   HT     0.417000        1.0080           0
    3244 WT1  771  TIP3 H2   HT     0.417000        1.0080           0
    3245 WT1  772  TIP3 OH2  OT    -0.834000       15.9994           0
    3246 WT1  772  TIP3 H1   HT     0.417000        1.0080           0
    3247 WT1  772  TIP3 H2   HT     0.417000        1.0080           0
    3248 WT1  773  TIP3 OH2  OT    -0.834000       15.9994           0
    3249 WT1  773  TIP3 H1   HT     0.417000        1.0080           0
    3250 WT1  773  TIP3 H2   HT     0.417000        1.0080           0
    3251 WT1  775  TIP3 OH2  OT    -0.834000       15.9994           0
    3252 WT1  775  TIP3 H1   HT     0.417000        1.0080           0
    3253 WT1  775  TIP3 H2   HT     0.417000        1.0080           0
    3254 WT1  776  TIP3 OH2  OT    -0.834000       15.9994           0
    3255 WT1  776  TIP3 H1   HT     0.417000        1.0080           0
    3256 WT1  776  TIP3 H2   HT     0.417000        1.0080           0
    3257 WT1  777  TIP3 OH2  OT    -0.834000       15.9994           0
    3258 WT1  777  TIP3 H1   HT     0.417000        1.0080           0
    3259 WT1  777  TIP3 H2   HT     0.417000        1.0080           0
    3260 WT1  778  TIP3 OH2  OT    -0.834000       15.9994           0
    3261 WT1  778  TIP3 H1   HT     0.417000        1.0080           0
    3262 WT1  778  TIP3 H2   HT     0.417000        1.0080           0
    3263 WT1  781  TIP3 OH2  OT    -0.834000       15.9994           0
    3264 WT1  781  TIP3 H1   HT     0.417000        1.0080           0
    3265 WT1  781  TIP3 H2   HT     0.417000        1.0080           0
    3266 WT1  782  TIP3 OH2  OT    -0.834000       15.9994           0
    3267 WT1  782  TIP3 H1   HT     0.417000        1.0080           0
    3268 WT1  782  TIP3 H2   HT     0.417000        1.0080           0
    3269 WT1  784  TIP3 OH2  OT    -0.834000       15.9994           0
    3270 WT1  784  TIP3 H1   HT     0.417000        1.0080           0
    3271 WT1  784  TIP3 H2   HT     0.417000        1.0080           0
    3272 WT1  785  TIP3 OH2  OT    -0.834000       15.9994           0
    3273 WT1  785  TIP3 H1   HT     0.417000        1.0080           0
    3274 WT1  785  TIP3 H2   HT     0.417000        1.0080           0
    3275 WT1  786  TIP3 OH2  OT    -0.834000       15.9994           0
    3276 WT1  786  TIP3 H1   HT     0.417000        1.0080           0
    3277 WT1  786  TIP3 H2   HT     0.417000        1.0080           0
    3278 WT1  787  TIP3 OH2  OT    -0.834000       15.9994           0
    3279 WT1  787  TIP3 H1   HT     0.417000        1.0080           0
    3280 WT1  787  TIP3 H2   HT     0.417000        1.0080           0
    3281 WT1  789  TIP3 OH2  OT    -0.834000       15.9994           0
    3282 WT1  789  TIP3 H1   HT     0.417000        1.0080           0
    3283 WT1  789  TIP3 H2   HT     0.417000        1.0080           0
    3284 WT1  790  TIP3 OH2  OT    -0.834000       15.9994           0
    3285 WT1  790  TIP3 H1   HT     0.417000        1.0080           0
    3286 WT1  790  TIP3 H2   HT     0.417000        1.0080           0
    3287 WT1  791  TIP3 OH2  OT    -0.834000       15.9994           0
    3288 WT1  791  TIP3 H1   HT     0.417000        1.0080           0
    3289 WT1  791  TIP3 H2   HT     0.417000        1.0080           0
    3290 WT1  792  TIP3 OH2  OT    -0.834000       15.9994           0
    3291 WT1  792  TIP3 H1   HT     0.417000        1.0080           0
    3292 WT1  792  TIP3 H2   HT     0.417000        1.0080           0
    3293 WT1  793  TIP3 OH2  OT    -0.834000       15.9994           0
    3294 WT1  793  TIP3 H1   HT     0.417000        1.0080           0
    3295 WT1  793  TIP3 H2   HT     0.417000        1.0080           0
    3296 WT1  794  TIP3 OH2  OT    -0.834000       15.9994           0
    3297 WT1  794  TIP3 H1   HT     0.417000        1.0080           0
    3298 WT1  794  TIP3 H2   HT     0.417000        1.0080           0
    3299 WT1  795  TIP3 OH2  OT    -0.834000       15.9994           0
    3300 WT1  795  TIP3 H1   HT     0.417000        1.0080           0
    3301 WT1  795  TIP3 H2   HT     0.417000        1.0080           0
    3302 WT1  796  TIP3 OH2  OT    -0.834000       15.9994           0
    3303 WT1  796  TIP3 H1   HT     0.417000        1.0080           0
    3304 WT1  796  TIP3 H2   HT     0.417000        1.0080           0
    3305 WT1  797  TIP3 OH2  OT    -0.834000       15.9994           0
    3306 WT1  797  TIP3 H1   HT     0.417000        1.0080           0
    3307 WT1  797  TIP3 H2   HT     0.417000        1.0080           0
    3308 WT1  798  TIP3 OH2  OT    -0.834000       15.9994           0
    3309 WT1  798  TIP3 H1   HT     0.417000        1.0080           0
    3310 WT1  798  TIP3 H2   HT     0.417000        1.0080           0
    3311 WT1  800  TIP3 OH2  OT    -0.834000       15.9994           0
    3312 WT1  800  TIP3 H1   HT     0.417000        1.0080           0
    3313 WT1  800  TIP3 H2   HT     0.417000        1.0080           0
    3314 WT1  801  TIP3 OH2  OT    -0.834000       15.9994           0
    3315 WT1  801  TIP3 H1   HT     0.417000        1.0080           0
    3316 WT1  801  TIP3 H2   HT     0.417000        1.0080           0
    3317 WT1  804  TIP3 OH2  OT    -0.834000       15.9994           0
    3318 WT1  804  TIP3 H1   HT     0.417000        1.0080           0
    3319 WT1  804  TIP3 H2   HT     0.417000        1.0080           0
    3320 WT1  805  TIP3 OH2  OT    -0.834000       15.9994           0
    3321 WT1  805  TIP3 H1   HT     0.417000        1.0080           0
    3322 WT1  805  TIP3 H2   HT     0.417000        1.0080           0
    3323 WT1  806  TIP3 OH2  OT    -0.834000       15.9994           0
    3324 WT1  806  TIP3 H1   HT     0.417000        1.0080           0
    3325 WT1  806  TIP3 H2   HT     0.417000        1.0080           0
    3326 WT1  807  TIP3 OH2  OT    -0.834000       15.9994           0
    3327 WT1  807  TIP3 H1   HT     0.417000        1.0080           0
    3328 WT1  807  TIP3 H2   HT     0.417000        1.0080           0
    3329 WT1  809  TIP3 OH2  OT    -0.834000       15.9994           0
    3330 WT1  809  TIP3 H1   HT     0.417000        1.0080           0
    3331 WT1  809  TIP3 H2   HT     0.417000        1.0080           0
    3332 WT1  810  TIP3 OH2  OT    -0.834000       15.9994           0
    3333 WT1  810  TIP3 H1   HT     0.417000        1.0080           0
    3334 WT1  810  TIP3 H2   HT     0.417000        1.0080           0
    3335 WT1  811  TIP3 OH2  OT    -0.834000       15.9994           0
    3336 WT1  811  TIP3 H1   HT     0.417000        1.0080           0
    3337 WT1  811  TIP3 H2   HT     0.417000        1.0080           0
    3338 WT1  812  TIP3 OH2  OT    -0.834000       15.9994           0
    3339 WT1  812  TIP3 H1   HT     0.417000        1.0080           0
    3340 WT1  812  TIP3 H2   HT     0.417000        1.0080           0
    3341 WT1  813  TIP3 OH2  OT    -0.834000       15.9994           0
    3342 WT1  813  TIP3 H1   HT     0.417000        1.0080           0
    3343 WT1  813  TIP3 H2   HT     0.417000        1.0080           0
    3344 WT1  814  TIP3 OH2  OT    -0.834000       15.9994           0
    3345 WT1  814  TIP3 H1   HT     0.417000        1.0080           0
    3346 WT1  814  TIP3 H2   HT     0.417000        1.0080           0
    3347 WT1  816  TIP3 OH2  OT    -0.834000       15.9994           0
    3348 WT1  816  TIP3 H1   HT     0.417000        1.0080           0
    3349 WT1  816  TIP3 H2   HT     0.417000        1.0080           0
    3350 WT1  817  TIP3 OH2  OT    -0.834000       15.9994           0
    3351 WT1  817  TIP3 H1   HT     0.417000        1.0080           0
    3352 WT1  817  TIP3 H2   HT     0.417000        1.0080           0
    3353 WT1  818  TIP3 OH2  OT    -0.834000       15.9994           0
    3354 WT1  818  TIP3 H1   HT     0.417000        1.0080           0
    3355 WT1  818  TIP3 H2   HT     0.417000        1.0080           0
    3356 WT1  819  TIP3 OH2  OT    -0.834000       15.9994           0
    3357 WT1  819  TIP3 H1   HT     0.417000        1.0080           0
    3358 WT1  819  TIP3 H2   HT     0.417000        1.0080           0
    3359 WT1  820  TIP3 OH2  OT    -0.834000       15.9994           0
    3360 WT1  820  TIP3 H1   HT     0.417000        1.0080           0
    3361 WT1  820  TIP3 H2   HT     0.417000        1.0080           0
    3362 WT1  821  TIP3 OH2  OT    -0.834000       15.9994           0
    3363 WT1  821  TIP3 H1   HT     0.417000        1.0080           0
    3364 WT1  821  TIP3 H2   HT     0.417000        1.0080           0
    3365 WT1  822  TIP3 OH2  OT    -0.834000       15.9994           0
    3366 WT1  822  TIP3 H1   HT     0.417000        1.0080           0
    3367 WT1  822  TIP3 H2   HT     0.417000        1.0080           0
    3368 WT1  823  TIP3 OH2  OT    -0.834000       15.9994           0
    3369 WT1  823  TIP3 H1   HT     0.417000        1.0080           0
    3370 WT1  823  TIP3 H2   HT     0.417000        1.0080           0
    3371 WT1  824  TIP3 OH2  OT    -0.834000       15.9994           0
    3372 WT1  824  TIP3 H1   HT     0.417000        1.0080           0
    3373 WT1  824  TIP3 H2   HT     0.417000        1.0080           0
    3374 WT1  825  TIP3 OH2  OT    -0.834000       15.9994           0
    3375 WT1  825  TIP3 H1   HT     0.417000        1.0080           0
    3376 WT1  825  TIP3 H2   HT     0.417000        1.0080           0
    3377 WT1  826  TIP3 OH2  OT    -0.834000       15.9994           0
    3378 WT1  826  TIP3 H1   HT     0.417000        1.0080           0
    3379 WT1  826  TIP3 H2   HT     0.417000        1.0080           0
    3380 WT1  827  TIP3 OH2  OT    -0.834000       15.9994           0
    3381 WT1  827  TIP3 H1   HT     0.417000        1.0080           0
    3382 WT1  827  TIP3 H2   HT     0.417000        1.0080           0
    3383 WT1  828  TIP3 OH2  OT    -0.834000       15.9994           0
    3384 WT1  828  TIP3 H1   HT     0.417000        1.0080           0
    3385 WT1  828  TIP3 H2   HT     0.417000        1.0080           0
    3386 WT1  829  TIP3 OH2  OT    -0.834000       15.9994           0
    3387 WT1  829  TIP3 H1   HT     0.417000        1.0080           0
    3388 WT1  829  TIP3 H2   HT     0.417000        1.0080           0
    3389 WT1  830  TIP3 OH2  OT    -0.834000       15.9994           0
    3390 WT1  830  TIP3 H1   HT     0.417000        1.0080           0
    3391 WT1  830  TIP3 H2   HT     0.417000        1.0080           0
    3392 WT1  832  TIP3 OH2  OT    -0.834000       15.9994           0
    3393 WT1  832  TIP3 H1   HT     0.417000        1.0080           0
    3394 WT1  832  TIP3 H2   HT     0.417000        1.0080           0
    3395 WT1  833  TIP3 OH2  OT    -0.834000       15.9994           0
    3396 WT1  833  TIP3 H1   HT     0.417000        1.0080           0
    3397 WT1  833  TIP3 H2   HT     0.417000        1.0080           0
    3398 WT1  834  TIP3 OH2  OT    -0.834000       15.9994           0
    3399 WT1  834  TIP3 H1   HT     0.417000        1.0080           0
    3400 WT1  834  TIP3 H2   HT     0.417000        1.0080           0
    3401 WT1  835  TIP3 OH2  OT    -0.834000       15.9994           0
    3402 WT1  835  TIP3 H1   HT     0.417000        1.0080           0
    3403 WT1  835  TIP3 H2   HT     0.417000        1.0080           0
    3404 WT1  836  TIP3 OH2  OT    -0.834000       15.9994           0
    3405 WT1  836  TIP3 H1   HT     0.417000        1.0080           0
    3406 WT1  836  TIP3 H2   HT     0.417000        1.0080           0
    3407 WT1  837  TIP3 OH2  OT    -0.834000       15.9994           0
    3408 WT1  837  TIP3 H1   HT     0.417000        1.0080           0
    3409 WT1  837  TIP3 H2   HT     0.417000        1.0080           0
    3410 WT1  838  TIP3 OH2  OT    -0.834000       15.9994           0
    3411 WT1  838  TIP3 H1   HT     0.417000        1.0080           0
    3412 WT1  838  TIP3 H2   HT     0.417000        1.0080           0
    3413 WT1  839  TIP3 OH2  OT    -0.834000       15.9994           0
    3414 WT1  839  TIP3 H1   HT     0.417000        1.0080           0
    3415 WT1  839  TIP3 H2   HT     0.417000        1.0080           0
    3416 WT1  840  TIP3 OH2  OT    -0.834000       15.9994           0
    3417 WT1  840  TIP3 H1   HT     0.417000        1.0080           0
    3418 WT1  840  TIP3 H2   HT     0.417000        1.0080           0
    3419 WT1  841  TIP3 OH2  OT    -0.834000       15.9994           0
    3420 WT1  841  TIP3 H1   HT     0.417000        1.0080           0
    3421 WT1  841  TIP3 H2   HT     0.417000        1.0080           0
    3422 WT1  842  TIP3 OH2  OT    -0.834000       15.9994           0
    3423 WT1  842  TIP3 H1   HT     0.417000        1.0080           0
    3424 WT1  842  TIP3 H2   HT     0.417000        1.0080           0
    3425 WT1  843  TIP3 OH2  OT    -0.834000       15.9994           0
    3426 WT1  843  TIP3 H1   HT     0.417000        1.0080           0
    3427 WT1  843  TIP3 H2   HT     0.417000        1.0080           0
    3428 WT1  844  TIP3 OH2  OT    -0.834000       15.9994           0
    3429 WT1  844  TIP3 H1   HT     0.417000        1.0080           0
    3430 WT1  844  TIP3 H2   HT     0.417000        1.0080           0
    3431 WT1  845  TIP3 OH2  OT    -0.834000       15.9994           0
    3432 WT1  845  TIP3 H1   HT     0.417000        1.0080           0
    3433 WT1  845  TIP3 H2   HT     0.417000        1.0080           0
    3434 WT1  846  TIP3 OH2  OT    -0.834000       15.9994           0
    3435 WT1  846  TIP3 H1   HT     0.417000        1.0080           0
    3436 WT1  846  TIP3 H2   HT     0.417000        1.0080           0
    3437 WT1  847  TIP3 OH2  OT    -0.834000       15.9994           0
    3438 WT1  847  TIP3 H1   HT     0.417000        1.0080           0
    3439 WT1  847  TIP3 H2   HT     0.417000        1.0080           0
    3440 WT1  849  TIP3 OH2  OT    -0.834000       15.9994           0
    3441 WT1  849  TIP3 H1   HT     0.417000        1.0080           0
    3442 WT1  849  TIP3 H2   HT     0.417000        1.0080           0
    3443 WT1  850  TIP3 OH2  OT    -0.834000       15.9994           0
    3444 WT1  850  TIP3 H1   HT     0.417000        1.0080           0
    3445 WT1  850  TIP3 H2   HT     0.417000        1.0080           0
    3446 WT1  851  TIP3 OH2  OT    -0.834000       15.9994           0
    3447 WT1  851  TIP3 H1   HT     0.417000        1.0080           0
    3448 WT1  851  TIP3 H2   HT     0.417000        1.0080           0
    3449 WT1  852  TIP3 OH2  OT    -0.834000       15.9994           0
    3450 WT1  852  TIP3 H1   HT     0.417000        1.0080           0
    3451 WT1  852  TIP3 H2   HT     0.417000        1.0080           0
    3452 WT1  855  TIP3 OH2  OT    -0.834000       15.9994           0
    3453 WT1  855  TIP3 H1   HT     0.417000        1.0080           0
    3454 WT1  855  TIP3 H2   HT     0.417000        1.0080           0
    3455 WT1  856  TIP3 OH2  OT    -0.834000       15.9994           0
    3456 WT1  856  TIP3 H1   HT     0.417000        1.0080           0
    3457 WT1  856  TIP3 H2   HT     0.417000        1.0080           0
    3458 WT1  857  TIP3 OH2  OT    -0.834000       15.9994           0
    3459 WT1  857  TIP3 H1   HT     0.417000        1.0080           0
    3460 WT1  857  TIP3 H2   HT     0.417000        1.0080           0
    3461 WT1  858  TIP3 OH2  OT    -0.834000       15.9994           0
    3462 WT1  858  TIP3 H1   HT     0.417000        1.0080           0
    3463 WT1  858  TIP3 H2   HT     0.417000        1.0080           0
    3464 WT1  859  TIP3 OH2  OT    -0.834000       15.9994           0
    3465 WT1  859  TIP3 H1   HT     0.417000        1.0080           0
    3466 WT1  859  TIP3 H2   HT     0.417000        1.0080           0
    3467 WT1  860  TIP3 OH2  OT    -0.834000       15.9994           0
    3468 WT1  860  TIP3 H1   HT     0.417000        1.0080           0
    3469 WT1  860  TIP3 H2   HT     0.417000        1.0080           0
    3470 WT1  862  TIP3 OH2  OT    -0.834000       15.9994           0
    3471 WT1  862  TIP3 H1   HT     0.417000        1.0080           0
    3472 WT1  862  TIP3 H2   HT     0.417000        1.0080           0
    3473 WT1  864  TIP3 OH2  OT    -0.834000       15.9994           0
    3474 WT1  864  TIP3 H1   HT     0.417000        1.0080           0
    3475 WT1  864  TIP3 H2   HT     0.417000        1.0080           0
    3476 WT1  865  TIP3 OH2  OT    -0.834000       15.9994           0
    3477 WT1  865  TIP3 H1   HT     0.417000        1.0080           0
    3478 WT1  865  TIP3 H2   HT     0.417000        1.0080           0
    3479 WT1  867  TIP3 OH2  OT    -0.834000       15.9994           0
    3480 WT1  867  TIP3 H1   HT     0.417000        1.0080           0
    3481 WT1  867  TIP3 H2   HT     0.417000        1.0080           0
    3482 WT1  869  TIP3 OH2  OT    -0.834000       15.9994           0
    3483 WT1  869  TIP3 H1   HT     0.417000        1.0080           0
    3484 WT1  869  TIP3 H2   HT     0.417000        1.0080           0
    3485 WT1  870  TIP3 OH2  OT    -0.834000       15.9994           0
    3486 WT1  870  TIP3 H1   HT     0.417000        1.0080           0
    3487 WT1  870  TIP3 H2   HT     0.417000        1.0080           0
    3488 WT1  872  TIP3 OH2  OT    -0.834000       15.9994           0
    3489 WT1  872  TIP3 H1   HT     0.417000        1.0080           0
    3490 WT1  872  TIP3 H2   HT     0.417000        1.0080           0
    3491 WT1  873  TIP3 OH2  OT    -0.834000       15.9994           0
    3492 WT1  873  TIP3 H1   HT     0.417000        1.0080           0
    3493 WT1  873  TIP3 H2   HT     0.417000        1.0080           0
    3494 WT1  874  TIP3 OH2  OT    -0.834000       15.9994           0
    3495 WT1  874  TIP3 H1   HT     0.417000        1.0080           0
    3496 WT1  874  TIP3 H2   HT     0.417000        1.0080           0
    3497 WT1  875  TIP3 OH2  OT    -0.834000       15.9994           0
    3498 WT1  875  TIP3 H1   HT     0.417000        1.0080           0
    3499 WT1  875  TIP3 H2   HT     0.417000        1.0080           0
    3500 WT1  876  TIP3 OH2  OT    -0.834000       15.9994           0
    3501 WT1  876  TIP3 H1   HT     0.417000        1.0080           0
    3502 WT1  876  TIP3 H2   HT     0.417000        1.0080           0
    3503 WT1  877  TIP3 OH2  OT    -0.834000       15.9994           0
    3504 WT1  877  TIP3 H1   HT     0.417000        1.0080           0
    3505 WT1  877  TIP3 H2   HT     0.417000        1.0080           0
    3506 WT1  878  TIP3 OH2  OT    -0.834000       15.9994           0
    3507 WT1  878  TIP3 H1   HT     0.417000        1.0080           0
    3508 WT1  878  TIP3 H2   HT     0.417000        1.0080           0
    3509 WT1  880  TIP3 OH2  OT    -0.834000       15.9994           0
    3510 WT1  880  TIP3 H1   HT     0.417000        1.0080           0
    3511 WT1  880  TIP3 H2   HT     0.417000        1.0080           0
    3512 WT1  881  TIP3 OH2  OT    -0.834000       15.9994           0
    3513 WT1  881  TIP3 H1   HT     0.417000        1.0080           0
    3514 WT1  881  TIP3 H2   HT     0.417000        1.0080           0
    3515 WT1  883  TIP3 OH2  OT    -0.834000       15.9994           0
    3516 WT1  883  TIP3 H1   HT     0.417000        1.0080           0
    3517 WT1  883  TIP3 H2   HT     0.417000        1.0080           0
    3518 WT1  884  TIP3 OH2  OT    -0.834000       15.9994           0
    3519 WT1  884  TIP3 H1   HT     0.417000        1.0080           0
    3520 WT1  884  TIP3 H2   HT     0.417000        1.0080           0
    3521 WT1  885  TIP3 OH2  OT    -0.834000       15.9994           0
    3522 WT1  885  TIP3 H1   HT     0.417000        1.0080           0
    3523 WT1  885  TIP3 H2   HT     0.417000        1.0080           0
    3524 WT1  886  TIP3 OH2  OT    -0.834000       15.9994           0
    3525 WT1  886  TIP3 H1   HT     0.417000        1.0080           0
    3526 WT1  886  TIP3 H2   HT     0.417000        1.0080           0
    3527 WT1  887  TIP3 OH2  OT    -0.834000       15.9994           0
    3528 WT1  887  TIP3 H1   HT     0.417000        1.0080           0
    3529 WT1  887  TIP3 H2   HT     0.417000        1.0080           0
    3530 WT1  890  TIP3 OH2  OT    -0.834000       15.9994           0
    3531 WT1  890  TIP3 H1   HT     0.417000        1.0080           0
    3532 WT1  890  TIP3 H2   HT     0.417000        1.0080           0
    3533 WT1  891  TIP3 OH2  OT    -0.834000       15.9994           0
    3534 WT1  891  TIP3 H1   HT     0.417000        1.0080           0
    3535 WT1  891  TIP3 H2   HT     0.417000        1.0080           0
    3536 WT1  893  TIP3 OH2  OT    -0.834000       15.9994           0
    3537 WT1  893  TIP3 H1   HT     0.417000        1.0080           0
    3538 WT1  893  TIP3 H2   HT     0.417000        1.0080           0
    3539 WT1  894  TIP3 OH2  OT    -0.834000       15.9994           0
    3540 WT1  894  TIP3 H1   HT     0.417000        1.0080           0
    3541 WT1  894  TIP3 H2   HT     0.417000        1.0080           0
    3542 WT1  895  TIP3 OH2  OT    -0.834000       15.9994           0
    3543 WT1  895  TIP3 H1   HT     0.417000        1.0080           0
    3544 WT1  895  TIP3 H2   HT     0.417000        1.0080           0
    3545 WT1  897  TIP3 OH2  OT    -0.834000       15.9994           0
    3546 WT1  897  TIP3 H1   HT     0.417000        1.0080           0
    3547 WT1  897  TIP3 H2   HT     0.417000        1.0080           0
    3548 WT1  898  TIP3 OH2  OT    -0.834000       15.9994           0
    3549 WT1  898  TIP3 H1   HT     0.417000        1.0080           0
    3550 WT1  898  TIP3 H2   HT     0.417000        1.0080           0
    3551 WT1  899  TIP3 OH2  OT    -0.834000       15.9994           0
    3552 WT1  899  TIP3 H1   HT     0.417000        1.0080           0
    3553 WT1  899  TIP3 H2   HT     0.417000        1.0080           0
    3554 WT1  900  TIP3 OH2  OT    -0.834000       15.9994           0
    3555 WT1  900  TIP3 H1   HT     0.417000        1.0080           0
    3556 WT1  900  TIP3 H2   HT     0.417000        1.0080           0
    3557 WT1  901  TIP3 OH2  OT    -0.834000       15.9994           0
    3558 WT1  901  TIP3 H1   HT     0.417000        1.0080           0
    3559 WT1  901  TIP3 H2   HT     0.417000        1.0080           0
    3560 WT1  902  TIP3 OH2  OT    -0.834000       15.9994           0
    3561 WT1  902  TIP3 H1   HT     0.417000        1.0080           0
    3562 WT1  902  TIP3 H2   HT     0.417000        1.0080           0
    3563 WT1  903  TIP3 OH2  OT    -0.834000       15.9994           0
    3564 WT1  903  TIP3 H1   HT     0.417000        1.0080           0
    3565 WT1  903  TIP3 H2   HT     0.417000        1.0080           0
    3566 WT1  904  TIP3 OH2  OT    -0.834000       15.9994           0
    3567 WT1  904  TIP3 H1   HT     0.417000        1.0080           0
    3568 WT1  904  TIP3 H2   HT     0.417000        1.0080           0
    3569 WT1  905  TIP3 OH2  OT    -0.834000       15.9994           0
    3570 WT1  905  TIP3 H1   HT     0.417000        1.0080           0
    3571 WT1  905  TIP3 H2   HT     0.417000        1.0080           0
    3572 WT1  906  TIP3 OH2  OT    -0.834000       15.9994           0
    3573 WT1  906  TIP3 H1   HT     0.417000        1.0080           0
    3574 WT1  906  TIP3 H2   HT     0.417000        1.0080           0
    3575 WT1  907  TIP3 OH2  OT    -0.834000       15.9994           0
    3576 WT1  907  TIP3 H1   HT     0.417000        1.0080           0
    3577 WT1  907  TIP3 H2   HT     0.417000        1.0080           0
    3578 WT1  908  TIP3 OH2  OT    -0.834000       15.9994           0
    3579 WT1  908  TIP3 H1   HT     0.417000        1.0080           0
    3580 WT1  908  TIP3 H2   HT     0.417000        1.0080           0
    3581 WT1  909  TIP3 OH2  OT    -0.834000       15.9994           0
    3582 WT1  909  TIP3 H1   HT     0.417000        1.0080           0
    3583 WT1  909  TIP3 H2   HT     0.417000        1.0080           0
    3584 WT1  910  TIP3 OH2  OT    -0.834000       15.9994           0
    3585 WT1  910  TIP3 H1   HT     0.417000        1.0080           0
    3586 WT1  910  TIP3 H2   HT     0.417000        1.0080           0
    3587 WT1  912  TIP3 OH2  OT    -0.834000       15.9994           0
    3588 WT1  912  TIP3 H1   HT     0.417000        1.0080           0
    3589 WT1  912  TIP3 H2   HT     0.417000        1.0080           0
    3590 WT1  913  TIP3 OH2  OT    -0.834000       15.9994           0
    3591 WT1  913  TIP3 H1   HT     0.417000        1.0080           0
    3592 WT1  913  TIP3 H2   HT     0.417000        1.0080           0
    3593 WT1  914  TIP3 OH2  OT    -0.834000       15.9994           0
    3594 WT1  914  TIP3 H1   HT     0.417000        1.0080           0
    3595 WT1  914  TIP3 H2   HT     0.417000        1.0080           0
    3596 WT1  916  TIP3 OH2  OT    -0.834000       15.9994           0
    3597 WT1  916  TIP3 H1   HT     0.417000        1.0080           0
    3598 WT1  916  TIP3 H2   HT     0.417000        1.0080           0
    3599 WT1  917  TIP3 OH2  OT    -0.834000       15.9994           0
    3600 WT1  917  TIP3 H1   HT     0.417000        1.0080           0
    3601 WT1  917  TIP3 H2   HT     0.417000        1.0080           0
    3602 WT1  918  TIP3 OH2  OT    -0.834000       15.9994           0
    3603 WT1  918  TIP3 H1   HT     0.417000        1.0080           0
    3604 WT1  918  TIP3 H2   HT     0.417000        1.0080           0
    3605 WT1  919  TIP3 OH2  OT    -0.834000       15.9994           0
    3606 WT1  919  TIP3 H1   HT     0.417000        1.0080           0
    3607 WT1  919  TIP3 H2   HT     0.417000        1.0080           0
    3608 WT1  920  TIP3 OH2  OT    -0.834000       15.9994           0
    3609 WT1  920  TIP3 H1   HT     0.417000        1.0080           0
    3610 WT1  920  TIP3 H2   HT     0.417000        1.0080           0
    3611 WT1  921  TIP3 OH2  OT    -0.834000       15.9994           0
    3612 WT1  921  TIP3 H1   HT     0.417000        1.0080           0
    3613 WT1  921  TIP3 H2   HT     0.417000        1.0080           0
    3614 WT1  923  TIP3 OH2  OT    -0.834000       15.9994           0
    3615 WT1  923  TIP3 H1   HT     0.417000        1.0080           0
    3616 WT1  923  TIP3 H2   HT     0.417000        1.0080           0
    3617 WT1  924  TIP3 OH2  OT    -0.834000       15.9994           0
    3618 WT1  924  TIP3 H1   HT     0.417000        1.0080           0
    3619 WT1  924  TIP3 H2   HT     0.417000        1.0080           0
    3620 WT1  925  TIP3 OH2  OT    -0.834000       15.9994           0
    3621 WT1  925  TIP3 H1   HT     0.417000        1.0080           0
    3622 WT1  925  TIP3 H2   HT     0.417000        1.0080           0
    3623 WT1  926  TIP3 OH2  OT    -0.834000       15.9994           0
    3624 WT1  926  TIP3 H1   HT     0.417000        1.0080           0
    3625 WT1  926  TIP3 H2   HT     0.417000        1.0080           0
    3626 WT1  928  TIP3 OH2  OT    -0.834000       15.9994           0
    3627 WT1  928  TIP3 H1   HT     0.417000        1.0080           0
    3628 WT1  928  TIP3 H2   HT     0.417000        1.0080           0
    3629 WT1  930  TIP3 OH2  OT    -0.834000       15.9994           0
    3630 WT1  930  TIP3 H1   HT     0.417000        1.0080           0
    3631 WT1  930  TIP3 H2   HT     0.417000        1.0080           0
    3632 WT1  931  TIP3 OH2  OT    -0.834000       15.9994           0
    3633 WT1  931  TIP3 H1   HT     0.417000        1.0080           0
    3634 WT1  931  TIP3 H2   HT     0.417000        1.0080           0
    3635 WT1  932  TIP3 OH2  OT    -0.834000       15.9994           0
    3636 WT1  932  TIP3 H1   HT     0.417000        1.0080           0
    3637 WT1  932  TIP3 H2   HT     0.417000        1.0080           0
    3638 WT1  933  TIP3 OH2  OT    -0.834000       15.9994           0
    3639 WT1  933  TIP3 H1   HT     0.417000        1.0080           0
    3640 WT1  933  TIP3 H2   HT     0.417000        1.0080           0
    3641 WT1  934  TIP3 OH2  OT    -0.834000       15.9994           0
    3642 WT1  934  TIP3 H1   HT     0.417000        1.0080           0
    3643 WT1  934  TIP3 H2   HT     0.417000        1.0080           0
    3644 WT1  935  TIP3 OH2  OT    -0.834000       15.9994           0
    3645 WT1  935  TIP3 H1   HT     0.417000        1.0080           0
    3646 WT1  935  TIP3 H2   HT     0.417000        1.0080           0
    3647 WT1  936  TIP3 OH2  OT    -0.834000       15.9994           0
    3648 WT1  936  TIP3 H1   HT     0.417000        1.0080           0
    3649 WT1  936  TIP3 H2   HT     0.417000        1.0080           0
    3650 WT1  937  TIP3 OH2  OT    -0.834000       15.9994           0
    3651 WT1  937  TIP3 H1   HT     0.417000        1.0080           0
    3652 WT1  937  TIP3 H2   HT     0.417000        1.0080           0
    3653 WT1  940  TIP3 OH2  OT    -0.834000       15.9994           0
    3654 WT1  940  TIP3 H1   HT     0.417000        1.0080           0
    3655 WT1  940  TIP3 H2   HT     0.417000        1.0080           0
    3656 WT1  941  TIP3 OH2  OT    -0.834000       15.9994           0
    3657 WT1  941  TIP3 H1   HT     0.417000        1.0080           0
    3658 WT1  941  TIP3 H2   HT     0.417000        1.0080           0
    3659 WT1  942  TIP3 OH2  OT    -0.834000       15.9994           0
    3660 WT1  942  TIP3 H1   HT     0.417000        1.0080           0
    3661 WT1  942  TIP3 H2   HT     0.417000        1.0080           0
    3662 WT1  943  TIP3 OH2  OT    -0.834000       15.9994           0
    3663 WT1  943  TIP3 H1   HT     0.417000        1.0080           0
    3664 WT1  943  TIP3 H2   HT     0.417000        1.0080           0
    3665 WT1  944  TIP3 OH2  OT    -0.834000       15.9994           0
    3666 WT1  944  TIP3 H1   HT     0.417000        1.0080           0
    3667 WT1  944  TIP3 H2   HT     0.417000        1.0080           0
    3668 WT1  945  TIP3 OH2  OT    -0.834000       15.9994           0
    3669 WT1  945  TIP3 H1   HT     0.417000        1.0080           0
    3670 WT1  945  TIP3 H2   HT     0.417000        1.0080           0
    3671 WT1  947  TIP3 OH2  OT    -0.834000       15.9994           0
    3672 WT1  947  TIP3 H1   HT     0.417000        1.0080           0
    3673 WT1  947  TIP3 H2   HT     0.417000        1.0080           0
    3674 WT1  948  TIP3 OH2  OT    -0.834000       15.9994           0
    3675 WT1  948  TIP3 H1   HT     0.417000        1.0080           0
    3676 WT1  948  TIP3 H2   HT     0.417000        1.0080           0
    3677 WT1  949  TIP3 OH2  OT    -0.834000       15.9994           0
    3678 WT1  949  TIP3 H1   HT     0.417000        1.0080           0
    3679 WT1  949  TIP3 H2   HT     0.417000        1.0080           0
    3680 WT1  950  TIP3 OH2  OT    -0.834000       15.9994           0
    3681 WT1  950  TIP3 H1   HT     0.417000        1.0080           0
    3682 WT1  950  TIP3 H2   HT     0.417000        1.0080           0
    3683 WT1  951  TIP3 OH2  OT    -0.834000       15.9994           0
    3684 WT1  951  TIP3 H1   HT     0.417000        1.0080           0
    3685 WT1  951  TIP3 H2   HT     0.417000        1.0080           0
    3686 WT1  952  TIP3 OH2  OT    -0.834000       15.9994           0
    3687 WT1  952  TIP3 H1   HT     0.417000        1.0080           0
    3688 WT1  952  TIP3 H2   HT     0.417000        1.0080           0
    3689 WT1  954  TIP3 OH2  OT    -0.834000       15.9994           0
    3690 WT1  954  TIP3 H1   HT     0.417000        1.0080           0
    3691 WT1  954  TIP3 H2   HT     0.417000        1.0080           0
    3692 WT1  955  TIP3 OH2  OT    -0.834000       15.9994           0
    3693 WT1  955  TIP3 H1   HT     0.417000        1.0080           0
    3694 WT1  955  TIP3 H2   HT     0.417000        1.0080           0
    3695 WT1  956  TIP3 OH2  OT    -0.834000       15.9994           0
    3696 WT1  956  TIP3 H1   HT     0.417000        1.0080           0
    3697 WT1  956  TIP3 H2   HT     0.417000        1.0080           0
    3698 WT1  957  TIP3 OH2  OT    -0.834000       15.9994           0
    3699 WT1  957  TIP3 H1   HT     0.417000        1.0080           0
    3700 WT1  957  TIP3 H2   HT     0.417000        1.0080           0
    3701 WT1  958  TIP3 OH2  OT    -0.834000       15.9994           0
    3702 WT1  958  TIP3 H1   HT     0.417000        1.0080           0
    3703 WT1  958  TIP3 H2   HT     0.417000        1.0080           0
    3704 WT1  959  TIP3 OH2  OT    -0.834000       15.9994           0
    3705 WT1  959  TIP3 H1   HT     0.417000        1.0080           0
    3706 WT1  959  TIP3 H2   HT     0.417000        1.0080           0
    3707 WT1  960  TIP3 OH2  OT    -0.834000       15.9994           0
    3708 WT1  960  TIP3 H1   HT     0.417000        1.0080           0
    3709 WT1  960  TIP3 H2   HT     0.417000        1.0080           0
    3710 WT1  961  TIP3 OH2  OT    -0.834000       15.9994           0
    3711 WT1  961  TIP3 H1   HT     0.417000        1.0080           0
    3712 WT1  961  TIP3 H2   HT     0.417000        1.0080           0
    3713 WT1  962  TIP3 OH2  OT    -0.834000       15.9994           0
    3714 WT1  962  TIP3 H1   HT     0.417000        1.0080           0
    3715 WT1  962  TIP3 H2   HT     0.417000        1.0080           0
    3716 WT1  963  TIP3 OH2  OT    -0.834000       15.9994           0
    3717 WT1  963  TIP3 H1   HT     0.417000        1.0080           0
    3718 WT1  963  TIP3 H2   HT     0.417000        1.0080           0
    3719 WT1  964  TIP3 OH2  OT    -0.834000       15.9994           0
    3720 WT1  964  TIP3 H1   HT     0.417000        1.0080           0
    3721 WT1  964  TIP3 H2   HT     0.417000        1.0080           0
    3722 WT1  965  TIP3 OH2  OT    -0.834000       15.9994           0
    3723 WT1  965  TIP3 H1   HT     0.417000        1.0080           0
    3724 WT1  965  TIP3 H2   HT     0.417000        1.0080           0
    3725 WT1  966  TIP3 OH2  OT    -0.834000       15.9994           0
    3726 WT1  966  TIP3 H1   HT     0.417000        1.0080           0
    3727 WT1  966  TIP3 H2   HT     0.417000        1.0080           0
    3728 WT1  967  TIP3 OH2  OT    -0.834000       15.9994           0
    3729 WT1  967  TIP3 H1   HT     0.417000        1.0080           0
    3730 WT1  967  TIP3 H2   HT     0.417000        1.0080           0
    3731 WT1  968  TIP3 OH2  OT    -0.834000       15.9994           0
    3732 WT1  968  TIP3 H1   HT     0.417000        1.0080           0
    3733 WT1  968  TIP3 H2   HT     0.417000        1.0080           0
    3734 WT1  969  TIP3 OH2  OT    -0.834000       15.9994           0
    3735 WT1  969  TIP3 H1   HT     0.417000        1.0080           0
    3736 WT1  969  TIP3 H2   HT     0.417000        1.0080           0
    3737 WT1  971  TIP3 OH2  OT    -0.834000       15.9994           0
    3738 WT1  971  TIP3 H1   HT     0.417000        1.0080           0
    3739 WT1  971  TIP3 H2   HT     0.417000        1.0080           0
    3740 WT1  972  TIP3 OH2  OT    -0.834000       15.9994           0
    3741 WT1  972  TIP3 H1   HT     0.417000        1.0080           0
    3742 WT1  972  TIP3 H2   HT     0.417000        1.0080           0
    3743 WT1  973  TIP3 OH2  OT    -0.834000       15.9994           0
    3744 WT1  973  TIP3 H1   HT     0.417000        1.0080           0
    3745 WT1  973  TIP3 H2   HT     0.417000        1.0080           0
    3746 WT1  974  TIP3 OH2  OT    -0.834000       15.9994           0
    3747 WT1  974  TIP3 H1   HT     0.417000        1.0080           0
    3748 WT1  974  TIP3 H2   HT     0.417000        1.0080           0
    3749 WT1  975  TIP3 OH2  OT    -0.834000       15.9994           0
    3750 WT1  975  TIP3 H1   HT     0.417000        1.0080           0
    3751 WT1  975  TIP3 H2   HT     0.417000        1.0080           0
    3752 WT1  976  TIP3 OH2  OT    -0.834000       15.9994           0
    3753 WT1  976  TIP3 H1   HT     0.417000        1.0080           0
    3754 WT1  976  TIP3 H2   HT     0.417000        1.0080           0
    3755 WT1  977  TIP3 OH2  OT    -0.834000       15.9994           0
    3756 WT1  977  TIP3 H1   HT     0.417000        1.0080           0
    3757 WT1  977  TIP3 H2   HT     0.417000        1.0080           0
    3758 WT1  978  TIP3 OH2  OT    -0.834000       15.9994           0
    3759 WT1  978  TIP3 H1   HT     0.417000        1.0080           0
    3760 WT1  978  TIP3 H2   HT     0.417000        1.0080           0
    3761 WT1  979  TIP3 OH2  OT    -0.834000       15.9994           0
    3762 WT1  979  TIP3 H1   HT     0.417000        1.0080           0
    3763 WT1  979  TIP3 H2   HT     0.417000        1.0080           0
    3764 WT1  980  TIP3 OH2  OT    -0.834000       15.9994           0
    3765 WT1  980  TIP3 H1   HT     0.417000        1.0080           0
    3766 WT1  980  TIP3 H2   HT     0.417000        1.0080           0
    3767 WT1  982  TIP3 OH2  OT    -0.834000       15.9994           0
    3768 WT1  982  TIP3 H1   HT     0.417000        1.0080           0
    3769 WT1  982  TIP3 H2   HT     0.417000        1.0080           0
    3770 WT1  983  TIP3 OH2  OT    -0.834000       15.9994           0
    3771 WT1  983  TIP3 H1   HT     0.417000        1.0080           0
    3772 WT1  983  TIP3 H2   HT     0.417000        1.0080           0
    3773 WT1  984  TIP3 OH2  OT    -0.834000       15.9994           0
    3774 WT1  984  TIP3 H1   HT     0.417000        1.0080           0
    3775 WT1  984  TIP3 H2   HT     0.417000        1.0080           0
    3776 WT1  985  TIP3 OH2  OT    -0.834000       15.9994           0
    3777 WT1  985  TIP3 H1   HT     0.417000        1.0080           0
    3778 WT1  985  TIP3 H2   HT     0.417000        1.0080           0
    3779 WT1  988  TIP3 OH2  OT    -0.834000       15.9994           0
    3780 WT1  988  TIP3 H1   HT     0.417000        1.0080           0
    3781 WT1  988  TIP3 H2   HT     0.417000        1.0080           0
    3782 WT1  989  TIP3 OH2  OT    -0.834000       15.9994           0
    3783 WT1  989  TIP3 H1   HT     0.417000        1.0080           0
    3784 WT1  989  TIP3 H2   HT     0.417000        1.0080           0
    3785 WT1  990  TIP3 OH2  OT    -0.834000       15.9994           0
    3786 WT1  990  TIP3 H1   HT     0.417000        1.0080           0
    3787 WT1  990  TIP3 H2   HT     0.417000        1.0080           0
    3788 WT1  991  TIP3 OH2  OT    -0.834000       15.9994           0
    3789 WT1  991  TIP3 H1   HT     0.417000        1.0080           0
    3790 WT1  991  TIP3 H2   HT     0.417000        1.0080           0
    3791 WT1  992  TIP3 OH2  OT    -0.834000       15.9994           0
    3792 WT1  992  TIP3 H1   HT     0.417000        1.0080           0
    3793 WT1  992  TIP3 H2   HT     0.417000        1.0080           0
    3794 WT1  994  TIP3 OH2  OT    -0.834000       15.9994           0
    3795 WT1  994  TIP3 H1   HT     0.417000        1.0080           0
    3796 WT1  994  TIP3 H2   HT     0.417000        1.0080           0
    3797 WT1  995  TIP3 OH2  OT    -0.834000       15.9994           0
    3798 WT1  995  TIP3 H1   HT     0.417000        1.0080           0
    3799 WT1  995  TIP3 H2   HT     0.417000        1.0080           0
    3800 WT1  996  TIP3 OH2  OT    -0.834000       15.9994           0
    3801 WT1  996  TIP3 H1   HT     0.417000        1.0080           0
    3802 WT1  996  TIP3 H2   HT     0.417000        1.0080           0
    3803 WT1  998  TIP3 OH2  OT    -0.834000       15.9994           0
    3804 WT1  998  TIP3 H1   HT     0.417000        1.0080           0
    3805 WT1  998  TIP3 H2   HT     0.417000        1.0080           0
    3806 WT1  999  TIP3 OH2  OT    -0.834000       15.9994           0
    3807 WT1  999  TIP3 H1   HT     0.417000        1.0080           0
    3808 WT1  999  TIP3 H2   HT     0.417000        1.0080           0
    3809 WT1  1000 TIP3 OH2  OT    -0.834000       15.9994           0
    3810 WT1  1000 TIP3 H1   HT     0.417000        1.0080           0
    3811 WT1  1000 TIP3 H2   HT     0.417000        1.0080           0
    3812 WT1  1001 TIP3 OH2  OT    -0.834000       15.9994           0
    3813 WT1  1001 TIP3 H1   HT     0.417000        1.0080           0
    3814 WT1  1001 TIP3 H2   HT     0.417000        1.0080           0
    3815 WT1  1002 TIP3 OH2  OT    -0.834000       15.9994           0
    3816 WT1  1002 TIP3 H1   HT     0.417000        1.0080           0
    3817 WT1  1002 TIP3 H2   HT     0.417000        1.0080           0
    3818 WT1  1003 TIP3 OH2  OT    -0.834000       15.9994           0
    3819 WT1  1003 TIP3 H1   HT     0.417000        1.0080           0
    3820 WT1  1003 TIP3 H2   HT     0.417000        1.0080           0
    3821 WT1  1004 TIP3 OH2  OT    -0.834000       15.9994           0
    3822 WT1  1004 TIP3 H1   HT     0.417000        1.0080           0
    3823 WT1  1004 TIP3 H2   HT     0.417000        1.0080           0
    3824 WT1  1005 TIP3 OH2  OT    -0.834000       15.9994           0
    3825 WT1  1005 TIP3 H1   HT     0.417000        1.0080           0
    3826 WT1  1005 TIP3 H2   HT     0.417000        1.0080           0
    3827 WT1  1006 TIP3 OH2  OT    -0.834000       15.9994           0
    3828 WT1  1006 TIP3 H1   HT     0.417000        1.0080           0
    3829 WT1  1006 TIP3 H2   HT     0.417000        1.0080           0
    3830 WT1  1007 TIP3 OH2  OT    -0.834000       15.9994           0
    3831 WT1  1007 TIP3 H1   HT     0.417000        1.0080           0
    3832 WT1  1007 TIP3 H2   HT     0.417000        1.0080           0
    3833 WT1  1008 TIP3 OH2  OT    -0.834000       15.9994           0
    3834 WT1  1008 TIP3 H1   HT     0.417000        1.0080           0
    3835 WT1  1008 TIP3 H2   HT     0.417000        1.0080           0
    3836 WT1  1009 TIP3 OH2  OT    -0.834000       15.9994           0
    3837 WT1  1009 TIP3 H1   HT     0.417000        1.0080           0
    3838 WT1  1009 TIP3 H2   HT     0.417000        1.0080           0
    3839 WT1  1010 TIP3 OH2  OT    -0.834000       15.9994           0
    3840 WT1  1010 TIP3 H1   HT     0.417000        1.0080           0
    3841 WT1  1010 TIP3 H2   HT     0.417000        1.0080           0
    3842 WT1  1011 TIP3 OH2  OT    -0.834000       15.9994           0
    3843 WT1  1011 TIP3 H1   HT     0.417000        1.0080           0
    3844 WT1  1011 TIP3 H2   HT     0.417000        1.0080           0
    3845 WT1  1012 TIP3 OH2  OT    -0.834000       15.9994           0
    3846 WT1  1012 TIP3 H1   HT     0.417000        1.0080           0
    3847 WT1  1012 TIP3 H2   HT     0.417000        1.0080           0
    3848 WT1  1013 TIP3 OH2  OT    -0.834000       15.9994           0
    3849 WT1  1013 TIP3 H1   HT     0.417000        1.0080           0
    3850 WT1  1013 TIP3 H2   HT     0.417000        1.0080           0
    3851 WT1  1014 TIP3 OH2  OT    -0.834000       15.9994           0
    3852 WT1  1014 TIP3 H1   HT     0.417000        1.0080           0
    3853 WT1  1014 TIP3 H2   HT     0.417000        1.0080           0
    3854 WT1  1015 TIP3 OH2  OT    -0.834000       15.9994           0
    3855 WT1  1015 TIP3 H1   HT     0.417000        1.0080           0
    3856 WT1  1015 TIP3 H2   HT     0.417000        1.0080           0
    3857 WT1  1016 TIP3 OH2  OT    -0.834000       15.9994           0
    3858 WT1  1016 TIP3 H1   HT     0.417000        1.0080           0
    3859 WT1  1016 TIP3 H2   HT     0.417000        1.0080           0
    3860 WT1  1017 TIP3 OH2  OT    -0.834000       15.9994           0
    3861 WT1  1017 TIP3 H1   HT     0.417000        1.0080           0
    3862 WT1  1017 TIP3 H2   HT     0.417000        1.0080           0
    3863 WT1  1020 TIP3 OH2  OT    -0.834000       15.9994           0
    3864 WT1  1020 TIP3 H1   HT     0.417000        1.0080           0
    3865 WT1  1020 TIP3 H2   HT     0.417000        1.0080           0
    3866 WT1  1021 TIP3 OH2  OT    -0.834000       15.9994           0
    3867 WT1  1021 TIP3 H1   HT     0.417000        1.0080           0
    3868 WT1  1021 TIP3 H2   HT     0.417000        1.0080           0
    3869 WT1  1022 TIP3 OH2  OT    -0.834000       15.9994           0
    3870 WT1  1022 TIP3 H1   HT     0.417000        1.0080           0
    3871 WT1  1022 TIP3 H2   HT     0.417000        1.0080           0
    3872 WT1  1023 TIP3 OH2  OT    -0.834000       15.9994           0
    3873 WT1  1023 TIP3 H1   HT     0.417000        1.0080           0
    3874 WT1  1023 TIP3 H2   HT     0.417000        1.0080           0
    3875 WT1  1025 TIP3 OH2  OT    -0.834000       15.9994           0
    3876 WT1  1025 TIP3 H1   HT     0.417000        1.0080           0
    3877 WT1  1025 TIP3 H2   HT     0.417000        1.0080           0
    3878 WT1  1026 TIP3 OH2  OT    -0.834000       15.9994           0
    3879 WT1  1026 TIP3 H1   HT     0.417000        1.0080           0
    3880 WT1  1026 TIP3 H2   HT     0.417000        1.0080           0
    3881 WT1  1027 TIP3 OH2  OT    -0.834000       15.9994           0
    3882 WT1  1027 TIP3 H1   HT     0.417000        1.0080           0
    3883 WT1  1027 TIP3 H2   HT     0.417000        1.0080           0
    3884 WT1  1030 TIP3 OH2  OT    -0.834000       15.9994           0
    3885 WT1  1030 TIP3 H1   HT     0.417000        1.0080           0
    3886 WT1  1030 TIP3 H2   HT     0.417000        1.0080           0
    3887 WT1  1031 TIP3 OH2  OT    -0.834000       15.9994           0
    3888 WT1  1031 TIP3 H1   HT     0.417000        1.0080           0
    3889 WT1  1031 TIP3 H2   HT     0.417000        1.0080           0
    3890 WT1  1033 TIP3 OH2  OT    -0.834000       15.9994           0
    3891 WT1  1033 TIP3 H1   HT     0.417000        1.0080           0
    3892 WT1  1033 TIP3 H2   HT     0.417000        1.0080           0
    3893 WT1  1035 TIP3 OH2  OT    -0.834000       15.9994           0
    3894 WT1  1035 TIP3 H1   HT     0.417000        1.0080           0
    3895 WT1  1035 TIP3 H2   HT     0.417000        1.0080           0
    3896 WT1  1036 TIP3 OH2  OT    -0.834000       15.9994           0
    3897 WT1  1036 TIP3 H1   HT     0.417000        1.0080           0
    3898 WT1  1036 TIP3 H2   HT     0.417000        1.0080           0
    3899 WT1  1037 TIP3 OH2  OT    -0.834000       15.9994           0
    3900 WT1  1037 TIP3 H1   HT     0.417000        1.0080           0
    3901 WT1  1037 TIP3 H2   HT     0.417000        1.0080           0
    3902 WT1  1038 TIP3 OH2  OT    -0.834000       15.9994           0
    3903 WT1  1038 TIP3 H1   HT     0.417000        1.0080           0
    3904 WT1  1038 TIP3 H2   HT     0.417000        1.0080           0
    3905 WT1  1039 TIP3 OH2  OT    -0.834000       15.9994           0
    3906 WT1  1039 TIP3 H1   HT     0.417000        1.0080           0
    3907 WT1  1039 TIP3 H2   HT     0.417000        1.0080           0
    3908 WT1  1040 TIP3 OH2  OT    -0.834000       15.9994           0
    3909 WT1  1040 TIP3 H1   HT     0.417000        1.0080           0
    3910 WT1  1040 TIP3 H2   HT     0.417000        1.0080           0
    3911 WT1  1042 TIP3 OH2  OT    -0.834000       15.9994           0
    3912 WT1  1042 TIP3 H1   HT     0.417000        1.0080           0
    3913 WT1  1042 TIP3 H2   HT     0.417000        1.0080           0
    3914 WT1  1043 TIP3 OH2  OT    -0.834000       15.9994           0
    3915 WT1  1043 TIP3 H1   HT     0.417000        1.0080           0
    3916 WT1  1043 TIP3 H2   HT     0.417000        1.0080           0
    3917 WT1  1044 TIP3 OH2  OT    -0.834000       15.9994           0
    3918 WT1  1044 TIP3 H1   HT     0.417000        1.0080           0
    3919 WT1  1044 TIP3 H2   HT     0.417000        1.0080           0
    3920 WT1  1045 TIP3 OH2  OT    -0.834000       15.9994           0
    3921 WT1  1045 TIP3 H1   HT     0.417000        1.0080           0
    3922 WT1  1045 TIP3 H2   HT     0.417000        1.0080           0
    3923 WT1  1047 TIP3 OH2  OT    -0.834000       15.9994           0
    3924 WT1  1047 TIP3 H1   HT     0.417000        1.0080           0
    3925 WT1  1047 TIP3 H2   HT     0.417000        1.0080           0
    3926 WT1  1048 TIP3 OH2  OT    -0.834000       15.9994           0
    3927 WT1  1048 TIP3 H1   HT     0.417000        1.0080           0
    3928 WT1  1048 TIP3 H2   HT     0.417000        1.0080           0
    3929 WT1  1049 TIP3 OH2  OT    -0.834000       15.9994           0
    3930 WT1  1049 TIP3 H1   HT     0.417000        1.0080           0
    3931 WT1  1049 TIP3 H2   HT     0.417000        1.0080           0
    3932 WT1  1050 TIP3 OH2  OT    -0.834000       15.9994           0
    3933 WT1  1050 TIP3 H1   HT     0.417000        1.0080           0
    3934 WT1  1050 TIP3 H2   HT     0.417000        1.0080           0
    3935 WT1  1052 TIP3 OH2  OT    -0.834000       15.9994           0
    3936 WT1  1052 TIP3 H1   HT     0.417000        1.0080           0
    3937 WT1  1052 TIP3 H2   HT     0.417000        1.0080           0
    3938 WT1  1053 TIP3 OH2  OT    -0.834000       15.9994           0
    3939 WT1  1053 TIP3 H1   HT     0.417000        1.0080           0
    3940 WT1  1053 TIP3 H2   HT     0.417000        1.0080           0
    3941 WT1  1054 TIP3 OH2  OT    -0.834000       15.9994           0
    3942 WT1  1054 TIP3 H1   HT     0.417000        1.0080           0
    3943 WT1  1054 TIP3 H2   HT     0.417000        1.0080           0
    3944 WT1  1055 TIP3 OH2  OT    -0.834000       15.9994           0
    3945 WT1  1055 TIP3 H1   HT     0.417000        1.0080           0
    3946 WT1  1055 TIP3 H2   HT     0.417000        1.0080           0
    3947 WT1  1056 TIP3 OH2  OT    -0.834000       15.9994           0
    3948 WT1  1056 TIP3 H1   HT     0.417000        1.0080           0
    3949 WT1  1056 TIP3 H2   HT     0.417000        1.0080           0
    3950 WT1  1057 TIP3 OH2  OT    -0.834000       15.9994           0
    3951 WT1  1057 TIP3 H1   HT     0.417000        1.0080           0
    3952 WT1  1057 TIP3 H2   HT     0.417000        1.0080           0
    3953 WT1  1059 TIP3 OH2  OT    -0.834000       15.9994           0
    3954 WT1  1059 TIP3 H1   HT     0.417000        1.0080           0
    3955 WT1  1059 TIP3 H2   HT     0.417000        1.0080           0
    3956 WT1  1060 TIP3 OH2  OT    -0.834000       15.9994           0
    3957 WT1  1060 TIP3 H1   HT     0.417000        1.0080           0
    3958 WT1  1060 TIP3 H2   HT     0.417000        1.0080           0
    3959 WT1  1061 TIP3 OH2  OT    -0.834000       15.9994           0
    3960 WT1  1061 TIP3 H1   HT     0.417000        1.0080           0
    3961 WT1  1061 TIP3 H2   HT     0.417000        1.0080           0
    3962 WT1  1062 TIP3 OH2  OT    -0.834000       15.9994           0
    3963 WT1  1062 TIP3 H1   HT     0.417000        1.0080           0
    3964 WT1  1062 TIP3 H2   HT     0.417000        1.0080           0
    3965 WT1  1064 TIP3 OH2  OT    -0.834000       15.9994           0
    3966 WT1  1064 TIP3 H1   HT     0.417000        1.0080           0
    3967 WT1  1064 TIP3 H2   HT     0.417000        1.0080           0
    3968 WT1  1066 TIP3 OH2  OT    -0.834000       15.9994           0
    3969 WT1  1066 TIP3 H1   HT     0.417000        1.0080           0
    3970 WT1  1066 TIP3 H2   HT     0.417000        1.0080           0
    3971 WT1  1067 TIP3 OH2  OT    -0.834000       15.9994           0
    3972 WT1  1067 TIP3 H1   HT     0.417000        1.0080           0
    3973 WT1  1067 TIP3 H2   HT     0.417000        1.0080           0
    3974 WT1  1068 TIP3 OH2  OT    -0.834000       15.9994           0
    3975 WT1  1068 TIP3 H1   HT     0.417000        1.0080           0
    3976 WT1  1068 TIP3 H2   HT     0.417000        1.0080           0
    3977 WT1  1069 TIP3 OH2  OT    -0.834000       15.9994           0
    3978 WT1  1069 TIP3 H1   HT     0.417000        1.0080           0
    3979 WT1  1069 TIP3 H2   HT     0.417000        1.0080           0
    3980 WT1  1071 TIP3 OH2  OT    -0.834000       15.9994           0
    3981 WT1  1071 TIP3 H1   HT     0.417000        1.0080           0
    3982 WT1  1071 TIP3 H2   HT     0.417000        1.0080           0
    3983 WT1  1072 TIP3 OH2  OT    -0.834000       15.9994           0
    3984 WT1  1072 TIP3 H1   HT     0.417000        1.0080           0
    3985 WT1  1072 TIP3 H2   HT     0.417000        1.0080           0
    3986 WT1  1073 TIP3 OH2  OT    -0.834000       15.9994           0
    3987 WT1  1073 TIP3 H1   HT     0.417000        1.0080           0
    3988 WT1  1073 TIP3 H2   HT     0.417000        1.0080           0
    3989 WT1  1074 TIP3 OH2  OT    -0.834000       15.9994           0
    3990 WT1  1074 TIP3 H1   HT     0.417000        1.0080           0
    3991 WT1  1074 TIP3 H2   HT     0.417000        1.0080           0
    3992 WT1  1076 TIP3 OH2  OT    -0.834000       15.9994           0
    3993 WT1  1076 TIP3 H1   HT     0.417000        1.0080           0
    3994 WT1  1076 TIP3 H2   HT     0.417000        1.0080           0
    3995 WT1  1077 TIP3 OH2  OT    -0.834000       15.9994           0
    3996 WT1  1077 TIP3 H1   HT     0.417000        1.0080           0
    3997 WT1  1077 TIP3 H2   HT     0.417000        1.0080           0
    3998 WT1  1078 TIP3 OH2  OT    -0.834000       15.9994           0
    3999 WT1  1078 TIP3 H1   HT     0.417000        1.0080           0
    4000 WT1  1078 TIP3 H2   HT     0.417000        1.0080           0
    4001 WT1  1079 TIP3 OH2  OT    -0.834000       15.9994           0
    4002 WT1  1079 TIP3 H1   HT     0.417000        1.0080           0
    4003 WT1  1079 TIP3 H2   HT     0.417000        1.0080           0
    4004 WT1  1080 TIP3 OH2  OT    -0.834000       15.9994           0
    4005 WT1  1080 TIP3 H1   HT     0.417000        1.0080           0
    4006 WT1  1080 TIP3 H2   HT     0.417000        1.0080           0
    4007 WT1  1081 TIP3 OH2  OT    -0.834000       15.9994           0
    4008 WT1  1081 TIP3 H1   HT     0.417000        1.0080           0
    4009 WT1  1081 TIP3 H2   HT     0.417000        1.0080           0
    4010 WT1  1082 TIP3 OH2  OT    -0.834000       15.9994           0
    4011 WT1  1082 TIP3 H1   HT     0.417000        1.0080           0
    4012 WT1  1082 TIP3 H2   HT     0.417000        1.0080           0
    4013 WT1  1084 TIP3 OH2  OT    -0.834000       15.9994           0
    4014 WT1  1084 TIP3 H1   HT     0.417000        1.0080           0
    4015 WT1  1084 TIP3 H2   HT     0.417000        1.0080           0
    4016 WT1  1085 TIP3 OH2  OT    -0.834000       15.9994           0
    4017 WT1  1085 TIP3 H1   HT     0.417000        1.0080           0
    4018 WT1  1085 TIP3 H2   HT     0.417000        1.0080           0
    4019 WT1  1086 TIP3 OH2  OT    -0.834000       15.9994           0
    4020 WT1  1086 TIP3 H1   HT     0.417000        1.0080           0
    4021 WT1  1086 TIP3 H2   HT     0.417000        1.0080           0
    4022 WT1  1087 TIP3 OH2  OT    -0.834000       15.9994           0
    4023 WT1  1087 TIP3 H1   HT     0.417000        1.0080           0
    4024 WT1  1087 TIP3 H2   HT     0.417000        1.0080           0
    4025 WT1  1088 TIP3 OH2  OT    -0.834000       15.9994           0
    4026 WT1  1088 TIP3 H1   HT     0.417000        1.0080           0
    4027 WT1  1088 TIP3 H2   HT     0.417000        1.0080           0
    4028 WT1  1089 TIP3 OH2  OT    -0.834000       15.9994           0
    4029 WT1  1089 TIP3 H1   HT     0.417000        1.0080           0
    4030 WT1  1089 TIP3 H2   HT     0.417000        1.0080           0
    4031 WT1  1091 TIP3 OH2  OT    -0.834000       15.9994           0
    4032 WT1  1091 TIP3 H1   HT     0.417000        1.0080           0
    4033 WT1  1091 TIP3 H2   HT     0.417000        1.0080           0
    4034 WT1  1092 TIP3 OH2  OT    -0.834000       15.9994           0
    4035 WT1  1092 TIP3 H1   HT     0.417000        1.0080           0
    4036 WT1  1092 TIP3 H2   HT     0.417000        1.0080           0
    4037 WT1  1094 TIP3 OH2  OT    -0.834000       15.9994           0
    4038 WT1  1094 TIP3 H1   HT     0.417000        1.0080           0
    4039 WT1  1094 TIP3 H2   HT     0.417000        1.0080           0
    4040 WT1  1095 TIP3 OH2  OT    -0.834000       15.9994           0
    4041 WT1  1095 TIP3 H1   HT     0.417000        1.0080           0
    4042 WT1  1095 TIP3 H2   HT     0.417000        1.0080           0
    4043 WT1  1098 TIP3 OH2  OT    -0.834000       15.9994           0
    4044 WT1  1098 TIP3 H1   HT     0.417000        1.0080           0
    4045 WT1  1098 TIP3 H2   HT     0.417000        1.0080           0
    4046 WT1  1099 TIP3 OH2  OT    -0.834000       15.9994           0
    4047 WT1  1099 TIP3 H1   HT     0.417000        1.0080           0
    4048 WT1  1099 TIP3 H2   HT     0.417000        1.0080           0
    4049 WT1  1101 TIP3 OH2  OT    -0.834000       15.9994           0
    4050 WT1  1101 TIP3 H1   HT     0.417000        1.0080           0
    4051 WT1  1101 TIP3 H2   HT     0.417000        1.0080           0
    4052 WT1  1102 TIP3 OH2  OT    -0.834000       15.9994           0
    4053 WT1  1102 TIP3 H1   HT     0.417000        1.0080           0
    4054 WT1  1102 TIP3 H2   HT     0.417000        1.0080           0
    4055 WT1  1103 TIP3 OH2  OT    -0.834000       15.9994           0
    4056 WT1  1103 TIP3 H1   HT     0.417000        1.0080           0
    4057 WT1  1103 TIP3 H2   HT     0.417000        1.0080           0
    4058 WT1  1105 TIP3 OH2  OT    -0.834000       15.9994           0
    4059 WT1  1105 TIP3 H1   HT     0.417000        1.0080           0
    4060 WT1  1105 TIP3 H2   HT     0.417000        1.0080           0
    4061 WT1  1106 TIP3 OH2  OT    -0.834000       15.9994           0
    4062 WT1  1106 TIP3 H1   HT     0.417000        1.0080           0
    4063 WT1  1106 TIP3 H2   HT     0.417000        1.0080           0
    4064 WT1  1107 TIP3 OH2  OT    -0.834000       15.9994           0
    4065 WT1  1107 TIP3 H1   HT     0.417000        1.0080           0
    4066 WT1  1107 TIP3 H2   HT     0.417000        1.0080           0
    4067 WT1  1108 TIP3 OH2  OT    -0.834000       15.9994           0
    4068 WT1  1108 TIP3 H1   HT     0.417000        1.0080           0
    4069 WT1  1108 TIP3 H2   HT     0.417000        1.0080           0
    4070 WT1  1109 TIP3 OH2  OT    -0.834000       15.9994           0
    4071 WT1  1109 TIP3 H1   HT     0.417000        1.0080           0
    4072 WT1  1109 TIP3 H2   HT     0.417000        1.0080           0
    4073 WT1  1110 TIP3 OH2  OT    -0.834000       15.9994           0
    4074 WT1  1110 TIP3 H1   HT     0.417000        1.0080           0
    4075 WT1  1110 TIP3 H2   HT     0.417000        1.0080           0
    4076 WT1  1111 TIP3 OH2  OT    -0.834000       15.9994           0
    4077 WT1  1111 TIP3 H1   HT     0.417000        1.0080           0
    4078 WT1  1111 TIP3 H2   HT     0.417000        1.0080           0
    4079 WT1  1112 TIP3 OH2  OT    -0.834000       15.9994           0
    4080 WT1  1112 TIP3 H1   HT     0.417000        1.0080           0
    4081 WT1  1112 TIP3 H2   HT     0.417000        1.0080           0
    4082 WT1  1113 TIP3 OH2  OT    -0.834000       15.9994           0
    4083 WT1  1113 TIP3 H1   HT     0.417000        1.0080           0
    4084 WT1  1113 TIP3 H2   HT     0.417000        1.0080           0
    4085 WT1  1114 TIP3 OH2  OT    -0.834000       15.9994           0
    4086 WT1  1114 TIP3 H1   HT     0.417000        1.0080           0
    4087 WT1  1114 TIP3 H2   HT     0.417000        1.0080           0
    4088 WT1  1115 TIP3 OH2  OT    -0.834000       15.9994           0
    4089 WT1  1115 TIP3 H1   HT     0.417000        1.0080           0
    4090 WT1  1115 TIP3 H2   HT     0.417000        1.0080           0
    4091 WT1  1116 TIP3 OH2  OT    -0.834000       15.9994           0
    4092 WT1  1116 TIP3 H1   HT     0.417000        1.0080           0
    4093 WT1  1116 TIP3 H2   HT     0.417000        1.0080           0
    4094 WT1  1117 TIP3 OH2  OT    -0.834000       15.9994           0
    4095 WT1  1117 TIP3 H1   HT     0.417000        1.0080           0
    4096 WT1  1117 TIP3 H2   HT     0.417000        1.0080           0
    4097 WT1  1119 TIP3 OH2  OT    -0.834000       15.9994           0
    4098 WT1  1119 TIP3 H1   HT     0.417000        1.0080           0
    4099 WT1  1119 TIP3 H2   HT     0.417000        1.0080           0
    4100 WT1  1120 TIP3 OH2  OT    -0.834000       15.9994           0
    4101 WT1  1120 TIP3 H1   HT     0.417000        1.0080           0
    4102 WT1  1120 TIP3 H2   HT     0.417000        1.0080           0
    4103 WT1  1121 TIP3 OH2  OT    -0.834000       15.9994           0
    4104 WT1  1121 TIP3 H1   HT     0.417000        1.0080           0
    4105 WT1  1121 TIP3 H2   HT     0.417000        1.0080           0
    4106 WT1  1122 TIP3 OH2  OT    -0.834000       15.9994           0
    4107 WT1  1122 TIP3 H1   HT     0.417000        1.0080           0
    4108 WT1  1122 TIP3 H2   HT     0.417000        1.0080           0
    4109 WT1  1123 TIP3 OH2  OT    -0.834000       15.9994           0
    4110 WT1  1123 TIP3 H1   HT     0.417000        1.0080           0
    4111 WT1  1123 TIP3 H2   HT     0.417000        1.0080           0
    4112 WT1  1124 TIP3 OH2  OT    -0.834000       15.9994           0
    4113 WT1  1124 TIP3 H1   HT     0.417000        1.0080           0
    4114 WT1  1124 TIP3 H2   HT     0.417000        1.0080           0
    4115 WT1  1125 TIP3 OH2  OT    -0.834000       15.9994           0
    4116 WT1  1125 TIP3 H1   HT     0.417000        1.0080           0
    4117 WT1  1125 TIP3 H2   HT     0.417000        1.0080           0
    4118 WT1  1127 TIP3 OH2  OT    -0.834000       15.9994           0
    4119 WT1  1127 TIP3 H1   HT     0.417000        1.0080           0
    4120 WT1  1127 TIP3 H2   HT     0.417000        1.0080           0
    4121 WT1  1128 TIP3 OH2  OT    -0.834000       15.9994           0
    4122 WT1  1128 TIP3 H1   HT     0.417000        1.0080           0
    4123 WT1  1128 TIP3 H2   HT     0.417000        1.0080           0
    4124 WT1  1129 TIP3 OH2  OT    -0.834000       15.9994           0
    4125 WT1  1129 TIP3 H1   HT     0.417000        1.0080           0
    4126 WT1  1129 TIP3 H2   HT     0.417000        1.0080           0
    4127 WT1  1130 TIP3 OH2  OT    -0.834000       15.9994           0
    4128 WT1  1130 TIP3 H1   HT     0.417000        1.0080           0
    4129 WT1  1130 TIP3 H2   HT     0.417000        1.0080           0
    4130 WT1  1131 TIP3 OH2  OT    -0.834000       15.9994           0
    4131 WT1  1131 TIP3 H1   HT     0.417000        1.0080           0
    4132 WT1  1131 TIP3 H2   HT     0.417000        1.0080           0
    4133 WT1  1132 TIP3 OH2  OT    -0.834000       15.9994           0
    4134 WT1  1132 TIP3 H1   HT     0.417000        1.0080           0
    4135 WT1  1132 TIP3 H2   HT     0.417000        1.0080           0
    4136 WT1  1133 TIP3 OH2  OT    -0.834000       15.9994           0
    4137 WT1  1133 TIP3 H1   HT     0.417000        1.0080           0
    4138 WT1  1133 TIP3 H2   HT     0.417000        1.0080           0
    4139 WT1  1134 TIP3 OH2  OT    -0.834000       15.9994           0
    4140 WT1  1134 TIP3 H1   HT     0.417000        1.0080           0
    4141 WT1  1134 TIP3 H2   HT     0.417000        1.0080           0
    4142 WT1  1136 TIP3 OH2  OT    -0.834000       15.9994           0
    4143 WT1  1136 TIP3 H1   HT     0.417000        1.0080           0
    4144 WT1  1136 TIP3 H2   HT     0.417000        1.0080           0
    4145 WT1  1137 TIP3 OH2  OT    -0.834000       15.9994           0
    4146 WT1  1137 TIP3 H1   HT     0.417000        1.0080           0
    4147 WT1  1137 TIP3 H2   HT     0.417000        1.0080           0
    4148 WT1  1139 TIP3 OH2  OT    -0.834000       15.9994           0
    4149 WT1  1139 TIP3 H1   HT     0.417000        1.0080           0
    4150 WT1  1139 TIP3 H2   HT     0.417000        1.0080           0
    4151 WT1  1140 TIP3 OH2  OT    -0.834000       15.9994           0
    4152 WT1  1140 TIP3 H1   HT     0.417000        1.0080           0
    4153 WT1  1140 TIP3 H2   HT     0.417000        1.0080           0
    4154 WT1  1141 TIP3 OH2  OT    -0.834000       15.9994           0
    4155 WT1  1141 TIP3 H1   HT     0.417000        1.0080           0
    4156 WT1  1141 TIP3 H2   HT     0.417000        1.0080           0
    4157 WT1  1142 TIP3 OH2  OT    -0.834000       15.9994           0
    4158 WT1  1142 TIP3 H1   HT     0.417000        1.0080           0
    4159 WT1  1142 TIP3 H2   HT     0.417000        1.0080           0
    4160 WT1  1143 TIP3 OH2  OT    -0.834000       15.9994           0
    4161 WT1  1143 TIP3 H1   HT     0.417000        1.0080           0
    4162 WT1  1143 TIP3 H2   HT     0.417000        1.0080           0
    4163 WT1  1144 TIP3 OH2  OT    -0.834000       15.9994           0
    4164 WT1  1144 TIP3 H1   HT     0.417000        1.0080           0
    4165 WT1  1144 TIP3 H2   HT     0.417000        1.0080           0
    4166 WT1  1146 TIP3 OH2  OT    -0.834000       15.9994           0
    4167 WT1  1146 TIP3 H1   HT     0.417000        1.0080           0
    4168 WT1  1146 TIP3 H2   HT     0.417000        1.0080           0
    4169 WT1  1147 TIP3 OH2  OT    -0.834000       15.9994           0
    4170 WT1  1147 TIP3 H1   HT     0.417000        1.0080           0
    4171 WT1  1147 TIP3 H2   HT     0.417000        1.0080           0
    4172 WT1  1148 TIP3 OH2  OT    -0.834000       15.9994           0
    4173 WT1  1148 TIP3 H1   HT     0.417000        1.0080           0
    4174 WT1  1148 TIP3 H2   HT     0.417000        1.0080           0
    4175 WT1  1149 TIP3 OH2  OT    -0.834000       15.9994           0
    4176 WT1  1149 TIP3 H1   HT     0.417000        1.0080           0
    4177 WT1  1149 TIP3 H2   HT     0.417000        1.0080           0
    4178 WT1  1150 TIP3 OH2  OT    -0.834000       15.9994           0
    4179 WT1  1150 TIP3 H1   HT     0.417000        1.0080           0
    4180 WT1  1150 TIP3 H2   HT     0.417000        1.0080           0
    4181 WT1  1151 TIP3 OH2  OT    -0.834000       15.9994           0
    4182 WT1  1151 TIP3 H1   HT     0.417000        1.0080           0
    4183 WT1  1151 TIP3 H2   HT     0.417000        1.0080           0
    4184 WT1  1152 TIP3 OH2  OT    -0.834000       15.9994           0
    4185 WT1  1152 TIP3 H1   HT     0.417000        1.0080           0
    4186 WT1  1152 TIP3 H2   HT     0.417000        1.0080           0
    4187 WT1  1153 TIP3 OH2  OT    -0.834000       15.9994           0
    4188 WT1  1153 TIP3 H1   HT     0.417000        1.0080           0
    4189 WT1  1153 TIP3 H2   HT     0.417000        1.0080           0
    4190 WT1  1154 TIP3 OH2  OT    -0.834000       15.9994           0
    4191 WT1  1154 TIP3 H1   HT     0.417000        1.0080           0
    4192 WT1  1154 TIP3 H2   HT     0.417000        1.0080           0
    4193 WT1  1155 TIP3 OH2  OT    -0.834000       15.9994           0
    4194 WT1  1155 TIP3 H1   HT     0.417000        1.0080           0
    4195 WT1  1155 TIP3 H2   HT     0.417000        1.0080           0
    4196 WT1  1157 TIP3 OH2  OT    -0.834000       15.9994           0
    4197 WT1  1157 TIP3 H1   HT     0.417000        1.0080           0
    4198 WT1  1157 TIP3 H2   HT     0.417000        1.0080           0
    4199 WT1  1158 TIP3 OH2  OT    -0.834000       15.9994           0
    4200 WT1  1158 TIP3 H1   HT     0.417000        1.0080           0
    4201 WT1  1158 TIP3 H2   HT     0.417000        1.0080           0
    4202 WT1  1159 TIP3 OH2  OT    -0.834000       15.9994           0
    4203 WT1  1159 TIP3 H1   HT     0.417000        1.0080           0
    4204 WT1  1159 TIP3 H2   HT     0.417000        1.0080           0
    4205 WT1  1160 TIP3 OH2  OT    -0.834000       15.9994           0
    4206 WT1  1160 TIP3 H1   HT     0.417000        1.0080           0
    4207 WT1  1160 TIP3 H2   HT     0.417000        1.0080           0
    4208 WT1  1161 TIP3 OH2  OT    -0.834000       15.9994           0
    4209 WT1  1161 TIP3 H1   HT     0.417000        1.0080           0
    4210 WT1  1161 TIP3 H2   HT     0.417000        1.0080           0
    4211 WT1  1162 TIP3 OH2  OT    -0.834000       15.9994           0
    4212 WT1  1162 TIP3 H1   HT     0.417000        1.0080           0
    4213 WT1  1162 TIP3 H2   HT     0.417000        1.0080           0
    4214 WT1  1163 TIP3 OH2  OT    -0.834000       15.9994           0
    4215 WT1  1163 TIP3 H1   HT     0.417000        1.0080           0
    4216 WT1  1163 TIP3 H2   HT     0.417000        1.0080           0
    4217 WT1  1166 TIP3 OH2  OT    -0.834000       15.9994           0
    4218 WT1  1166 TIP3 H1   HT     0.417000        1.0080           0
    4219 WT1  1166 TIP3 H2   HT     0.417000        1.0080           0
    4220 WT1  1168 TIP3 OH2  OT    -0.834000       15.9994           0
    4221 WT1  1168 TIP3 H1   HT     0.417000        1.0080           0
    4222 WT1  1168 TIP3 H2   HT     0.417000        1.0080           0
    4223 WT1  1169 TIP3 OH2  OT    -0.834000       15.9994           0
    4224 WT1  1169 TIP3 H1   HT     0.417000        1.0080           0
    4225 WT1  1169 TIP3 H2   HT     0.417000        1.0080           0
    4226 WT1  1170 TIP3 OH2  OT    -0.834000       15.9994           0
    4227 WT1  1170 TIP3 H1   HT     0.417000        1.0080           0
    4228 WT1  1170 TIP3 H2   HT     0.417000        1.0080           0
    4229 WT1  1171 TIP3 OH2  OT    -0.834000       15.9994           0
    4230 WT1  1171 TIP3 H1   HT     0.417000        1.0080           0
    4231 WT1  1171 TIP3 H2   HT     0.417000        1.0080           0
    4232 WT1  1172 TIP3 OH2  OT    -0.834000       15.9994           0
    4233 WT1  1172 TIP3 H1   HT     0.417000        1.0080           0
    4234 WT1  1172 TIP3 H2   HT     0.417000        1.0080           0
    4235 WT1  1173 TIP3 OH2  OT    -0.834000       15.9994           0
    4236 WT1  1173 TIP3 H1   HT     0.417000        1.0080           0
    4237 WT1  1173 TIP3 H2   HT     0.417000        1.0080           0
    4238 WT1  1174 TIP3 OH2  OT    -0.834000       15.9994           0
    4239 WT1  1174 TIP3 H1   HT     0.417000        1.0080           0
    4240 WT1  1174 TIP3 H2   HT     0.417000        1.0080           0
    4241 WT1  1176 TIP3 OH2  OT    -0.834000       15.9994           0
    4242 WT1  1176 TIP3 H1   HT     0.417000        1.0080           0
    4243 WT1  1176 TIP3 H2   HT     0.417000        1.0080           0
    4244 WT1  1177 TIP3 OH2  OT    -0.834000       15.9994           0
    4245 WT1  1177 TIP3 H1   HT     0.417000        1.0080           0
    4246 WT1  1177 TIP3 H2   HT     0.417000        1.0080           0
    4247 WT1  1178 TIP3 OH2  OT    -0.834000       15.9994           0
    4248 WT1  1178 TIP3 H1   HT     0.417000        1.0080           0
    4249 WT1  1178 TIP3 H2   HT     0.417000        1.0080           0
    4250 WT1  1179 TIP3 OH2  OT    -0.834000       15.9994           0
    4251 WT1  1179 TIP3 H1   HT     0.417000        1.0080           0
    4252 WT1  1179 TIP3 H2   HT     0.417000        1.0080           0
    4253 WT1  1181 TIP3 OH2  OT    -0.834000       15.9994           0
    4254 WT1  1181 TIP3 H1   HT     0.417000        1.0080           0
    4255 WT1  1181 TIP3 H2   HT     0.417000        1.0080           0
    4256 WT1  1182 TIP3 OH2  OT    -0.834000       15.9994           0
    4257 WT1  1182 TIP3 H1   HT     0.417000        1.0080           0
    4258 WT1  1182 TIP3 H2   HT     0.417000        1.0080           0
    4259 WT1  1183 TIP3 OH2  OT    -0.834000       15.9994           0
    4260 WT1  1183 TIP3 H1   HT     0.417000        1.0080           0
    4261 WT1  1183 TIP3 H2   HT     0.417000        1.0080           0
    4262 WT1  1184 TIP3 OH2  OT    -0.834000       15.9994           0
    4263 WT1  1184 TIP3 H1   HT     0.417000        1.0080           0
    4264 WT1  1184 TIP3 H2   HT     0.417000        1.0080           0
    4265 WT1  1186 TIP3 OH2  OT    -0.834000       15.9994           0
    4266 WT1  1186 TIP3 H1   HT     0.417000        1.0080           0
    4267 WT1  1186 TIP3 H2   HT     0.417000        1.0080           0
    4268 WT1  1187 TIP3 OH2  OT    -0.834000       15.9994           0
    4269 WT1  1187 TIP3 H1   HT     0.417000        1.0080           0
    4270 WT1  1187 TIP3 H2   HT     0.417000        1.0080           0
    4271 WT1  1188 TIP3 OH2  OT    -0.834000       15.9994           0
    4272 WT1  1188 TIP3 H1   HT     0.417000        1.0080           0
    4273 WT1  1188 TIP3 H2   HT     0.417000        1.0080           0
    4274 WT1  1189 TIP3 OH2  OT    -0.834000       15.9994           0
    4275 WT1  1189 TIP3 H1   HT     0.417000        1.0080           0
    4276 WT1  1189 TIP3 H2   HT     0.417000        1.0080           0
    4277 WT1  1190 TIP3 OH2  OT    -0.834000       15.9994           0
    4278 WT1  1190 TIP3 H1   HT     0.417000        1.0080           0
    4279 WT1  1190 TIP3 H2   HT     0.417000        1.0080           0
    4280 WT1  1191 TIP3 OH2  OT    -0.834000       15.9994           0
    4281 WT1  1191 TIP3 H1   HT     0.417000        1.0080           0
    4282 WT1  1191 TIP3 H2   HT     0.417000        1.0080           0
    4283 WT1  1192 TIP3 OH2  OT    -0.834000       15.9994           0
    4284 WT1  1192 TIP3 H1   HT     0.417000        1.0080           0
    4285 WT1  1192 TIP3 H2   HT     0.417000        1.0080           0
    4286 WT1  1193 TIP3 OH2  OT    -0.834000       15.9994           0
    4287 WT1  1193 TIP3 H1   HT     0.417000        1.0080           0
    4288 WT1  1193 TIP3 H2   HT     0.417000        1.0080           0
    4289 WT1  1194 TIP3 OH2  OT    -0.834000       15.9994           0
    4290 WT1  1194 TIP3 H1   HT     0.417000        1.0080           0
    4291 WT1  1194 TIP3 H2   HT     0.417000        1.0080           0
    4292 WT1  1195 TIP3 OH2  OT    -0.834000       15.9994           0
    4293 WT1  1195 TIP3 H1   HT     0.417000        1.0080           0
    4294 WT1  1195 TIP3 H2   HT     0.417000        1.0080           0
    4295 WT1  1196 TIP3 OH2  OT    -0.834000       15.9994           0
    4296 WT1  1196 TIP3 H1   HT     0.417000        1.0080           0
    4297 WT1  1196 TIP3 H2   HT     0.417000        1.0080           0
    4298 WT1  1197 TIP3 OH2  OT    -0.834000       15.9994           0
    4299 WT1  1197 TIP3 H1   HT     0.417000        1.0080           0
    4300 WT1  1197 TIP3 H2   HT     0.417000        1.0080           0
    4301 WT1  1198 TIP3 OH2  OT    -0.834000       15.9994           0
    4302 WT1  1198 TIP3 H1   HT     0.417000        1.0080           0
    4303 WT1  1198 TIP3 H2   HT     0.417000        1.0080           0
    4304 WT1  1199 TIP3 OH2  OT    -0.834000       15.9994           0
    4305 WT1  1199 TIP3 H1   HT     0.417000        1.0080           0
    4306 WT1  1199 TIP3 H2   HT     0.417000        1.0080           0
    4307 WT1  1200 TIP3 OH2  OT    -0.834000       15.9994           0
    4308 WT1  1200 TIP3 H1   HT     0.417000        1.0080           0
    4309 WT1  1200 TIP3 H2   HT     0.417000        1.0080           0
    4310 WT1  1201 TIP3 OH2  OT    -0.834000       15.9994           0
    4311 WT1  1201 TIP3 H1   HT     0.417000        1.0080           0
    4312 WT1  1201 TIP3 H2   HT     0.417000        1.0080           0
    4313 WT1  1202 TIP3 OH2  OT    -0.834000       15.9994           0
    4314 WT1  1202 TIP3 H1   HT     0.417000        1.0080           0
    4315 WT1  1202 TIP3 H2   HT     0.417000        1.0080           0
    4316 WT1  1203 TIP3 OH2  OT    -0.834000       15.9994           0
    4317 WT1  1203 TIP3 H1   HT     0.417000        1.0080           0
    4318 WT1  1203 TIP3 H2   HT     0.417000        1.0080           0
    4319 WT1  1204 TIP3 OH2  OT    -0.834000       15.9994           0
    4320 WT1  1204 TIP3 H1   HT     0.417000        1.0080           0
    4321 WT1  1204 TIP3 H2   HT     0.417000        1.0080           0
    4322 WT1  1205 TIP3 OH2  OT    -0.834000       15.9994           0
    4323 WT1  1205 TIP3 H1   HT     0.417000        1.0080           0
    4324 WT1  1205 TIP3 H2   HT     0.417000        1.0080           0
    4325 WT1  1207 TIP3 OH2  OT    -0.834000       15.9994           0
    4326 WT1  1207 TIP3 H1   HT     0.417000        1.0080           0
    4327 WT1  1207 TIP3 H2   HT     0.417000        1.0080           0
    4328 WT1  1209 TIP3 OH2  OT    -0.834000       15.9994           0
    4329 WT1  1209 TIP3 H1   HT     0.417000        1.0080           0
    4330 WT1  1209 TIP3 H2   HT     0.417000        1.0080           0
    4331 WT1  1210 TIP3 OH2  OT    -0.834000       15.9994           0
    4332 WT1  1210 TIP3 H1   HT     0.417000        1.0080           0
    4333 WT1  1210 TIP3 H2   HT     0.417000        1.0080           0
    4334 WT1  1211 TIP3 OH2  OT    -0.834000       15.9994           0
    4335 WT1  1211 TIP3 H1   HT     0.417000        1.0080           0
    4336 WT1  1211 TIP3 H2   HT     0.417000        1.0080           0
    4337 WT1  1212 TIP3 OH2  OT    -0.834000       15.9994           0
    4338 WT1  1212 TIP3 H1   HT     0.417000        1.0080           0
    4339 WT1  1212 TIP3 H2   HT     0.417000        1.0080           0
    4340 WT1  1215 TIP3 OH2  OT    -0.834000       15.9994           0
    4341 WT1  1215 TIP3 H1   HT     0.417000        1.0080           0
    4342 WT1  1215 TIP3 H2   HT     0.417000        1.0080           0
    4343 WT1  1216 TIP3 OH2  OT    -0.834000       15.9994           0
    4344 WT1  1216 TIP3 H1   HT     0.417000        1.0080           0
    4345 WT1  1216 TIP3 H2   HT     0.417000        1.0080           0
    4346 WT1  1217 TIP3 OH2  OT    -0.834000       15.9994           0
    4347 WT1  1217 TIP3 H1   HT     0.417000        1.0080           0
    4348 WT1  1217 TIP3 H2   HT     0.417000        1.0080           0
    4349 WT1  1218 TIP3 OH2  OT    -0.834000       15.9994           0
    4350 WT1  1218 TIP3 H1   HT     0.417000        1.0080           0
    4351 WT1  1218 TIP3 H2   HT     0.417000        1.0080           0
    4352 WT1  1219 TIP3 OH2  OT    -0.834000       15.9994           0
    4353 WT1  1219 TIP3 H1   HT     0.417000        1.0080           0
    4354 WT1  1219 TIP3 H2   HT     0.417000        1.0080           0
    4355 WT1  1220 TIP3 OH2  OT    -0.834000       15.9994           0
    4356 WT1  1220 TIP3 H1   HT     0.417000        1.0080           0
    4357 WT1  1220 TIP3 H2   HT     0.417000        1.0080           0
    4358 WT1  1221 TIP3 OH2  OT    -0.834000       15.9994           0
    4359 WT1  1221 TIP3 H1   HT     0.417000        1.0080           0
    4360 WT1  1221 TIP3 H2   HT     0.417000        1.0080           0
    4361 WT1  1222 TIP3 OH2  OT    -0.834000       15.9994           0
    4362 WT1  1222 TIP3 H1   HT     0.417000        1.0080           0
    4363 WT1  1222 TIP3 H2   HT     0.417000        1.0080           0
    4364 WT1  1223 TIP3 OH2  OT    -0.834000       15.9994           0
    4365 WT1  1223 TIP3 H1   HT     0.417000        1.0080           0
    4366 WT1  1223 TIP3 H2   HT     0.417000        1.0080           0
    4367 WT1  1224 TIP3 OH2  OT    -0.834000       15.9994           0
    4368 WT1  1224 TIP3 H1   HT     0.417000        1.0080           0
    4369 WT1  1224 TIP3 H2   HT     0.417000        1.0080           0
    4370 WT1  1225 TIP3 OH2  OT    -0.834000       15.9994           0
    4371 WT1  1225 TIP3 H1   HT     0.417000        1.0080           0
    4372 WT1  1225 TIP3 H2   HT     0.417000        1.0080           0
    4373 WT1  1226 TIP3 OH2  OT    -0.834000       15.9994           0
    4374 WT1  1226 TIP3 H1   HT     0.417000        1.0080           0
    4375 WT1  1226 TIP3 H2   HT     0.417000        1.0080           0
    4376 WT1  1228 TIP3 OH2  OT    -0.834000       15.9994           0
    4377 WT1  1228 TIP3 H1   HT     0.417000        1.0080           0
    4378 WT1  1228 TIP3 H2   HT     0.417000        1.0080           0
    4379 WT1  1229 TIP3 OH2  OT    -0.834000       15.9994           0
    4380 WT1  1229 TIP3 H1   HT     0.417000        1.0080           0
    4381 WT1  1229 TIP3 H2   HT     0.417000        1.0080           0
    4382 WT1  1230 TIP3 OH2  OT    -0.834000       15.9994           0
    4383 WT1  1230 TIP3 H1   HT     0.417000        1.0080           0
    4384 WT1  1230 TIP3 H2   HT     0.417000        1.0080           0
    4385 WT1  1231 TIP3 OH2  OT    -0.834000       15.9994           0
    4386 WT1  1231 TIP3 H1   HT     0.417000        1.0080           0
    4387 WT1  1231 TIP3 H2   HT     0.417000        1.0080           0
    4388 WT1  1232 TIP3 OH2  OT    -0.834000       15.9994           0
    4389 WT1  1232 TIP3 H1   HT     0.417000        1.0080           0
    4390 WT1  1232 TIP3 H2   HT     0.417000        1.0080           0
    4391 WT1  1233 TIP3 OH2  OT    -0.834000       15.9994           0
    4392 WT1  1233 TIP3 H1   HT     0.417000        1.0080           0
    4393 WT1  1233 TIP3 H2   HT     0.417000        1.0080           0
    4394 WT1  1234 TIP3 OH2  OT    -0.834000       15.9994           0
    4395 WT1  1234 TIP3 H1   HT     0.417000        1.0080           0
    4396 WT1  1234 TIP3 H2   HT     0.417000        1.0080           0
    4397 WT1  1235 TIP3 OH2  OT    -0.834000       15.9994           0
    4398 WT1  1235 TIP3 H1   HT     0.417000        1.0080           0
    4399 WT1  1235 TIP3 H2   HT     0.417000        1.0080           0
    4400 WT1  1236 TIP3 OH2  OT    -0.834000       15.9994           0
    4401 WT1  1236 TIP3 H1   HT     0.417000        1.0080           0
    4402 WT1  1236 TIP3 H2   HT     0.417000        1.0080           0
    4403 WT1  1237 TIP3 OH2  OT    -0.834000       15.9994           0
    4404 WT1  1237 TIP3 H1   HT     0.417000        1.0080           0
    4405 WT1  1237 TIP3 H2   HT     0.417000        1.0080           0
    4406 WT1  1238 TIP3 OH2  OT    -0.834000       15.9994           0
    4407 WT1  1238 TIP3 H1   HT     0.417000        1.0080           0
    4408 WT1  1238 TIP3 H2   HT     0.417000        1.0080           0
    4409 WT1  1239 TIP3 OH2  OT    -0.834000       15.9994           0
    4410 WT1  1239 TIP3 H1   HT     0.417000        1.0080           0
    4411 WT1  1239 TIP3 H2   HT     0.417000        1.0080           0
    4412 WT1  1240 TIP3 OH2  OT    -0.834000       15.9994           0
    4413 WT1  1240 TIP3 H1   HT     0.417000        1.0080           0
    4414 WT1  1240 TIP3 H2   HT     0.417000        1.0080           0
    4415 WT1  1243 TIP3 OH2  OT    -0.834000       15.9994           0
    4416 WT1  1243 TIP3 H1   HT     0.417000        1.0080           0
    4417 WT1  1243 TIP3 H2   HT     0.417000        1.0080           0
    4418 WT1  1244 TIP3 OH2  OT    -0.834000       15.9994           0
    4419 WT1  1244 TIP3 H1   HT     0.417000        1.0080           0
    4420 WT1  1244 TIP3 H2   HT     0.417000        1.0080           0
    4421 WT1  1245 TIP3 OH2  OT    -0.834000       15.9994           0
    4422 WT1  1245 TIP3 H1   HT     0.417000        1.0080           0
    4423 WT1  1245 TIP3 H2   HT     0.417000        1.0080           0
    4424 WT1  1246 TIP3 OH2  OT    -0.834000       15.9994           0
    4425 WT1  1246 TIP3 H1   HT     0.417000        1.0080           0
    4426 WT1  1246 TIP3 H2   HT     0.417000        1.0080           0
    4427 WT1  1247 TIP3 OH2  OT    -0.834000       15.9994           0
    4428 WT1  1247 TIP3 H1   HT     0.417000        1.0080           0
    4429 WT1  1247 TIP3 H2   HT     0.417000        1.0080           0
    4430 WT1  1248 TIP3 OH2  OT    -0.834000       15.9994           0
    4431 WT1  1248 TIP3 H1   HT     0.417000        1.0080           0
    4432 WT1  1248 TIP3 H2   HT     0.417000        1.0080           0
    4433 WT1  1249 TIP3 OH2  OT    -0.834000       15.9994           0
    4434 WT1  1249 TIP3 H1   HT     0.417000        1.0080           0
    4435 WT1  1249 TIP3 H2   HT     0.417000        1.0080           0
    4436 WT1  1250 TIP3 OH2  OT    -0.834000       15.9994           0
    4437 WT1  1250 TIP3 H1   HT     0.417000        1.0080           0
    4438 WT1  1250 TIP3 H2   HT     0.417000        1.0080           0
    4439 WT1  1251 TIP3 OH2  OT    -0.834000       15.9994           0
    4440 WT1  1251 TIP3 H1   HT     0.417000        1.0080           0
    4441 WT1  1251 TIP3 H2   HT     0.417000        1.0080           0
    4442 WT1  1254 TIP3 OH2  OT    -0.834000       15.9994           0
    4443 WT1  1254 TIP3 H1   HT     0.417000        1.0080           0
    4444 WT1  1254 TIP3 H2   HT     0.417000        1.0080           0
    4445 WT1  1255 TIP3 OH2  OT    -0.834000       15.9994           0
    4446 WT1  1255 TIP3 H1   HT     0.417000        1.0080           0
    4447 WT1  1255 TIP3 H2   HT     0.417000        1.0080           0
    4448 WT1  1256 TIP3 OH2  OT    -0.834000       15.9994           0
    4449 WT1  1256 TIP3 H1   HT     0.417000        1.0080           0
    4450 WT1  1256 TIP3 H2   HT     0.417000        1.0080           0
    4451 WT1  1257 TIP3 OH2  OT    -0.834000       15.9994           0
    4452 WT1  1257 TIP3 H1   HT     0.417000        1.0080           0
    4453 WT1  1257 TIP3 H2   HT     0.417000        1.0080           0
    4454 WT1  1258 TIP3 OH2  OT    -0.834000       15.9994           0
    4455 WT1  1258 TIP3 H1   HT     0.417000        1.0080           0
    4456 WT1  1258 TIP3 H2   HT     0.417000        1.0080           0
    4457 WT1  1259 TIP3 OH2  OT    -0.834000       15.9994           0
    4458 WT1  1259 TIP3 H1   HT     0.417000        1.0080           0
    4459 WT1  1259 TIP3 H2   HT     0.417000        1.0080           0
    4460 WT1  1260 TIP3 OH2  OT    -0.834000       15.9994           0
    4461 WT1  1260 TIP3 H1   HT     0.417000        1.0080           0
    4462 WT1  1260 TIP3 H2   HT     0.417000        1.0080           0
    4463 WT1  1261 TIP3 OH2  OT    -0.834000       15.9994           0
    4464 WT1  1261 TIP3 H1   HT     0.417000        1.0080           0
    4465 WT1  1261 TIP3 H2   HT     0.417000        1.0080           0
    4466 WT1  1262 TIP3 OH2  OT    -0.834000       15.9994           0
    4467 WT1  1262 TIP3 H1   HT     0.417000        1.0080           0
    4468 WT1  1262 TIP3 H2   HT     0.417000        1.0080           0
    4469 WT1  1263 TIP3 OH2  OT    -0.834000       15.9994           0
    4470 WT1  1263 TIP3 H1   HT     0.417000        1.0080           0
    4471 WT1  1263 TIP3 H2   HT     0.417000        1.0080           0
    4472 WT1  1264 TIP3 OH2  OT    -0.834000       15.9994           0
    4473 WT1  1264 TIP3 H1   HT     0.417000        1.0080           0
    4474 WT1  1264 TIP3 H2   HT     0.417000        1.0080           0
    4475 WT1  1265 TIP3 OH2  OT    -0.834000       15.9994           0
    4476 WT1  1265 TIP3 H1   HT     0.417000        1.0080           0
    4477 WT1  1265 TIP3 H2   HT     0.417000        1.0080           0
    4478 WT1  1266 TIP3 OH2  OT    -0.834000       15.9994           0
    4479 WT1  1266 TIP3 H1   HT     0.417000        1.0080           0
    4480 WT1  1266 TIP3 H2   HT     0.417000        1.0080           0
    4481 WT1  1267 TIP3 OH2  OT    -0.834000       15.9994           0
    4482 WT1  1267 TIP3 H1   HT     0.417000        1.0080           0
    4483 WT1  1267 TIP3 H2   HT     0.417000        1.0080           0
    4484 WT1  1268 TIP3 OH2  OT    -0.834000       15.9994           0
    4485 WT1  1268 TIP3 H1   HT     0.417000        1.0080           0
    4486 WT1  1268 TIP3 H2   HT     0.417000        1.0080           0
    4487 WT1  1269 TIP3 OH2  OT    -0.834000       15.9994           0
    4488 WT1  1269 TIP3 H1   HT     0.417000        1.0080           0
    4489 WT1  1269 TIP3 H2   HT     0.417000        1.0080           0
    4490 WT1  1270 TIP3 OH2  OT    -0.834000       15.9994           0
    4491 WT1  1270 TIP3 H1   HT     0.417000        1.0080           0
    4492 WT1  1270 TIP3 H2   HT     0.417000        1.0080           0
    4493 WT1  1271 TIP3 OH2  OT    -0.834000       15.9994           0
    4494 WT1  1271 TIP3 H1   HT     0.417000        1.0080           0
    4495 WT1  1271 TIP3 H2   HT     0.417000        1.0080           0
    4496 WT1  1272 TIP3 OH2  OT    -0.834000       15.9994           0
    4497 WT1  1272 TIP3 H1   HT     0.417000        1.0080           0
    4498 WT1  1272 TIP3 H2   HT     0.417000        1.0080           0
    4499 WT1  1273 TIP3 OH2  OT    -0.834000       15.9994           0
    4500 WT1  1273 TIP3 H1   HT     0.417000        1.0080           0
    4501 WT1  1273 TIP3 H2   HT     0.417000        1.0080           0
    4502 WT1  1274 TIP3 OH2  OT    -0.834000       15.9994           0
    4503 WT1  1274 TIP3 H1   HT     0.417000        1.0080           0
    4504 WT1  1274 TIP3 H2   HT     0.417000        1.0080           0
    4505 WT1  1275 TIP3 OH2  OT    -0.834000       15.9994           0
    4506 WT1  1275 TIP3 H1   HT     0.417000        1.0080           0
    4507 WT1  1275 TIP3 H2   HT     0.417000        1.0080           0
    4508 WT1  1276 TIP3 OH2  OT    -0.834000       15.9994           0
    4509 WT1  1276 TIP3 H1   HT     0.417000        1.0080           0
    4510 WT1  1276 TIP3 H2   HT     0.417000        1.0080           0
    4511 WT1  1277 TIP3 OH2  OT    -0.834000       15.9994           0
    4512 WT1  1277 TIP3 H1   HT     0.417000        1.0080           0
    4513 WT1  1277 TIP3 H2   HT     0.417000        1.0080           0
    4514 WT1  1278 TIP3 OH2  OT    -0.834000       15.9994           0
    4515 WT1  1278 TIP3 H1   HT     0.417000        1.0080           0
    4516 WT1  1278 TIP3 H2   HT     0.417000        1.0080           0
    4517 WT1  1279 TIP3 OH2  OT    -0.834000       15.9994           0
    4518 WT1  1279 TIP3 H1   HT     0.417000        1.0080           0
    4519 WT1  1279 TIP3 H2   HT     0.417000        1.0080           0
    4520 WT1  1280 TIP3 OH2  OT    -0.834000       15.9994           0
    4521 WT1  1280 TIP3 H1   HT     0.417000        1.0080           0
    4522 WT1  1280 TIP3 H2   HT     0.417000        1.0080           0
    4523 WT1  1281 TIP3 OH2  OT    -0.834000       15.9994           0
    4524 WT1  1281 TIP3 H1   HT     0.417000        1.0080           0
    4525 WT1  1281 TIP3 H2   HT     0.417000        1.0080           0
    4526 WT1  1283 TIP3 OH2  OT    -0.834000       15.9994           0
    4527 WT1  1283 TIP3 H1   HT     0.417000        1.0080           0
    4528 WT1  1283 TIP3 H2   HT     0.417000        1.0080           0
    4529 WT1  1284 TIP3 OH2  OT    -0.834000       15.9994           0
    4530 WT1  1284 TIP3 H1   HT     0.417000        1.0080           0
    4531 WT1  1284 TIP3 H2   HT     0.417000        1.0080           0
    4532 WT1  1286 TIP3 OH2  OT    -0.834000       15.9994           0
    4533 WT1  1286 TIP3 H1   HT     0.417000        1.0080           0
    4534 WT1  1286 TIP3 H2   HT     0.417000        1.0080           0
    4535 WT1  1288 TIP3 OH2  OT    -0.834000       15.9994           0
    4536 WT1  1288 TIP3 H1   HT     0.417000        1.0080           0
    4537 WT1  1288 TIP3 H2   HT     0.417000        1.0080           0
    4538 WT1  1289 TIP3 OH2  OT    -0.834000       15.9994           0
    4539 WT1  1289 TIP3 H1   HT     0.417000        1.0080           0
    4540 WT1  1289 TIP3 H2   HT     0.417000        1.0080           0
    4541 WT1  1290 TIP3 OH2  OT    -0.834000       15.9994           0
    4542 WT1  1290 TIP3 H1   HT     0.417000        1.0080           0
    4543 WT1  1290 TIP3 H2   HT     0.417000        1.0080           0
    4544 WT1  1291 TIP3 OH2  OT    -0.834000       15.9994           0
    4545 WT1  1291 TIP3 H1   HT     0.417000        1.0080           0
    4546 WT1  1291 TIP3 H2   HT     0.417000        1.0080           0
    4547 WT1  1293 TIP3 OH2  OT    -0.834000       15.9994           0
    4548 WT1  1293 TIP3 H1   HT     0.417000        1.0080           0
    4549 WT1  1293 TIP3 H2   HT     0.417000        1.0080           0
    4550 WT1  1294 TIP3 OH2  OT    -0.834000       15.9994           0
    4551 WT1  1294 TIP3 H1   HT     0.417000        1.0080           0
    4552 WT1  1294 TIP3 H2   HT     0.417000        1.0080           0
    4553 WT1  1295 TIP3 OH2  OT    -0.834000       15.9994           0
    4554 WT1  1295 TIP3 H1   HT     0.417000        1.0080           0
    4555 WT1  1295 TIP3 H2   HT     0.417000        1.0080           0
    4556 WT1  1296 TIP3 OH2  OT    -0.834000       15.9994           0
    4557 WT1  1296 TIP3 H1   HT     0.417000        1.0080           0
    4558 WT1  1296 TIP3 H2   HT     0.417000        1.0080           0
    4559 WT1  1297 TIP3 OH2  OT    -0.834000       15.9994           0
    4560 WT1  1297 TIP3 H1   HT     0.417000        1.0080           0
    4561 WT1  1297 TIP3 H2   HT     0.417000        1.0080           0
    4562 WT1  1298 TIP3 OH2  OT    -0.834000       15.9994           0
    4563 WT1  1298 TIP3 H1   HT     0.417000        1.0080           0
    4564 WT1  1298 TIP3 H2   HT     0.417000        1.0080           0
    4565 WT1  1299 TIP3 OH2  OT    -0.834000       15.9994           0
    4566 WT1  1299 TIP3 H1   HT     0.417000        1.0080           0
    4567 WT1  1299 TIP3 H2   HT     0.417000        1.0080           0
    4568 WT1  1300 TIP3 OH2  OT    -0.834000       15.9994           0
    4569 WT1  1300 TIP3 H1   HT     0.417000        1.0080           0
    4570 WT1  1300 TIP3 H2   HT     0.417000        1.0080           0
    4571 WT1  1301 TIP3 OH2  OT    -0.834000       15.9994           0
    4572 WT1  1301 TIP3 H1   HT     0.417000        1.0080           0
    4573 WT1  1301 TIP3 H2   HT     0.417000        1.0080           0
    4574 WT1  1302 TIP3 OH2  OT    -0.834000       15.9994           0
    4575 WT1  1302 TIP3 H1   HT     0.417000        1.0080           0
    4576 WT1  1302 TIP3 H2   HT     0.417000        1.0080           0
    4577 WT1  1303 TIP3 OH2  OT    -0.834000       15.9994           0
    4578 WT1  1303 TIP3 H1   HT     0.417000        1.0080           0
    4579 WT1  1303 TIP3 H2   HT     0.417000        1.0080           0
    4580 WT1  1304 TIP3 OH2  OT    -0.834000       15.9994           0
    4581 WT1  1304 TIP3 H1   HT     0.417000        1.0080           0
    4582 WT1  1304 TIP3 H2   HT     0.417000        1.0080           0
    4583 WT1  1305 TIP3 OH2  OT    -0.834000       15.9994           0
    4584 WT1  1305 TIP3 H1   HT     0.417000        1.0080           0
    4585 WT1  1305 TIP3 H2   HT     0.417000        1.0080           0
    4586 WT1  1306 TIP3 OH2  OT    -0.834000       15.9994           0
    4587 WT1  1306 TIP3 H1   HT     0.417000        1.0080           0
    4588 WT1  1306 TIP3 H2   HT     0.417000        1.0080           0
    4589 WT1  1307 TIP3 OH2  OT    -0.834000       15.9994           0
    4590 WT1  1307 TIP3 H1   HT     0.417000        1.0080           0
    4591 WT1  1307 TIP3 H2   HT     0.417000        1.0080           0
    4592 WT1  1308 TIP3 OH2  OT    -0.834000       15.9994           0
    4593 WT1  1308 TIP3 H1   HT     0.417000        1.0080           0
    4594 WT1  1308 TIP3 H2   HT     0.417000        1.0080           0
    4595 WT1  1311 TIP3 OH2  OT    -0.834000       15.9994           0
    4596 WT1  1311 TIP3 H1   HT     0.417000        1.0080           0
    4597 WT1  1311 TIP3 H2   HT     0.417000        1.0080           0
    4598 WT1  1312 TIP3 OH2  OT    -0.834000       15.9994           0
    4599 WT1  1312 TIP3 H1   HT     0.417000        1.0080           0
    4600 WT1  1312 TIP3 H2   HT     0.417000        1.0080           0
    4601 WT1  1313 TIP3 OH2  OT    -0.834000       15.9994           0
    4602 WT1  1313 TIP3 H1   HT     0.417000        1.0080           0
    4603 WT1  1313 TIP3 H2   HT     0.417000        1.0080           0
    4604 WT1  1314 TIP3 OH2  OT    -0.834000       15.9994           0
    4605 WT1  1314 TIP3 H1   HT     0.417000        1.0080           0
    4606 WT1  1314 TIP3 H2   HT     0.417000        1.0080           0
    4607 WT1  1315 TIP3 OH2  OT    -0.834000       15.9994           0
    4608 WT1  1315 TIP3 H1   HT     0.417000        1.0080           0
    4609 WT1  1315 TIP3 H2   HT     0.417000        1.0080           0
    4610 WT1  1316 TIP3 OH2  OT    -0.834000       15.9994           0
    4611 WT1  1316 TIP3 H1   HT     0.417000        1.0080           0
    4612 WT1  1316 TIP3 H2   HT     0.417000        1.0080           0
    4613 WT1  1319 TIP3 OH2  OT    -0.834000       15.9994           0
    4614 WT1  1319 TIP3 H1   HT     0.417000        1.0080           0
    4615 WT1  1319 TIP3 H2   HT     0.417000        1.0080           0
    4616 WT1  1320 TIP3 OH2  OT    -0.834000       15.9994           0
    4617 WT1  1320 TIP3 H1   HT     0.417000        1.0080           0
    4618 WT1  1320 TIP3 H2   HT     0.417000        1.0080           0
    4619 WT1  1321 TIP3 OH2  OT    -0.834000       15.9994           0
    4620 WT1  1321 TIP3 H1   HT     0.417000        1.0080           0
    4621 WT1  1321 TIP3 H2   HT     0.417000        1.0080           0
    4622 WT1  1322 TIP3 OH2  OT    -0.834000       15.9994           0
    4623 WT1  1322 TIP3 H1   HT     0.417000        1.0080           0
    4624 WT1  1322 TIP3 H2   HT     0.417000        1.0080           0
    4625 WT1  1323 TIP3 OH2  OT    -0.834000       15.9994           0
    4626 WT1  1323 TIP3 H1   HT     0.417000        1.0080           0
    4627 WT1  1323 TIP3 H2   HT     0.417000        1.0080           0
    4628 WT1  1324 TIP3 OH2  OT    -0.834000       15.9994           0
    4629 WT1  1324 TIP3 H1   HT     0.417000        1.0080           0
    4630 WT1  1324 TIP3 H2   HT     0.417000        1.0080           0
    4631 WT1  1325 TIP3 OH2  OT    -0.834000       15.9994           0
    4632 WT1  1325 TIP3 H1   HT     0.417000        1.0080           0
    4633 WT1  1325 TIP3 H2   HT     0.417000        1.0080           0
    4634 WT1  1326 TIP3 OH2  OT    -0.834000       15.9994           0
    4635 WT1  1326 TIP3 H1   HT     0.417000        1.0080           0
    4636 WT1  1326 TIP3 H2   HT     0.417000        1.0080           0
    4637 WT1  1327 TIP3 OH2  OT    -0.834000       15.9994           0
    4638 WT1  1327 TIP3 H1   HT     0.417000        1.0080           0
    4639 WT1  1327 TIP3 H2   HT     0.417000        1.0080           0
    4640 WT1  1328 TIP3 OH2  OT    -0.834000       15.9994           0
    4641 WT1  1328 TIP3 H1   HT     0.417000        1.0080           0
    4642 WT1  1328 TIP3 H2   HT     0.417000        1.0080           0
    4643 WT1  1330 TIP3 OH2  OT    -0.834000       15.9994           0
    4644 WT1  1330 TIP3 H1   HT     0.417000        1.0080           0
    4645 WT1  1330 TIP3 H2   HT     0.417000        1.0080           0
    4646 WT1  1332 TIP3 OH2  OT    -0.834000       15.9994           0
    4647 WT1  1332 TIP3 H1   HT     0.417000        1.0080           0
    4648 WT1  1332 TIP3 H2   HT     0.417000        1.0080           0
    4649 WT1  1333 TIP3 OH2  OT    -0.834000       15.9994           0
    4650 WT1  1333 TIP3 H1   HT     0.417000        1.0080           0
    4651 WT1  1333 TIP3 H2   HT     0.417000        1.0080           0
    4652 WT1  1334 TIP3 OH2  OT    -0.834000       15.9994           0
    4653 WT1  1334 TIP3 H1   HT     0.417000        1.0080           0
    4654 WT1  1334 TIP3 H2   HT     0.417000        1.0080           0
    4655 WT1  1335 TIP3 OH2  OT    -0.834000       15.9994           0
    4656 WT1  1335 TIP3 H1   HT     0.417000        1.0080           0
    4657 WT1  1335 TIP3 H2   HT     0.417000        1.0080           0
    4658 WT1  1336 TIP3 OH2  OT    -0.834000       15.9994           0
    4659 WT1  1336 TIP3 H1   HT     0.417000        1.0080           0
    4660 WT1  1336 TIP3 H2   HT     0.417000        1.0080           0
    4661 WT1  1337 TIP3 OH2  OT    -0.834000       15.9994           0
    4662 WT1  1337 TIP3 H1   HT     0.417000        1.0080           0
    4663 WT1  1337 TIP3 H2   HT     0.417000        1.0080           0
    4664 WT1  1338 TIP3 OH2  OT    -0.834000       15.9994           0
    4665 WT1  1338 TIP3 H1   HT     0.417000        1.0080           0
    4666 WT1  1338 TIP3 H2   HT     0.417000        1.0080           0
    4667 WT1  1339 TIP3 OH2  OT    -0.834000       15.9994           0
    4668 WT1  1339 TIP3 H1   HT     0.417000        1.0080           0
    4669 WT1  1339 TIP3 H2   HT     0.417000        1.0080           0
    4670 WT1  1340 TIP3 OH2  OT    -0.834000       15.9994           0
    4671 WT1  1340 TIP3 H1   HT     0.417000        1.0080           0
    4672 WT1  1340 TIP3 H2   HT     0.417000        1.0080           0
    4673 WT1  1342 TIP3 OH2  OT    -0.834000       15.9994           0
    4674 WT1  1342 TIP3 H1   HT     0.417000        1.0080           0
    4675 WT1  1342 TIP3 H2   HT     0.417000        1.0080           0
    4676 WT1  1343 TIP3 OH2  OT    -0.834000       15.9994           0
    4677 WT1  1343 TIP3 H1   HT     0.417000        1.0080           0
    4678 WT1  1343 TIP3 H2   HT     0.417000        1.0080           0
    4679 WT1  1344 TIP3 OH2  OT    -0.834000       15.9994           0
    4680 WT1  1344 TIP3 H1   HT     0.417000        1.0080           0
    4681 WT1  1344 TIP3 H2   HT     0.417000        1.0080           0
    4682 WT1  1345 TIP3 OH2  OT    -0.834000       15.9994           0
    4683 WT1  1345 TIP3 H1   HT     0.417000        1.0080           0
    4684 WT1  1345 TIP3 H2   HT     0.417000        1.0080           0
    4685 WT1  1346 TIP3 OH2  OT    -0.834000       15.9994           0
    4686 WT1  1346 TIP3 H1   HT     0.417000        1.0080           0
    4687 WT1  1346 TIP3 H2   HT     0.417000        1.0080           0
    4688 WT1  1348 TIP3 OH2  OT    -0.834000       15.9994           0
    4689 WT1  1348 TIP3 H1   HT     0.417000        1.0080           0
    4690 WT1  1348 TIP3 H2   HT     0.417000        1.0080           0
    4691 WT1  1350 TIP3 OH2  OT    -0.834000       15.9994           0
    4692 WT1  1350 TIP3 H1   HT     0.417000        1.0080           0
    4693 WT1  1350 TIP3 H2   HT     0.417000        1.0080           0
    4694 WT1  1351 TIP3 OH2  OT    -0.834000       15.9994           0
    4695 WT1  1351 TIP3 H1   HT     0.417000        1.0080           0
    4696 WT1  1351 TIP3 H2   HT     0.417000        1.0080           0
    4697 WT1  1352 TIP3 OH2  OT    -0.834000       15.9994           0
    4698 WT1  1352 TIP3 H1   HT     0.417000        1.0080           0
    4699 WT1  1352 TIP3 H2   HT     0.417000        1.0080           0
    4700 WT1  1353 TIP3 OH2  OT    -0.834000       15.9994           0
    4701 WT1  1353 TIP3 H1   HT     0.417000        1.0080           0
    4702 WT1  1353 TIP3 H2   HT     0.417000        1.0080           0
    4703 WT1  1354 TIP3 OH2  OT    -0.834000       15.9994           0
    4704 WT1  1354 TIP3 H1   HT     0.417000        1.0080           0
    4705 WT1  1354 TIP3 H2   HT     0.417000        1.0080           0
    4706 WT1  1355 TIP3 OH2  OT    -0.834000       15.9994           0
    4707 WT1  1355 TIP3 H1   HT     0.417000        1.0080           0
    4708 WT1  1355 TIP3 H2   HT     0.417000        1.0080           0
    4709 WT1  1357 TIP3 OH2  OT    -0.834000       15.9994           0
    4710 WT1  1357 TIP3 H1   HT     0.417000        1.0080           0
    4711 WT1  1357 TIP3 H2   HT     0.417000        1.0080           0
    4712 WT1  1358 TIP3 OH2  OT    -0.834000       15.9994           0
    4713 WT1  1358 TIP3 H1   HT     0.417000        1.0080           0
    4714 WT1  1358 TIP3 H2   HT     0.417000        1.0080           0
    4715 WT1  1359 TIP3 OH2  OT    -0.834000       15.9994           0
    4716 WT1  1359 TIP3 H1   HT     0.417000        1.0080           0
    4717 WT1  1359 TIP3 H2   HT     0.417000        1.0080           0
    4718 WT1  1360 TIP3 OH2  OT    -0.834000       15.9994           0
    4719 WT1  1360 TIP3 H1   HT     0.417000        1.0080           0
    4720 WT1  1360 TIP3 H2   HT     0.417000        1.0080           0
    4721 WT1  1361 TIP3 OH2  OT    -0.834000       15.9994           0
    4722 WT1  1361 TIP3 H1   HT     0.417000        1.0080           0
    4723 WT1  1361 TIP3 H2   HT     0.417000        1.0080           0
    4724 WT1  1362 TIP3 OH2  OT    -0.834000       15.9994           0
    4725 WT1  1362 TIP3 H1   HT     0.417000        1.0080           0
    4726 WT1  1362 TIP3 H2   HT     0.417000        1.0080           0
    4727 WT1  1363 TIP3 OH2  OT    -0.834000       15.9994           0
    4728 WT1  1363 TIP3 H1   HT     0.417000        1.0080           0
    4729 WT1  1363 TIP3 H2   HT     0.417000        1.0080           0
    4730 WT1  1364 TIP3 OH2  OT    -0.834000       15.9994           0
    4731 WT1  1364 TIP3 H1   HT     0.417000        1.0080           0
    4732 WT1  1364 TIP3 H2   HT     0.417000        1.0080           0
    4733 WT1  1365 TIP3 OH2  OT    -0.834000       15.9994           0
    4734 WT1  1365 TIP3 H1   HT     0.417000        1.0080           0
    4735 WT1  1365 TIP3 H2   HT     0.417000        1.0080           0
    4736 WT1  1366 TIP3 OH2  OT    -0.834000       15.9994           0
    4737 WT1  1366 TIP3 H1   HT     0.417000        1.0080           0
    4738 WT1  1366 TIP3 H2   HT     0.417000        1.0080           0
    4739 WT1  1367 TIP3 OH2  OT    -0.834000       15.9994           0
    4740 WT1  1367 TIP3 H1   HT     0.417000        1.0080           0
    4741 WT1  1367 TIP3 H2   HT     0.417000        1.0080           0
    4742 WT1  1368 TIP3 OH2  OT    -0.834000       15.9994           0
    4743 WT1  1368 TIP3 H1   HT     0.417000        1.0080           0
    4744 WT1  1368 TIP3 H2   HT     0.417000        1.0080           0
    4745 WT1  1369 TIP3 OH2  OT    -0.834000       15.9994           0
    4746 WT1  1369 TIP3 H1   HT     0.417000        1.0080           0
    4747 WT1  1369 TIP3 H2   HT     0.417000        1.0080           0
    4748 WT1  1370 TIP3 OH2  OT    -0.834000       15.9994           0
    4749 WT1  1370 TIP3 H1   HT     0.417000        1.0080           0
    4750 WT1  1370 TIP3 H2   HT     0.417000        1.0080           0
    4751 WT1  1371 TIP3 OH2  OT    -0.834000       15.9994           0
    4752 WT1  1371 TIP3 H1   HT     0.417000        1.0080           0
    4753 WT1  1371 TIP3 H2   HT     0.417000        1.0080           0
    4754 WT1  1372 TIP3 OH2  OT    -0.834000       15.9994           0
    4755 WT1  1372 TIP3 H1   HT     0.417000        1.0080           0
    4756 WT1  1372 TIP3 H2   HT     0.417000        1.0080           0
    4757 WT1  1373 TIP3 OH2  OT    -0.834000       15.9994           0
    4758 WT1  1373 TIP3 H1   HT     0.417000        1.0080           0
    4759 WT1  1373 TIP3 H2   HT     0.417000        1.0080           0
    4760 WT1  1374 TIP3 OH2  OT    -0.834000       15.9994           0
    4761 WT1  1374 TIP3 H1   HT     0.417000        1.0080           0
    4762 WT1  1374 TIP3 H2   HT     0.417000        1.0080           0
    4763 WT1  1376 TIP3 OH2  OT    -0.834000       15.9994           0
    4764 WT1  1376 TIP3 H1   HT     0.417000        1.0080           0
    4765 WT1  1376 TIP3 H2   HT     0.417000        1.0080           0
    4766 WT1  1377 TIP3 OH2  OT    -0.834000       15.9994           0
    4767 WT1  1377 TIP3 H1   HT     0.417000        1.0080           0
    4768 WT1  1377 TIP3 H2   HT     0.417000        1.0080           0
    4769 WT1  1378 TIP3 OH2  OT    -0.834000       15.9994           0
    4770 WT1  1378 TIP3 H1   HT     0.417000        1.0080           0
    4771 WT1  1378 TIP3 H2   HT     0.417000        1.0080           0
    4772 WT1  1379 TIP3 OH2  OT    -0.834000       15.9994           0
    4773 WT1  1379 TIP3 H1   HT     0.417000        1.0080           0
    4774 WT1  1379 TIP3 H2   HT     0.417000        1.0080           0
    4775 WT1  1380 TIP3 OH2  OT    -0.834000       15.9994           0
    4776 WT1  1380 TIP3 H1   HT     0.417000        1.0080           0
    4777 WT1  1380 TIP3 H2   HT     0.417000        1.0080           0
    4778 WT1  1381 TIP3 OH2  OT    -0.834000       15.9994           0
    4779 WT1  1381 TIP3 H1   HT     0.417000        1.0080           0
    4780 WT1  1381 TIP3 H2   HT     0.417000        1.0080           0
    4781 WT1  1382 TIP3 OH2  OT    -0.834000       15.9994           0
    4782 WT1  1382 TIP3 H1   HT     0.417000        1.0080           0
    4783 WT1  1382 TIP3 H2   HT     0.417000        1.0080           0
    4784 WT1  1383 TIP3 OH2  OT    -0.834000       15.9994           0
    4785 WT1  1383 TIP3 H1   HT     0.417000        1.0080           0
    4786 WT1  1383 TIP3 H2   HT     0.417000        1.0080           0
    4787 WT1  1384 TIP3 OH2  OT    -0.834000       15.9994           0
    4788 WT1  1384 TIP3 H1   HT     0.417000        1.0080           0
    4789 WT1  1384 TIP3 H2   HT     0.417000        1.0080           0
    4790 WT1  1385 TIP3 OH2  OT    -0.834000       15.9994           0
    4791 WT1  1385 TIP3 H1   HT     0.417000        1.0080           0
    4792 WT1  1385 TIP3 H2   HT     0.417000        1.0080           0
    4793 WT1  1387 TIP3 OH2  OT    -0.834000       15.9994           0
    4794 WT1  1387 TIP3 H1   HT     0.417000        1.0080           0
    4795 WT1  1387 TIP3 H2   HT     0.417000        1.0080           0
    4796 WT1  1388 TIP3 OH2  OT    -0.834000       15.9994           0
    4797 WT1  1388 TIP3 H1   HT     0.417000        1.0080           0
    4798 WT1  1388 TIP3 H2   HT     0.417000        1.0080           0
    4799 WT1  1389 TIP3 OH2  OT    -0.834000       15.9994           0
    4800 WT1  1389 TIP3 H1   HT     0.417000        1.0080           0
    4801 WT1  1389 TIP3 H2   HT     0.417000        1.0080           0
    4802 WT1  1390 TIP3 OH2  OT    -0.834000       15.9994           0
    4803 WT1  1390 TIP3 H1   HT     0.417000        1.0080           0
    4804 WT1  1390 TIP3 H2   HT     0.417000        1.0080           0
    4805 WT1  1391 TIP3 OH2  OT    -0.834000       15.9994           0
    4806 WT1  1391 TIP3 H1   HT     0.417000        1.0080           0
    4807 WT1  1391 TIP3 H2   HT     0.417000        1.0080           0
    4808 WT1  1392 TIP3 OH2  OT    -0.834000       15.9994           0
    4809 WT1  1392 TIP3 H1   HT     0.417000        1.0080           0
    4810 WT1  1392 TIP3 H2   HT     0.417000        1.0080           0
    4811 WT1  1393 TIP3 OH2  OT    -0.834000       15.9994           0
    4812 WT1  1393 TIP3 H1   HT     0.417000        1.0080           0
    4813 WT1  1393 TIP3 H2   HT     0.417000        1.0080           0
    4814 WT1  1394 TIP3 OH2  OT    -0.834000       15.9994           0
    4815 WT1  1394 TIP3 H1   HT     0.417000        1.0080           0
    4816 WT1  1394 TIP3 H2   HT     0.417000        1.0080           0
    4817 WT1  1395 TIP3 OH2  OT    -0.834000       15.9994           0
    4818 WT1  1395 TIP3 H1   HT     0.417000        1.0080           0
    4819 WT1  1395 TIP3 H2   HT     0.417000        1.0080           0
    4820 WT1  1396 TIP3 OH2  OT    -0.834000       15.9994           0
    4821 WT1  1396 TIP3 H1   HT     0.417000        1.0080           0
    4822 WT1  1396 TIP3 H2   HT     0.417000        1.0080           0
    4823 WT1  1397 TIP3 OH2  OT    -0.834000       15.9994           0
    4824 WT1  1397 TIP3 H1   HT     0.417000        1.0080           0
    4825 WT1  1397 TIP3 H2   HT     0.417000        1.0080           0
    4826 WT1  1398 TIP3 OH2  OT    -0.834000       15.9994           0
    4827 WT1  1398 TIP3 H1   HT     0.417000        1.0080           0
    4828 WT1  1398 TIP3 H2   HT     0.417000        1.0080           0
    4829 WT1  1399 TIP3 OH2  OT    -0.834000       15.9994           0
    4830 WT1  1399 TIP3 H1   HT     0.417000        1.0080           0
    4831 WT1  1399 TIP3 H2   HT     0.417000        1.0080           0
    4832 WT1  1400 TIP3 OH2  OT    -0.834000       15.9994           0
    4833 WT1  1400 TIP3 H1   HT     0.417000        1.0080           0
    4834 WT1  1400 TIP3 H2   HT     0.417000        1.0080           0
    4835 WT1  1402 TIP3 OH2  OT    -0.834000       15.9994           0
    4836 WT1  1402 TIP3 H1   HT     0.417000        1.0080           0
    4837 WT1  1402 TIP3 H2   HT     0.417000        1.0080           0
    4838 WT1  1404 TIP3 OH2  OT    -0.834000       15.9994           0
    4839 WT1  1404 TIP3 H1   HT     0.417000        1.0080           0
    4840 WT1  1404 TIP3 H2   HT     0.417000        1.0080           0
    4841 WT1  1405 TIP3 OH2  OT    -0.834000       15.9994           0
    4842 WT1  1405 TIP3 H1   HT     0.417000        1.0080           0
    4843 WT1  1405 TIP3 H2   HT     0.417000        1.0080           0
    4844 WT1  1406 TIP3 OH2  OT    -0.834000       15.9994           0
    4845 WT1  1406 TIP3 H1   HT     0.417000        1.0080           0
    4846 WT1  1406 TIP3 H2   HT     0.417000        1.0080           0
    4847 WT1  1407 TIP3 OH2  OT    -0.834000       15.9994           0
    4848 WT1  1407 TIP3 H1   HT     0.417000        1.0080           0
    4849 WT1  1407 TIP3 H2   HT     0.417000        1.0080           0
    4850 WT1  1408 TIP3 OH2  OT    -0.834000       15.9994           0
    4851 WT1  1408 TIP3 H1   HT     0.417000        1.0080           0
    4852 WT1  1408 TIP3 H2   HT     0.417000        1.0080           0
    4853 WT1  1409 TIP3 OH2  OT    -0.834000       15.9994           0
    4854 WT1  1409 TIP3 H1   HT     0.417000        1.0080           0
    4855 WT1  1409 TIP3 H2   HT     0.417000        1.0080           0
    4856 WT1  1410 TIP3 OH2  OT    -0.834000       15.9994           0
    4857 WT1  1410 TIP3 H1   HT     0.417000        1.0080           0
    4858 WT1  1410 TIP3 H2   HT     0.417000        1.0080           0
    4859 WT1  1411 TIP3 OH2  OT    -0.834000       15.9994           0
    4860 WT1  1411 TIP3 H1   HT     0.417000        1.0080           0
    4861 WT1  1411 TIP3 H2   HT     0.417000        1.0080           0
    4862 WT1  1412 TIP3 OH2  OT    -0.834000       15.9994           0
    4863 WT1  1412 TIP3 H1   HT     0.417000        1.0080           0
    4864 WT1  1412 TIP3 H2   HT     0.417000        1.0080           0
    4865 WT1  1414 TIP3 OH2  OT    -0.834000       15.9994           0
    4866 WT1  1414 TIP3 H1   HT     0.417000        1.0080           0
    4867 WT1  1414 TIP3 H2   HT     0.417000        1.0080           0
    4868 WT1  1415 TIP3 OH2  OT    -0.834000       15.9994           0
    4869 WT1  1415 TIP3 H1   HT     0.417000        1.0080           0
    4870 WT1  1415 TIP3 H2   HT     0.417000        1.0080           0
    4871 WT1  1417 TIP3 OH2  OT    -0.834000       15.9994           0
    4872 WT1  1417 TIP3 H1   HT     0.417000        1.0080           0
    4873 WT1  1417 TIP3 H2   HT     0.417000        1.0080           0
    4874 WT1  1418 TIP3 OH2  OT    -0.834000       15.9994           0
    4875 WT1  1418 TIP3 H1   HT     0.417000        1.0080           0
    4876 WT1  1418 TIP3 H2   HT     0.417000        1.0080           0
    4877 WT1  1419 TIP3 OH2  OT    -0.834000       15.9994           0
    4878 WT1  1419 TIP3 H1   HT     0.417000        1.0080           0
    4879 WT1  1419 TIP3 H2   HT     0.417000        1.0080           0
    4880 WT1  1420 TIP3 OH2  OT    -0.834000       15.9994           0
    4881 WT1  1420 TIP3 H1   HT     0.417000        1.0080           0
    4882 WT1  1420 TIP3 H2   HT     0.417000        1.0080           0
    4883 WT1  1421 TIP3 OH2  OT    -0.834000       15.9994           0
    4884 WT1  1421 TIP3 H1   HT     0.417000        1.0080           0
    4885 WT1  1421 TIP3 H2   HT     0.417000        1.0080           0
    4886 WT1  1422 TIP3 OH2  OT    -0.834000       15.9994           0
    4887 WT1  1422 TIP3 H1   HT     0.417000        1.0080           0
    4888 WT1  1422 TIP3 H2   HT     0.417000        1.0080           0
    4889 WT1  1423 TIP3 OH2  OT    -0.834000       15.9994           0
    4890 WT1  1423 TIP3 H1   HT     0.417000        1.0080           0
    4891 WT1  1423 TIP3 H2   HT     0.417000        1.0080           0
    4892 WT1  1424 TIP3 OH2  OT    -0.834000       15.9994           0
    4893 WT1  1424 TIP3 H1   HT     0.417000        1.0080           0
    4894 WT1  1424 TIP3 H2   HT     0.417000        1.0080           0
    4895 WT1  1426 TIP3 OH2  OT    -0.834000       15.9994           0
    4896 WT1  1426 TIP3 H1   HT     0.417000        1.0080           0
    4897 WT1  1426 TIP3 H2   HT     0.417000        1.0080           0
    4898 WT1  1428 TIP3 OH2  OT    -0.834000       15.9994           0
    4899 WT1  1428 TIP3 H1   HT     0.417000        1.0080           0
    4900 WT1  1428 TIP3 H2   HT     0.417000        1.0080           0
    4901 WT1  1429 TIP3 OH2  OT    -0.834000       15.9994           0
    4902 WT1  1429 TIP3 H1   HT     0.417000        1.0080           0
    4903 WT1  1429 TIP3 H2   HT     0.417000        1.0080           0
    4904 WT1  1430 TIP3 OH2  OT    -0.834000       15.9994           0
    4905 WT1  1430 TIP3 H1   HT     0.417000        1.0080           0
    4906 WT1  1430 TIP3 H2   HT     0.417000        1.0080           0
    4907 WT1  1431 TIP3 OH2  OT    -0.834000       15.9994           0
    4908 WT1  1431 TIP3 H1   HT     0.417000        1.0080           0
    4909 WT1  1431 TIP3 H2   HT     0.417000        1.0080           0
    4910 WT1  1432 TIP3 OH2  OT    -0.834000       15.9994           0
    4911 WT1  1432 TIP3 H1   HT     0.417000        1.0080           0
    4912 WT1  1432 TIP3 H2   HT     0.417000        1.0080           0
    4913 WT1  1433 TIP3 OH2  OT    -0.834000       15.9994           0
    4914 WT1  1433 TIP3 H1   HT     0.417000        1.0080           0
    4915 WT1  1433 TIP3 H2   HT     0.417000        1.0080           0
    4916 WT1  1434 TIP3 OH2  OT    -0.834000       15.9994           0
    4917 WT1  1434 TIP3 H1   HT     0.417000        1.0080           0
    4918 WT1  1434 TIP3 H2   HT     0.417000        1.0080           0
    4919 WT1  1435 TIP3 OH2  OT    -0.834000       15.9994           0
    4920 WT1  1435 TIP3 H1   HT     0.417000        1.0080           0
    4921 WT1  1435 TIP3 H2   HT     0.417000        1.0080           0
    4922 WT1  1436 TIP3 OH2  OT    -0.834000       15.9994           0
    4923 WT1  1436 TIP3 H1   HT     0.417000        1.0080           0
    4924 WT1  1436 TIP3 H2   HT     0.417000        1.0080           0
    4925 WT1  1437 TIP3 OH2  OT    -0.834000       15.9994           0
    4926 WT1  1437 TIP3 H1   HT     0.417000        1.0080           0
    4927 WT1  1437 TIP3 H2   HT     0.417000        1.0080           0
    4928 WT1  1438 TIP3 OH2  OT    -0.834000       15.9994           0
    4929 WT1  1438 TIP3 H1   HT     0.417000        1.0080           0
    4930 WT1  1438 TIP3 H2   HT     0.417000        1.0080           0
    4931 WT1  1439 TIP3 OH2  OT    -0.834000       15.9994           0
    4932 WT1  1439 TIP3 H1   HT     0.417000        1.0080           0
    4933 WT1  1439 TIP3 H2   HT     0.417000        1.0080           0
    4934 WT1  1440 TIP3 OH2  OT    -0.834000       15.9994           0
    4935 WT1  1440 TIP3 H1   HT     0.417000        1.0080           0
    4936 WT1  1440 TIP3 H2   HT     0.417000        1.0080           0
    4937 WT1  1441 TIP3 OH2  OT    -0.834000       15.9994           0
    4938 WT1  1441 TIP3 H1   HT     0.417000        1.0080           0
    4939 WT1  1441 TIP3 H2   HT     0.417000        1.0080           0
    4940 WT1  1442 TIP3 OH2  OT    -0.834000       15.9994           0
    4941 WT1  1442 TIP3 H1   HT     0.417000        1.0080           0
    4942 WT1  1442 TIP3 H2   HT     0.417000        1.0080           0
    4943 WT1  1443 TIP3 OH2  OT    -0.834000       15.9994           0
    4944 WT1  1443 TIP3 H1   HT     0.417000        1.0080           0
    4945 WT1  1443 TIP3 H2   HT     0.417000        1.0080           0
    4946 WT1  1444 TIP3 OH2  OT    -0.834000       15.9994           0
    4947 WT1  1444 TIP3 H1   HT     0.417000        1.0080           0
    4948 WT1  1444 TIP3 H2   HT     0.417000        1.0080           0
    4949 WT1  1445 TIP3 OH2  OT    -0.834000       15.9994           0
    4950 WT1  1445 TIP3 H1   HT     0.417000        1.0080           0
    4951 WT1  1445 TIP3 H2   HT     0.417000        1.0080           0
    4952 WT1  1446 TIP3 OH2  OT    -0.834000       15.9994           0
    4953 WT1  1446 TIP3 H1   HT     0.417000        1.0080           0
    4954 WT1  1446 TIP3 H2   HT     0.417000        1.0080           0
    4955 WT1  1447 TIP3 OH2  OT    -0.834000       15.9994           0
    4956 WT1  1447 TIP3 H1   HT     0.417000        1.0080           0
    4957 WT1  1447 TIP3 H2   HT     0.417000        1.0080           0
    4958 WT1  1448 TIP3 OH2  OT    -0.834000       15.9994           0
    4959 WT1  1448 TIP3 H1   HT     0.417000        1.0080           0
    4960 WT1  1448 TIP3 H2   HT     0.417000        1.0080           0
    4961 WT1  1449 TIP3 OH2  OT    -0.834000       15.9994           0
    4962 WT1  1449 TIP3 H1   HT     0.417000        1.0080           0
    4963 WT1  1449 TIP3 H2   HT     0.417000        1.0080           0
    4964 WT1  1450 TIP3 OH2  OT    -0.834000       15.9994           0
    4965 WT1  1450 TIP3 H1   HT     0.417000        1.0080           0
    4966 WT1  1450 TIP3 H2   HT     0.417000        1.0080           0
    4967 WT1  1451 TIP3 OH2  OT    -0.834000       15.9994           0
    4968 WT1  1451 TIP3 H1   HT     0.417000        1.0080           0
    4969 WT1  1451 TIP3 H2   HT     0.417000        1.0080           0
    4970 WT1  1453 TIP3 OH2  OT    -0.834000       15.9994           0
    4971 WT1  1453 TIP3 H1   HT     0.417000        1.0080           0
    4972 WT1  1453 TIP3 H2   HT     0.417000        1.0080           0
    4973 WT1  1454 TIP3 OH2  OT    -0.834000       15.9994           0
    4974 WT1  1454 TIP3 H1   HT     0.417000        1.0080           0
    4975 WT1  1454 TIP3 H2   HT     0.417000        1.0080           0
    4976 WT1  1455 TIP3 OH2  OT    -0.834000       15.9994           0
    4977 WT1  1455 TIP3 H1   HT     0.417000        1.0080           0
    4978 WT1  1455 TIP3 H2   HT     0.417000        1.0080           0
    4979 WT1  1456 TIP3 OH2  OT    -0.834000       15.9994           0
    4980 WT1  1456 TIP3 H1   HT     0.417000        1.0080           0
    4981 WT1  1456 TIP3 H2   HT     0.417000        1.0080           0
    4982 WT1  1457 TIP3 OH2  OT    -0.834000       15.9994           0
    4983 WT1  1457 TIP3 H1   HT     0.417000        1.0080           0
    4984 WT1  1457 TIP3 H2   HT     0.417000        1.0080           0
    4985 WT1  1458 TIP3 OH2  OT    -0.834000       15.9994           0
    4986 WT1  1458 TIP3 H1   HT     0.417000        1.0080           0
    4987 WT1  1458 TIP3 H2   HT     0.417000        1.0080           0
    4988 WT1  1460 TIP3 OH2  OT    -0.834000       15.9994           0
    4989 WT1  1460 TIP3 H1   HT     0.417000        1.0080           0
    4990 WT1  1460 TIP3 H2   HT     0.417000        1.0080           0
    4991 WT1  1461 TIP3 OH2  OT    -0.834000       15.9994           0
    4992 WT1  1461 TIP3 H1   HT     0.417000        1.0080           0
    4993 WT1  1461 TIP3 H2   HT     0.417000        1.0080           0
    4994 WT1  1463 TIP3 OH2  OT    -0.834000       15.9994           0
    4995 WT1  1463 TIP3 H1   HT     0.417000        1.0080           0
    4996 WT1  1463 TIP3 H2   HT     0.417000        1.0080           0
    4997 WT1  1464 TIP3 OH2  OT    -0.834000       15.9994           0
    4998 WT1  1464 TIP3 H1   HT     0.417000        1.0080           0
    4999 WT1  1464 TIP3 H2   HT     0.417000        1.0080           0
    5000 WT1  1465 TIP3 OH2  OT    -0.834000       15.9994           0
    5001 WT1  1465 TIP3 H1   HT     0.417000        1.0080           0
    5002 WT1  1465 TIP3 H2   HT     0.417000        1.0080           0
    5003 WT1  1466 TIP3 OH2  OT    -0.834000       15.9994           0
    5004 WT1  1466 TIP3 H1   HT     0.417000        1.0080           0
    5005 WT1  1466 TIP3 H2   HT     0.417000        1.0080           0
    5006 WT1  1467 TIP3 OH2  OT    -0.834000       15.9994           0
    5007 WT1  1467 TIP3 H1   HT     0.417000        1.0080           0
    5008 WT1  1467 TIP3 H2   HT     0.417000        1.0080           0
    5009 WT1  1468 TIP3 OH2  OT    -0.834000       15.9994           0
    5010 WT1  1468 TIP3 H1   HT     0.417000        1.0080           0
    5011 WT1  1468 TIP3 H2   HT     0.417000        1.0080           0
    5012 WT1  1469 TIP3 OH2  OT    -0.834000       15.9994           0
    5013 WT1  1469 TIP3 H1   HT     0.417000        1.0080           0
    5014 WT1  1469 TIP3 H2   HT     0.417000        1.0080           0
    5015 WT1  1470 TIP3 OH2  OT    -0.834000       15.9994           0
    5016 WT1  1470 TIP3 H1   HT     0.417000        1.0080           0
    5017 WT1  1470 TIP3 H2   HT     0.417000        1.0080           0
    5018 WT1  1475 TIP3 OH2  OT    -0.834000       15.9994           0
    5019 WT1  1475 TIP3 H1   HT     0.417000        1.0080           0
    5020 WT1  1475 TIP3 H2   HT     0.417000        1.0080           0
    5021 WT1  1476 TIP3 OH2  OT    -0.834000       15.9994           0
    5022 WT1  1476 TIP3 H1   HT     0.417000        1.0080           0
    5023 WT1  1476 TIP3 H2   HT     0.417000        1.0080           0
    5024 WT1  1477 TIP3 OH2  OT    -0.834000       15.9994           0
    5025 WT1  1477 TIP3 H1   HT     0.417000        1.0080           0
    5026 WT1  1477 TIP3 H2   HT     0.417000        1.0080           0
    5027 WT1  1479 TIP3 OH2  OT    -0.834000       15.9994           0
    5028 WT1  1479 TIP3 H1   HT     0.417000        1.0080           0
    5029 WT1  1479 TIP3 H2   HT     0.417000        1.0080           0
    5030 WT1  1481 TIP3 OH2  OT    -0.834000       15.9994           0
    5031 WT1  1481 TIP3 H1   HT     0.417000        1.0080           0
    5032 WT1  1481 TIP3 H2   HT     0.417000        1.0080           0
    5033 WT1  1482 TIP3 OH2  OT    -0.834000       15.9994           0
    5034 WT1  1482 TIP3 H1   HT     0.417000        1.0080           0
    5035 WT1  1482 TIP3 H2   HT     0.417000        1.0080           0
    5036 WT1  1483 TIP3 OH2  OT    -0.834000       15.9994           0
    5037 WT1  1483 TIP3 H1   HT     0.417000        1.0080           0
    5038 WT1  1483 TIP3 H2   HT     0.417000        1.0080           0
    5039 WT1  1484 TIP3 OH2  OT    -0.834000       15.9994           0
    5040 WT1  1484 TIP3 H1   HT     0.417000        1.0080           0
    5041 WT1  1484 TIP3 H2   HT     0.417000        1.0080           0
    5042 WT1  1485 TIP3 OH2  OT    -0.834000       15.9994           0
    5043 WT1  1485 TIP3 H1   HT     0.417000        1.0080           0
    5044 WT1  1485 TIP3 H2   HT     0.417000        1.0080           0
    5045 WT1  1486 TIP3 OH2  OT    -0.834000       15.9994           0
    5046 WT1  1486 TIP3 H1   HT     0.417000        1.0080           0
    5047 WT1  1486 TIP3 H2   HT     0.417000        1.0080           0
    5048 WT1  1487 TIP3 OH2  OT    -0.834000       15.9994           0
    5049 WT1  1487 TIP3 H1   HT     0.417000        1.0080           0
    5050 WT1  1487 TIP3 H2   HT     0.417000        1.0080           0
    5051 WT1  1488 TIP3 OH2  OT    -0.834000       15.9994           0
    5052 WT1  1488 TIP3 H1   HT     0.417000        1.0080           0
    5053 WT1  1488 TIP3 H2   HT     0.417000        1.0080           0
    5054 WT1  1489 TIP3 OH2  OT    -0.834000       15.9994           0
    5055 WT1  1489 TIP3 H1   HT     0.417000        1.0080           0
    5056 WT1  1489 TIP3 H2   HT     0.417000        1.0080           0
    5057 WT1  1490 TIP3 OH2  OT    -0.834000       15.9994           0
    5058 WT1  1490 TIP3 H1   HT     0.417000        1.0080           0
    5059 WT1  1490 TIP3 H2   HT     0.417000        1.0080           0
    5060 WT1  1491 TIP3 OH2  OT    -0.834000       15.9994           0
    5061 WT1  1491 TIP3 H1   HT     0.417000        1.0080           0
    5062 WT1  1491 TIP3 H2   HT     0.417000        1.0080           0
    5063 WT1  1492 TIP3 OH2  OT    -0.834000       15.9994           0
    5064 WT1  1492 TIP3 H1   HT     0.417000        1.0080           0
    5065 WT1  1492 TIP3 H2   HT     0.417000        1.0080           0
    5066 WT1  1494 TIP3 OH2  OT    -0.834000       15.9994           0
    5067 WT1  1494 TIP3 H1   HT     0.417000        1.0080           0
    5068 WT1  1494 TIP3 H2   HT     0.417000        1.0080           0
    5069 WT1  1495 TIP3 OH2  OT    -0.834000       15.9994           0
    5070 WT1  1495 TIP3 H1   HT     0.417000        1.0080           0
    5071 WT1  1495 TIP3 H2   HT     0.417000        1.0080           0
    5072 WT1  1496 TIP3 OH2  OT    -0.834000       15.9994           0
    5073 WT1  1496 TIP3 H1   HT     0.417000        1.0080           0
    5074 WT1  1496 TIP3 H2   HT     0.417000        1.0080           0
    5075 WT1  1497 TIP3 OH2  OT    -0.834000       15.9994           0
    5076 WT1  1497 TIP3 H1   HT     0.417000        1.0080           0
    5077 WT1  1497 TIP3 H2   HT     0.417000        1.0080           0
    5078 WT1  1498 TIP3 OH2  OT    -0.834000       15.9994           0
    5079 WT1  1498 TIP3 H1   HT     0.417000        1.0080           0
    5080 WT1  1498 TIP3 H2   HT     0.417000        1.0080           0
    5081 WT1  1499 TIP3 OH2  OT    -0.834000       15.9994           0
    5082 WT1  1499 TIP3 H1   HT     0.417000        1.0080           0
    5083 WT1  1499 TIP3 H2   HT     0.417000        1.0080           0
    5084 WT1  1500 TIP3 OH2  OT    -0.834000       15.9994           0
    5085 WT1  1500 TIP3 H1   HT     0.417000        1.0080           0
    5086 WT1  1500 TIP3 H2   HT     0.417000        1.0080           0
    5087 WT1  1501 TIP3 OH2  OT    -0.834000       15.9994           0
    5088 WT1  1501 TIP3 H1   HT     0.417000        1.0080           0
    5089 WT1  1501 TIP3 H2   HT     0.417000        1.0080           0
    5090 WT1  1502 TIP3 OH2  OT    -0.834000       15.9994           0
    5091 WT1  1502 TIP3 H1   HT     0.417000        1.0080           0
    5092 WT1  1502 TIP3 H2   HT     0.417000        1.0080           0
    5093 WT1  1503 TIP3 OH2  OT    -0.834000       15.9994           0
    5094 WT1  1503 TIP3 H1   HT     0.417000        1.0080           0
    5095 WT1  1503 TIP3 H2   HT     0.417000        1.0080           0
    5096 WT1  1505 TIP3 OH2  OT    -0.834000       15.9994           0
    5097 WT1  1505 TIP3 H1   HT     0.417000        1.0080           0
    5098 WT1  1505 TIP3 H2   HT     0.417000        1.0080           0
    5099 WT1  1506 TIP3 OH2  OT    -0.834000       15.9994           0
    5100 WT1  1506 TIP3 H1   HT     0.417000        1.0080           0
    5101 WT1  1506 TIP3 H2   HT     0.417000        1.0080           0
    5102 WT1  1507 TIP3 OH2  OT    -0.834000       15.9994           0
    5103 WT1  1507 TIP3 H1   HT     0.417000        1.0080           0
    5104 WT1  1507 TIP3 H2   HT     0.417000        1.0080           0
    5105 WT1  1508 TIP3 OH2  OT    -0.834000       15.9994           0
    5106 WT1  1508 TIP3 H1   HT     0.417000        1.0080           0
    5107 WT1  1508 TIP3 H2   HT     0.417000        1.0080           0
    5108 WT1  1509 TIP3 OH2  OT    -0.834000       15.9994           0
    5109 WT1  1509 TIP3 H1   HT     0.417000        1.0080           0
    5110 WT1  1509 TIP3 H2   HT     0.417000        1.0080           0
    5111 WT1  1510 TIP3 OH2  OT    -0.834000       15.9994           0
    5112 WT1  1510 TIP3 H1   HT     0.417000        1.0080           0
    5113 WT1  1510 TIP3 H2   HT     0.417000        1.0080           0
    5114 WT1  1511 TIP3 OH2  OT    -0.834000       15.9994           0
    5115 WT1  1511 TIP3 H1   HT     0.417000        1.0080           0
    5116 WT1  1511 TIP3 H2   HT     0.417000        1.0080           0
    5117 WT1  1513 TIP3 OH2  OT    -0.834000       15.9994           0
    5118 WT1  1513 TIP3 H1   HT     0.417000        1.0080           0
    5119 WT1  1513 TIP3 H2   HT     0.417000        1.0080           0
    5120 WT1  1514 TIP3 OH2  OT    -0.834000       15.9994           0
    5121 WT1  1514 TIP3 H1   HT     0.417000        1.0080           0
    5122 WT1  1514 TIP3 H2   HT     0.417000        1.0080           0
    5123 WT1  1515 TIP3 OH2  OT    -0.834000       15.9994           0
    5124 WT1  1515 TIP3 H1   HT     0.417000        1.0080           0
    5125 WT1  1515 TIP3 H2   HT     0.417000        1.0080           0
    5126 WT1  1516 TIP3 OH2  OT    -0.834000       15.9994           0
    5127 WT1  1516 TIP3 H1   HT     0.417000        1.0080           0
    5128 WT1  1516 TIP3 H2   HT     0.417000        1.0080           0
    5129 WT1  1517 TIP3 OH2  OT    -0.834000       15.9994           0
    5130 WT1  1517 TIP3 H1   HT     0.417000        1.0080           0
    5131 WT1  1517 TIP3 H2   HT     0.417000        1.0080           0
    5132 WT1  1518 TIP3 OH2  OT    -0.834000       15.9994           0
    5133 WT1  1518 TIP3 H1   HT     0.417000        1.0080           0
    5134 WT1  1518 TIP3 H2   HT     0.417000        1.0080           0
    5135 WT1  1519 TIP3 OH2  OT    -0.834000       15.9994           0
    5136 WT1  1519 TIP3 H1   HT     0.417000        1.0080           0
    5137 WT1  1519 TIP3 H2   HT     0.417000        1.0080           0
    5138 WT1  1521 TIP3 OH2  OT    -0.834000       15.9994           0
    5139 WT1  1521 TIP3 H1   HT     0.417000        1.0080           0
    5140 WT1  1521 TIP3 H2   HT     0.417000        1.0080           0
    5141 WT1  1522 TIP3 OH2  OT    -0.834000       15.9994           0
    5142 WT1  1522 TIP3 H1   HT     0.417000        1.0080           0
    5143 WT1  1522 TIP3 H2   HT     0.417000        1.0080           0
    5144 WT1  1523 TIP3 OH2  OT    -0.834000       15.9994           0
    5145 WT1  1523 TIP3 H1   HT     0.417000        1.0080           0
    5146 WT1  1523 TIP3 H2   HT     0.417000        1.0080           0
    5147 WT1  1524 TIP3 OH2  OT    -0.834000       15.9994           0
    5148 WT1  1524 TIP3 H1   HT     0.417000        1.0080           0
    5149 WT1  1524 TIP3 H2   HT     0.417000        1.0080           0
    5150 WT1  1525 TIP3 OH2  OT    -0.834000       15.9994           0
    5151 WT1  1525 TIP3 H1   HT     0.417000        1.0080           0
    5152 WT1  1525 TIP3 H2   HT     0.417000        1.0080           0
    5153 WT1  1526 TIP3 OH2  OT    -0.834000       15.9994           0
    5154 WT1  1526 TIP3 H1   HT     0.417000        1.0080           0
    5155 WT1  1526 TIP3 H2   HT     0.417000        1.0080           0
    5156 WT1  1527 TIP3 OH2  OT    -0.834000       15.9994           0
    5157 WT1  1527 TIP3 H1   HT     0.417000        1.0080           0
    5158 WT1  1527 TIP3 H2   HT     0.417000        1.0080           0
    5159 WT1  1528 TIP3 OH2  OT    -0.834000       15.9994           0
    5160 WT1  1528 TIP3 H1   HT     0.417000        1.0080           0
    5161 WT1  1528 TIP3 H2   HT     0.417000        1.0080           0
    5162 WT1  1529 TIP3 OH2  OT    -0.834000       15.9994           0
    5163 WT1  1529 TIP3 H1   HT     0.417000        1.0080           0
    5164 WT1  1529 TIP3 H2   HT     0.417000        1.0080           0
    5165 WT1  1530 TIP3 OH2  OT    -0.834000       15.9994           0
    5166 WT1  1530 TIP3 H1   HT     0.417000        1.0080           0
    5167 WT1  1530 TIP3 H2   HT     0.417000        1.0080           0
    5168 WT1  1531 TIP3 OH2  OT    -0.834000       15.9994           0
    5169 WT1  1531 TIP3 H1   HT     0.417000        1.0080           0
    5170 WT1  1531 TIP3 H2   HT     0.417000        1.0080           0
    5171 WT1  1532 TIP3 OH2  OT    -0.834000       15.9994           0
    5172 WT1  1532 TIP3 H1   HT     0.417000        1.0080           0
    5173 WT1  1532 TIP3 H2   HT     0.417000        1.0080           0
    5174 WT1  1533 TIP3 OH2  OT    -0.834000       15.9994           0
    5175 WT1  1533 TIP3 H1   HT     0.417000        1.0080           0
    5176 WT1  1533 TIP3 H2   HT     0.417000        1.0080           0
    5177 WT1  1534 TIP3 OH2  OT    -0.834000       15.9994           0
    5178 WT1  1534 TIP3 H1   HT     0.417000        1.0080           0
    5179 WT1  1534 TIP3 H2   HT     0.417000        1.0080           0
    5180 WT1  1536 TIP3 OH2  OT    -0.834000       15.9994           0
    5181 WT1  1536 TIP3 H1   HT     0.417000        1.0080           0
    5182 WT1  1536 TIP3 H2   HT     0.417000        1.0080           0
    5183 WT1  1537 TIP3 OH2  OT    -0.834000       15.9994           0
    5184 WT1  1537 TIP3 H1   HT     0.417000        1.0080           0
    5185 WT1  1537 TIP3 H2   HT     0.417000        1.0080           0
    5186 WT1  1538 TIP3 OH2  OT    -0.834000       15.9994           0
    5187 WT1  1538 TIP3 H1   HT     0.417000        1.0080           0
    5188 WT1  1538 TIP3 H2   HT     0.417000        1.0080           0
    5189 WT1  1539 TIP3 OH2  OT    -0.834000       15.9994           0
    5190 WT1  1539 TIP3 H1   HT     0.417000        1.0080           0
    5191 WT1  1539 TIP3 H2   HT     0.417000        1.0080           0
    5192 WT1  1540 TIP3 OH2  OT    -0.834000       15.9994           0
    5193 WT1  1540 TIP3 H1   HT     0.417000        1.0080           0
    5194 WT1  1540 TIP3 H2   HT     0.417000        1.0080           0
    5195 WT1  1541 TIP3 OH2  OT    -0.834000       15.9994           0
    5196 WT1  1541 TIP3 H1   HT     0.417000        1.0080           0
    5197 WT1  1541 TIP3 H2   HT     0.417000        1.0080           0
    5198 WT1  1542 TIP3 OH2  OT    -0.834000       15.9994           0
    5199 WT1  1542 TIP3 H1   HT     0.417000        1.0080           0
    5200 WT1  1542 TIP3 H2   HT     0.417000        1.0080           0
    5201 WT1  1543 TIP3 OH2  OT    -0.834000       15.9994           0
    5202 WT1  1543 TIP3 H1   HT     0.417000        1.0080           0
    5203 WT1  1543 TIP3 H2   HT     0.417000        1.0080           0
    5204 WT1  1544 TIP3 OH2  OT    -0.834000       15.9994           0
    5205 WT1  1544 TIP3 H1   HT     0.417000        1.0080           0
    5206 WT1  1544 TIP3 H2   HT     0.417000        1.0080           0
    5207 WT1  1545 TIP3 OH2  OT    -0.834000       15.9994           0
    5208 WT1  1545 TIP3 H1   HT     0.417000        1.0080           0
    5209 WT1  1545 TIP3 H2   HT     0.417000        1.0080           0
    5210 WT1  1546 TIP3 OH2  OT    -0.834000       15.9994           0
    5211 WT1  1546 TIP3 H1   HT     0.417000        1.0080           0
    5212 WT1  1546 TIP3 H2   HT     0.417000        1.0080           0
    5213 WT1  1547 TIP3 OH2  OT    -0.834000       15.9994           0
    5214 WT1  1547 TIP3 H1   HT     0.417000        1.0080           0
    5215 WT1  1547 TIP3 H2   HT     0.417000        1.0080           0
    5216 WT1  1548 TIP3 OH2  OT    -0.834000       15.9994           0
    5217 WT1  1548 TIP3 H1   HT     0.417000        1.0080           0
    5218 WT1  1548 TIP3 H2   HT     0.417000        1.0080           0
    5219 WT1  1549 TIP3 OH2  OT    -0.834000       15.9994           0
    5220 WT1  1549 TIP3 H1   HT     0.417000        1.0080           0
    5221 WT1  1549 TIP3 H2   HT     0.417000        1.0080           0
    5222 WT1  1551 TIP3 OH2  OT    -0.834000       15.9994           0
    5223 WT1  1551 TIP3 H1   HT     0.417000        1.0080           0
    5224 WT1  1551 TIP3 H2   HT     0.417000        1.0080           0
    5225 WT1  1552 TIP3 OH2  OT    -0.834000       15.9994           0
    5226 WT1  1552 TIP3 H1   HT     0.417000        1.0080           0
    5227 WT1  1552 TIP3 H2   HT     0.417000        1.0080           0
    5228 WT1  1553 TIP3 OH2  OT    -0.834000       15.9994           0
    5229 WT1  1553 TIP3 H1   HT     0.417000        1.0080           0
    5230 WT1  1553 TIP3 H2   HT     0.417000        1.0080           0
    5231 WT1  1554 TIP3 OH2  OT    -0.834000       15.9994           0
    5232 WT1  1554 TIP3 H1   HT     0.417000        1.0080           0
    5233 WT1  1554 TIP3 H2   HT     0.417000        1.0080           0
    5234 WT1  1555 TIP3 OH2  OT    -0.834000       15.9994           0
    5235 WT1  1555 TIP3 H1   HT     0.417000        1.0080           0
    5236 WT1  1555 TIP3 H2   HT     0.417000        1.0080           0
    5237 WT1  1557 TIP3 OH2  OT    -0.834000       15.9994           0
    5238 WT1  1557 TIP3 H1   HT     0.417000        1.0080           0
    5239 WT1  1557 TIP3 H2   HT     0.417000        1.0080           0
    5240 WT1  1558 TIP3 OH2  OT    -0.834000       15.9994           0
    5241 WT1  1558 TIP3 H1   HT     0.417000        1.0080           0
    5242 WT1  1558 TIP3 H2   HT     0.417000        1.0080           0
    5243 WT1  1561 TIP3 OH2  OT    -0.834000       15.9994           0
    5244 WT1  1561 TIP3 H1   HT     0.417000        1.0080           0
    5245 WT1  1561 TIP3 H2   HT     0.417000        1.0080           0
    5246 WT1  1562 TIP3 OH2  OT    -0.834000       15.9994           0
    5247 WT1  1562 TIP3 H1   HT     0.417000        1.0080           0
    5248 WT1  1562 TIP3 H2   HT     0.417000        1.0080           0
    5249 WT1  1563 TIP3 OH2  OT    -0.834000       15.9994           0
    5250 WT1  1563 TIP3 H1   HT     0.417000        1.0080           0
    5251 WT1  1563 TIP3 H2   HT     0.417000        1.0080           0
    5252 WT1  1564 TIP3 OH2  OT    -0.834000       15.9994           0
    5253 WT1  1564 TIP3 H1   HT     0.417000        1.0080           0
    5254 WT1  1564 TIP3 H2   HT     0.417000        1.0080           0
    5255 WT1  1565 TIP3 OH2  OT    -0.834000       15.9994           0
    5256 WT1  1565 TIP3 H1   HT     0.417000        1.0080           0
    5257 WT1  1565 TIP3 H2   HT     0.417000        1.0080           0
    5258 WT1  1566 TIP3 OH2  OT    -0.834000       15.9994           0
    5259 WT1  1566 TIP3 H1   HT     0.417000        1.0080           0
    5260 WT1  1566 TIP3 H2   HT     0.417000        1.0080           0
    5261 WT1  1567 TIP3 OH2  OT    -0.834000       15.9994           0
    5262 WT1  1567 TIP3 H1   HT     0.417000        1.0080           0
    5263 WT1  1567 TIP3 H2   HT     0.417000        1.0080           0
    5264 WT1  1568 TIP3 OH2  OT    -0.834000       15.9994           0
    5265 WT1  1568 TIP3 H1   HT     0.417000        1.0080           0
    5266 WT1  1568 TIP3 H2   HT     0.417000        1.0080           0
    5267 WT1  1569 TIP3 OH2  OT    -0.834000       15.9994           0
    5268 WT1  1569 TIP3 H1   HT     0.417000        1.0080           0
    5269 WT1  1569 TIP3 H2   HT     0.417000        1.0080           0
    5270 WT1  1570 TIP3 OH2  OT    -0.834000       15.9994           0
    5271 WT1  1570 TIP3 H1   HT     0.417000        1.0080           0
    5272 WT1  1570 TIP3 H2   HT     0.417000        1.0080           0
    5273 WT1  1571 TIP3 OH2  OT    -0.834000       15.9994           0
    5274 WT1  1571 TIP3 H1   HT     0.417000        1.0080           0
    5275 WT1  1571 TIP3 H2   HT     0.417000        1.0080           0
    5276 WT1  1574 TIP3 OH2  OT    -0.834000       15.9994           0
    5277 WT1  1574 TIP3 H1   HT     0.417000        1.0080           0
    5278 WT1  1574 TIP3 H2   HT     0.417000        1.0080           0
    5279 WT1  1575 TIP3 OH2  OT    -0.834000       15.9994           0
    5280 WT1  1575 TIP3 H1   HT     0.417000        1.0080           0
    5281 WT1  1575 TIP3 H2   HT     0.417000        1.0080           0
    5282 WT1  1576 TIP3 OH2  OT    -0.834000       15.9994           0
    5283 WT1  1576 TIP3 H1   HT     0.417000        1.0080           0
    5284 WT1  1576 TIP3 H2   HT     0.417000        1.0080           0
    5285 WT1  1577 TIP3 OH2  OT    -0.834000       15.9994           0
    5286 WT1  1577 TIP3 H1   HT     0.417000        1.0080           0
    5287 WT1  1577 TIP3 H2   HT     0.417000        1.0080           0
    5288 WT1  1578 TIP3 OH2  OT    -0.834000       15.9994           0
    5289 WT1  1578 TIP3 H1   HT     0.417000        1.0080           0
    5290 WT1  1578 TIP3 H2   HT     0.417000        1.0080           0
    5291 WT1  1580 TIP3 OH2  OT    -0.834000       15.9994           0
    5292 WT1  1580 TIP3 H1   HT     0.417000        1.0080           0
    5293 WT1  1580 TIP3 H2   HT     0.417000        1.0080           0
    5294 WT1  1581 TIP3 OH2  OT    -0.834000       15.9994           0
    5295 WT1  1581 TIP3 H1   HT     0.417000        1.0080           0
    5296 WT1  1581 TIP3 H2   HT     0.417000        1.0080           0
    5297 WT1  1582 TIP3 OH2  OT    -0.834000       15.9994           0
    5298 WT1  1582 TIP3 H1   HT     0.417000        1.0080           0
    5299 WT1  1582 TIP3 H2   HT     0.417000        1.0080           0
    5300 WT1  1583 TIP3 OH2  OT    -0.834000       15.9994           0
    5301 WT1  1583 TIP3 H1   HT     0.417000        1.0080           0
    5302 WT1  1583 TIP3 H2   HT     0.417000        1.0080           0
    5303 WT1  1584 TIP3 OH2  OT    -0.834000       15.9994           0
    5304 WT1  1584 TIP3 H1   HT     0.417000        1.0080           0
    5305 WT1  1584 TIP3 H2   HT     0.417000        1.0080           0
    5306 WT1  1585 TIP3 OH2  OT    -0.834000       15.9994           0
    5307 WT1  1585 TIP3 H1   HT     0.417000        1.0080           0
    5308 WT1  1585 TIP3 H2   HT     0.417000        1.0080           0
    5309 WT1  1586 TIP3 OH2  OT    -0.834000       15.9994           0
    5310 WT1  1586 TIP3 H1   HT     0.417000        1.0080           0
    5311 WT1  1586 TIP3 H2   HT     0.417000        1.0080           0
    5312 WT1  1587 TIP3 OH2  OT    -0.834000       15.9994           0
    5313 WT1  1587 TIP3 H1   HT     0.417000        1.0080           0
    5314 WT1  1587 TIP3 H2   HT     0.417000        1.0080           0
    5315 WT1  1588 TIP3 OH2  OT    -0.834000       15.9994           0
    5316 WT1  1588 TIP3 H1   HT     0.417000        1.0080           0
    5317 WT1  1588 TIP3 H2   HT     0.417000        1.0080           0
    5318 WT1  1589 TIP3 OH2  OT    -0.834000       15.9994           0
    5319 WT1  1589 TIP3 H1   HT     0.417000        1.0080           0
    5320 WT1  1589 TIP3 H2   HT     0.417000        1.0080           0
    5321 WT1  1590 TIP3 OH2  OT    -0.834000       15.9994           0
    5322 WT1  1590 TIP3 H1   HT     0.417000        1.0080           0
    5323 WT1  1590 TIP3 H2   HT     0.417000        1.0080           0
    5324 WT1  1591 TIP3 OH2  OT    -0.834000       15.9994           0
    5325 WT1  1591 TIP3 H1   HT     0.417000        1.0080           0
    5326 WT1  1591 TIP3 H2   HT     0.417000        1.0080           0
    5327 WT1  1592 TIP3 OH2  OT    -0.834000       15.9994           0
    5328 WT1  1592 TIP3 H1   HT     0.417000        1.0080           0
    5329 WT1  1592 TIP3 H2   HT     0.417000        1.0080           0
    5330 WT1  1593 TIP3 OH2  OT    -0.834000       15.9994           0
    5331 WT1  1593 TIP3 H1   HT     0.417000        1.0080           0
    5332 WT1  1593 TIP3 H2   HT     0.417000        1.0080           0
    5333 WT1  1594 TIP3 OH2  OT    -0.834000       15.9994           0
    5334 WT1  1594 TIP3 H1   HT     0.417000        1.0080           0
    5335 WT1  1594 TIP3 H2   HT     0.417000        1.0080           0
    5336 WT1  1595 TIP3 OH2  OT    -0.834000       15.9994           0
    5337 WT1  1595 TIP3 H1   HT     0.417000        1.0080           0
    5338 WT1  1595 TIP3 H2   HT     0.417000        1.0080           0
    5339 WT1  1596 TIP3 OH2  OT    -0.834000       15.9994           0
    5340 WT1  1596 TIP3 H1   HT     0.417000        1.0080           0
    5341 WT1  1596 TIP3 H2   HT     0.417000        1.0080           0
    5342 WT1  1597 TIP3 OH2  OT    -0.834000       15.9994           0
    5343 WT1  1597 TIP3 H1   HT     0.417000        1.0080           0
    5344 WT1  1597 TIP3 H2   HT     0.417000        1.0080           0
    5345 WT1  1598 TIP3 OH2  OT    -0.834000       15.9994           0
    5346 WT1  1598 TIP3 H1   HT     0.417000        1.0080           0
    5347 WT1  1598 TIP3 H2   HT     0.417000        1.0080           0
    5348 WT1  1599 TIP3 OH2  OT    -0.834000       15.9994           0
    5349 WT1  1599 TIP3 H1   HT     0.417000        1.0080           0
    5350 WT1  1599 TIP3 H2   HT     0.417000        1.0080           0
    5351 WT1  1600 TIP3 OH2  OT    -0.834000       15.9994           0
    5352 WT1  1600 TIP3 H1   HT     0.417000        1.0080           0
    5353 WT1  1600 TIP3 H2   HT     0.417000        1.0080           0
    5354 WT1  1602 TIP3 OH2  OT    -0.834000       15.9994           0
    5355 WT1  1602 TIP3 H1   HT     0.417000        1.0080           0
    5356 WT1  1602 TIP3 H2   HT     0.417000        1.0080           0
    5357 WT1  1603 TIP3 OH2  OT    -0.834000       15.9994           0
    5358 WT1  1603 TIP3 H1   HT     0.417000        1.0080           0
    5359 WT1  1603 TIP3 H2   HT     0.417000        1.0080           0
    5360 WT1  1604 TIP3 OH2  OT    -0.834000       15.9994           0
    5361 WT1  1604 TIP3 H1   HT     0.417000        1.0080           0
    5362 WT1  1604 TIP3 H2   HT     0.417000        1.0080           0
    5363 WT1  1605 TIP3 OH2  OT    -0.834000       15.9994           0
    5364 WT1  1605 TIP3 H1   HT     0.417000        1.0080           0
    5365 WT1  1605 TIP3 H2   HT     0.417000        1.0080           0
    5366 WT1  1606 TIP3 OH2  OT    -0.834000       15.9994           0
    5367 WT1  1606 TIP3 H1   HT     0.417000        1.0080           0
    5368 WT1  1606 TIP3 H2   HT     0.417000        1.0080           0
    5369 WT1  1607 TIP3 OH2  OT    -0.834000       15.9994           0
    5370 WT1  1607 TIP3 H1   HT     0.417000        1.0080           0
    5371 WT1  1607 TIP3 H2   HT     0.417000        1.0080           0
    5372 WT1  1609 TIP3 OH2  OT    -0.834000       15.9994           0
    5373 WT1  1609 TIP3 H1   HT     0.417000        1.0080           0
    5374 WT1  1609 TIP3 H2   HT     0.417000        1.0080           0
    5375 WT1  1610 TIP3 OH2  OT    -0.834000       15.9994           0
    5376 WT1  1610 TIP3 H1   HT     0.417000        1.0080           0
    5377 WT1  1610 TIP3 H2   HT     0.417000        1.0080           0
    5378 WT1  1611 TIP3 OH2  OT    -0.834000       15.9994           0
    5379 WT1  1611 TIP3 H1   HT     0.417000        1.0080           0
    5380 WT1  1611 TIP3 H2   HT     0.417000        1.0080           0
    5381 WT1  1612 TIP3 OH2  OT    -0.834000       15.9994           0
    5382 WT1  1612 TIP3 H1   HT     0.417000        1.0080           0
    5383 WT1  1612 TIP3 H2   HT     0.417000        1.0080           0
    5384 WT1  1613 TIP3 OH2  OT    -0.834000       15.9994           0
    5385 WT1  1613 TIP3 H1   HT     0.417000        1.0080           0
    5386 WT1  1613 TIP3 H2   HT     0.417000        1.0080           0
    5387 WT1  1614 TIP3 OH2  OT    -0.834000       15.9994           0
    5388 WT1  1614 TIP3 H1   HT     0.417000        1.0080           0
    5389 WT1  1614 TIP3 H2   HT     0.417000        1.0080           0
    5390 WT1  1615 TIP3 OH2  OT    -0.834000       15.9994           0
    5391 WT1  1615 TIP3 H1   HT     0.417000        1.0080           0
    5392 WT1  1615 TIP3 H2   HT     0.417000        1.0080           0
    5393 WT1  1616 TIP3 OH2  OT    -0.834000       15.9994           0
    5394 WT1  1616 TIP3 H1   HT     0.417000        1.0080           0
    5395 WT1  1616 TIP3 H2   HT     0.417000        1.0080           0
    5396 WT1  1617 TIP3 OH2  OT    -0.834000       15.9994           0
    5397 WT1  1617 TIP3 H1   HT     0.417000        1.0080           0
    5398 WT1  1617 TIP3 H2   HT     0.417000        1.0080           0
    5399 WT1  1618 TIP3 OH2  OT    -0.834000       15.9994           0
    5400 WT1  1618 TIP3 H1   HT     0.417000        1.0080           0
    5401 WT1  1618 TIP3 H2   HT     0.417000        1.0080           0
    5402 WT1  1619 TIP3 OH2  OT    -0.834000       15.9994           0
    5403 WT1  1619 TIP3 H1   HT     0.417000        1.0080           0
    5404 WT1  1619 TIP3 H2   HT     0.417000        1.0080           0
    5405 WT1  1620 TIP3 OH2  OT    -0.834000       15.9994           0
    5406 WT1  1620 TIP3 H1   HT     0.417000        1.0080           0
    5407 WT1  1620 TIP3 H2   HT     0.417000        1.0080           0
    5408 WT1  1621 TIP3 OH2  OT    -0.834000       15.9994           0
    5409 WT1  1621 TIP3 H1   HT     0.417000        1.0080           0
    5410 WT1  1621 TIP3 H2   HT     0.417000        1.0080           0
    5411 WT1  1623 TIP3 OH2  OT    -0.834000       15.9994           0
    5412 WT1  1623 TIP3 H1   HT     0.417000        1.0080           0
    5413 WT1  1623 TIP3 H2   HT     0.417000        1.0080           0
    5414 WT1  1624 TIP3 OH2  OT    -0.834000       15.9994           0
    5415 WT1  1624 TIP3 H1   HT     0.417000        1.0080           0
    5416 WT1  1624 TIP3 H2   HT     0.417000        1.0080           0
    5417 WT1  1625 TIP3 OH2  OT    -0.834000       15.9994           0
    5418 WT1  1625 TIP3 H1   HT     0.417000        1.0080           0
    5419 WT1  1625 TIP3 H2   HT     0.417000        1.0080           0
    5420 WT1  1627 TIP3 OH2  OT    -0.834000       15.9994           0
    5421 WT1  1627 TIP3 H1   HT     0.417000        1.0080           0
    5422 WT1  1627 TIP3 H2   HT     0.417000        1.0080           0
    5423 WT1  1628 TIP3 OH2  OT    -0.834000       15.9994           0
    5424 WT1  1628 TIP3 H1   HT     0.417000        1.0080           0
    5425 WT1  1628 TIP3 H2   HT     0.417000        1.0080           0
    5426 WT1  1629 TIP3 OH2  OT    -0.834000       15.9994           0
    5427 WT1  1629 TIP3 H1   HT     0.417000        1.0080           0
    5428 WT1  1629 TIP3 H2   HT     0.417000        1.0080           0
    5429 WT1  1630 TIP3 OH2  OT    -0.834000       15.9994           0
    5430 WT1  1630 TIP3 H1   HT     0.417000        1.0080           0
    5431 WT1  1630 TIP3 H2   HT     0.417000        1.0080           0
    5432 WT1  1632 TIP3 OH2  OT    -0.834000       15.9994           0
    5433 WT1  1632 TIP3 H1   HT     0.417000        1.0080           0
    5434 WT1  1632 TIP3 H2   HT     0.417000        1.0080           0
    5435 WT1  1633 TIP3 OH2  OT    -0.834000       15.9994           0
    5436 WT1  1633 TIP3 H1   HT     0.417000        1.0080           0
    5437 WT1  1633 TIP3 H2   HT     0.417000        1.0080           0
    5438 WT1  1634 TIP3 OH2  OT    -0.834000       15.9994           0
    5439 WT1  1634 TIP3 H1   HT     0.417000        1.0080           0
    5440 WT1  1634 TIP3 H2   HT     0.417000        1.0080           0
    5441 WT1  1635 TIP3 OH2  OT    -0.834000       15.9994           0
    5442 WT1  1635 TIP3 H1   HT     0.417000        1.0080           0
    5443 WT1  1635 TIP3 H2   HT     0.417000        1.0080           0
    5444 WT1  1636 TIP3 OH2  OT    -0.834000       15.9994           0
    5445 WT1  1636 TIP3 H1   HT     0.417000        1.0080           0
    5446 WT1  1636 TIP3 H2   HT     0.417000        1.0080           0
    5447 WT1  1637 TIP3 OH2  OT    -0.834000       15.9994           0
    5448 WT1  1637 TIP3 H1   HT     0.417000        1.0080           0
    5449 WT1  1637 TIP3 H2   HT     0.417000        1.0080           0
    5450 WT1  1638 TIP3 OH2  OT    -0.834000       15.9994           0
    5451 WT1  1638 TIP3 H1   HT     0.417000        1.0080           0
    5452 WT1  1638 TIP3 H2   HT     0.417000        1.0080           0
    5453 WT1  1639 TIP3 OH2  OT    -0.834000       15.9994           0
    5454 WT1  1639 TIP3 H1   HT     0.417000        1.0080           0
    5455 WT1  1639 TIP3 H2   HT     0.417000        1.0080           0
    5456 WT1  1640 TIP3 OH2  OT    -0.834000       15.9994           0
    5457 WT1  1640 TIP3 H1   HT     0.417000        1.0080           0
    5458 WT1  1640 TIP3 H2   HT     0.417000        1.0080           0
    5459 WT1  1641 TIP3 OH2  OT    -0.834000       15.9994           0
    5460 WT1  1641 TIP3 H1   HT     0.417000        1.0080           0
    5461 WT1  1641 TIP3 H2   HT     0.417000        1.0080           0
    5462 WT1  1642 TIP3 OH2  OT    -0.834000       15.9994           0
    5463 WT1  1642 TIP3 H1   HT     0.417000        1.0080           0
    5464 WT1  1642 TIP3 H2   HT     0.417000        1.0080           0
    5465 WT1  1644 TIP3 OH2  OT    -0.834000       15.9994           0
    5466 WT1  1644 TIP3 H1   HT     0.417000        1.0080           0
    5467 WT1  1644 TIP3 H2   HT     0.417000        1.0080           0
    5468 WT1  1645 TIP3 OH2  OT    -0.834000       15.9994           0
    5469 WT1  1645 TIP3 H1   HT     0.417000        1.0080           0
    5470 WT1  1645 TIP3 H2   HT     0.417000        1.0080           0
    5471 WT1  1646 TIP3 OH2  OT    -0.834000       15.9994           0
    5472 WT1  1646 TIP3 H1   HT     0.417000        1.0080           0
    5473 WT1  1646 TIP3 H2   HT     0.417000        1.0080           0
    5474 WT1  1647 TIP3 OH2  OT    -0.834000       15.9994           0
    5475 WT1  1647 TIP3 H1   HT     0.417000        1.0080           0
    5476 WT1  1647 TIP3 H2   HT     0.417000        1.0080           0
    5477 WT1  1648 TIP3 OH2  OT    -0.834000       15.9994           0
    5478 WT1  1648 TIP3 H1   HT     0.417000        1.0080           0
    5479 WT1  1648 TIP3 H2   HT     0.417000        1.0080           0
    5480 WT1  1649 TIP3 OH2  OT    -0.834000       15.9994           0
    5481 WT1  1649 TIP3 H1   HT     0.417000        1.0080           0
    5482 WT1  1649 TIP3 H2   HT     0.417000        1.0080           0
    5483 WT1  1651 TIP3 OH2  OT    -0.834000       15.9994           0
    5484 WT1  1651 TIP3 H1   HT     0.417000        1.0080           0
    5485 WT1  1651 TIP3 H2   HT     0.417000        1.0080           0
    5486 WT1  1652 TIP3 OH2  OT    -0.834000       15.9994           0
    5487 WT1  1652 TIP3 H1   HT     0.417000        1.0080           0
    5488 WT1  1652 TIP3 H2   HT     0.417000        1.0080           0
    5489 WT1  1653 TIP3 OH2  OT    -0.834000       15.9994           0
    5490 WT1  1653 TIP3 H1   HT     0.417000        1.0080           0
    5491 WT1  1653 TIP3 H2   HT     0.417000        1.0080           0
    5492 WT1  1654 TIP3 OH2  OT    -0.834000       15.9994           0
    5493 WT1  1654 TIP3 H1   HT     0.417000        1.0080           0
    5494 WT1  1654 TIP3 H2   HT     0.417000        1.0080           0
    5495 WT1  1655 TIP3 OH2  OT    -0.834000       15.9994           0
    5496 WT1  1655 TIP3 H1   HT     0.417000        1.0080           0
    5497 WT1  1655 TIP3 H2   HT     0.417000        1.0080           0
    5498 WT1  1656 TIP3 OH2  OT    -0.834000       15.9994           0
    5499 WT1  1656 TIP3 H1   HT     0.417000        1.0080           0
    5500 WT1  1656 TIP3 H2   HT     0.417000        1.0080           0
    5501 WT1  1657 TIP3 OH2  OT    -0.834000       15.9994           0
    5502 WT1  1657 TIP3 H1   HT     0.417000        1.0080           0
    5503 WT1  1657 TIP3 H2   HT     0.417000        1.0080           0
    5504 WT1  1658 TIP3 OH2  OT    -0.834000       15.9994           0
    5505 WT1  1658 TIP3 H1   HT     0.417000        1.0080           0
    5506 WT1  1658 TIP3 H2   HT     0.417000        1.0080           0
    5507 WT1  1659 TIP3 OH2  OT    -0.834000       15.9994           0
    5508 WT1  1659 TIP3 H1   HT     0.417000        1.0080           0
    5509 WT1  1659 TIP3 H2   HT     0.417000        1.0080           0
    5510 WT1  1660 TIP3 OH2  OT    -0.834000       15.9994           0
    5511 WT1  1660 TIP3 H1   HT     0.417000        1.0080           0
    5512 WT1  1660 TIP3 H2   HT     0.417000        1.0080           0
    5513 WT1  1661 TIP3 OH2  OT    -0.834000       15.9994           0
    5514 WT1  1661 TIP3 H1   HT     0.417000        1.0080           0
    5515 WT1  1661 TIP3 H2   HT     0.417000        1.0080           0
    5516 WT1  1663 TIP3 OH2  OT    -0.834000       15.9994           0
    5517 WT1  1663 TIP3 H1   HT     0.417000        1.0080           0
    5518 WT1  1663 TIP3 H2   HT     0.417000        1.0080           0
    5519 WT1  1664 TIP3 OH2  OT    -0.834000       15.9994           0
    5520 WT1  1664 TIP3 H1   HT     0.417000        1.0080           0
    5521 WT1  1664 TIP3 H2   HT     0.417000        1.0080           0
    5522 WT1  1665 TIP3 OH2  OT    -0.834000       15.9994           0
    5523 WT1  1665 TIP3 H1   HT     0.417000        1.0080           0
    5524 WT1  1665 TIP3 H2   HT     0.417000        1.0080           0
    5525 WT1  1666 TIP3 OH2  OT    -0.834000       15.9994           0
    5526 WT1  1666 TIP3 H1   HT     0.417000        1.0080           0
    5527 WT1  1666 TIP3 H2   HT     0.417000        1.0080           0
    5528 WT1  1667 TIP3 OH2  OT    -0.834000       15.9994           0
    5529 WT1  1667 TIP3 H1   HT     0.417000        1.0080           0
    5530 WT1  1667 TIP3 H2   HT     0.417000        1.0080           0
    5531 WT1  1668 TIP3 OH2  OT    -0.834000       15.9994           0
    5532 WT1  1668 TIP3 H1   HT     0.417000        1.0080           0
    5533 WT1  1668 TIP3 H2   HT     0.417000        1.0080           0
    5534 WT1  1669 TIP3 OH2  OT    -0.834000       15.9994           0
    5535 WT1  1669 TIP3 H1   HT     0.417000        1.0080           0
    5536 WT1  1669 TIP3 H2   HT     0.417000        1.0080           0
    5537 WT1  1670 TIP3 OH2  OT    -0.834000       15.9994           0
    5538 WT1  1670 TIP3 H1   HT     0.417000        1.0080           0
    5539 WT1  1670 TIP3 H2   HT     0.417000        1.0080           0
    5540 WT1  1671 TIP3 OH2  OT    -0.834000       15.9994           0
    5541 WT1  1671 TIP3 H1   HT     0.417000        1.0080           0
    5542 WT1  1671 TIP3 H2   HT     0.417000        1.0080           0
    5543 WT1  1672 TIP3 OH2  OT    -0.834000       15.9994           0
    5544 WT1  1672 TIP3 H1   HT     0.417000        1.0080           0
    5545 WT1  1672 TIP3 H2   HT     0.417000        1.0080           0
    5546 WT1  1676 TIP3 OH2  OT    -0.834000       15.9994           0
    5547 WT1  1676 TIP3 H1   HT     0.417000        1.0080           0
    5548 WT1  1676 TIP3 H2   HT     0.417000        1.0080           0
    5549 WT1  1677 TIP3 OH2  OT    -0.834000       15.9994           0
    5550 WT1  1677 TIP3 H1   HT     0.417000        1.0080           0
    5551 WT1  1677 TIP3 H2   HT     0.417000        1.0080           0
    5552 WT1  1678 TIP3 OH2  OT    -0.834000       15.9994           0
    5553 WT1  1678 TIP3 H1   HT     0.417000        1.0080           0
    5554 WT1  1678 TIP3 H2   HT     0.417000        1.0080           0
    5555 WT1  1679 TIP3 OH2  OT    -0.834000       15.9994           0
    5556 WT1  1679 TIP3 H1   HT     0.417000        1.0080           0
    5557 WT1  1679 TIP3 H2   HT     0.417000        1.0080           0
    5558 WT1  1680 TIP3 OH2  OT    -0.834000       15.9994           0
    5559 WT1  1680 TIP3 H1   HT     0.417000        1.0080           0
    5560 WT1  1680 TIP3 H2   HT     0.417000        1.0080           0
    5561 WT1  1681 TIP3 OH2  OT    -0.834000       15.9994           0
    5562 WT1  1681 TIP3 H1   HT     0.417000        1.0080           0
    5563 WT1  1681 TIP3 H2   HT     0.417000        1.0080           0
    5564 WT1  1683 TIP3 OH2  OT    -0.834000       15.9994           0
    5565 WT1  1683 TIP3 H1   HT     0.417000        1.0080           0
    5566 WT1  1683 TIP3 H2   HT     0.417000        1.0080           0
    5567 WT1  1684 TIP3 OH2  OT    -0.834000       15.9994           0
    5568 WT1  1684 TIP3 H1   HT     0.417000        1.0080           0
    5569 WT1  1684 TIP3 H2   HT     0.417000        1.0080           0
    5570 WT1  1685 TIP3 OH2  OT    -0.834000       15.9994           0
    5571 WT1  1685 TIP3 H1   HT     0.417000        1.0080           0
    5572 WT1  1685 TIP3 H2   HT     0.417000        1.0080           0
    5573 WT1  1686 TIP3 OH2  OT    -0.834000       15.9994           0
    5574 WT1  1686 TIP3 H1   HT     0.417000        1.0080           0
    5575 WT1  1686 TIP3 H2   HT     0.417000        1.0080           0
    5576 WT1  1687 TIP3 OH2  OT    -0.834000       15.9994           0
    5577 WT1  1687 TIP3 H1   HT     0.417000        1.0080           0
    5578 WT1  1687 TIP3 H2   HT     0.417000        1.0080           0
    5579 WT1  1688 TIP3 OH2  OT    -0.834000       15.9994           0
    5580 WT1  1688 TIP3 H1   HT     0.417000        1.0080           0
    5581 WT1  1688 TIP3 H2   HT     0.417000        1.0080           0
    5582 WT1  1689 TIP3 OH2  OT    -0.834000       15.9994           0
    5583 WT1  1689 TIP3 H1   HT     0.417000        1.0080           0
    5584 WT1  1689 TIP3 H2   HT     0.417000        1.0080           0
    5585 WT1  1690 TIP3 OH2  OT    -0.834000       15.9994           0
    5586 WT1  1690 TIP3 H1   HT     0.417000        1.0080           0
    5587 WT1  1690 TIP3 H2   HT     0.417000        1.0080           0
    5588 WT1  1691 TIP3 OH2  OT    -0.834000       15.9994           0
    5589 WT1  1691 TIP3 H1   HT     0.417000        1.0080           0
    5590 WT1  1691 TIP3 H2   HT     0.417000        1.0080           0
    5591 WT1  1693 TIP3 OH2  OT    -0.834000       15.9994           0
    5592 WT1  1693 TIP3 H1   HT     0.417000        1.0080           0
    5593 WT1  1693 TIP3 H2   HT     0.417000        1.0080           0
    5594 WT1  1694 TIP3 OH2  OT    -0.834000       15.9994           0
    5595 WT1  1694 TIP3 H1   HT     0.417000        1.0080           0
    5596 WT1  1694 TIP3 H2   HT     0.417000        1.0080           0
    5597 WT1  1695 TIP3 OH2  OT    -0.834000       15.9994           0
    5598 WT1  1695 TIP3 H1   HT     0.417000        1.0080           0
    5599 WT1  1695 TIP3 H2   HT     0.417000        1.0080           0
    5600 WT1  1696 TIP3 OH2  OT    -0.834000       15.9994           0
    5601 WT1  1696 TIP3 H1   HT     0.417000        1.0080           0
    5602 WT1  1696 TIP3 H2   HT     0.417000        1.0080           0
    5603 WT1  1697 TIP3 OH2  OT    -0.834000       15.9994           0
    5604 WT1  1697 TIP3 H1   HT     0.417000        1.0080           0
    5605 WT1  1697 TIP3 H2   HT     0.417000        1.0080           0
    5606 WT1  1698 TIP3 OH2  OT    -0.834000       15.9994           0
    5607 WT1  1698 TIP3 H1   HT     0.417000        1.0080           0
    5608 WT1  1698 TIP3 H2   HT     0.417000        1.0080           0
    5609 WT1  1699 TIP3 OH2  OT    -0.834000       15.9994           0
    5610 WT1  1699 TIP3 H1   HT     0.417000        1.0080           0
    5611 WT1  1699 TIP3 H2   HT     0.417000        1.0080           0
    5612 WT1  1700 TIP3 OH2  OT    -0.834000       15.9994           0
    5613 WT1  1700 TIP3 H1   HT     0.417000        1.0080           0
    5614 WT1  1700 TIP3 H2   HT     0.417000        1.0080           0
    5615 WT1  1701 TIP3 OH2  OT    -0.834000       15.9994           0
    5616 WT1  1701 TIP3 H1   HT     0.417000        1.0080           0
    5617 WT1  1701 TIP3 H2   HT     0.417000        1.0080           0
    5618 WT1  1702 TIP3 OH2  OT    -0.834000       15.9994           0
    5619 WT1  1702 TIP3 H1   HT     0.417000        1.0080           0
    5620 WT1  1702 TIP3 H2   HT     0.417000        1.0080           0
    5621 WT1  1703 TIP3 OH2  OT    -0.834000       15.9994           0
    5622 WT1  1703 TIP3 H1   HT     0.417000        1.0080           0
    5623 WT1  1703 TIP3 H2   HT     0.417000        1.0080           0
    5624 WT1  1704 TIP3 OH2  OT    -0.834000       15.9994           0
    5625 WT1  1704 TIP3 H1   HT     0.417000        1.0080           0
    5626 WT1  1704 TIP3 H2   HT     0.417000        1.0080           0
    5627 WT1  1705 TIP3 OH2  OT    -0.834000       15.9994           0
    5628 WT1  1705 TIP3 H1   HT     0.417000        1.0080           0
    5629 WT1  1705 TIP3 H2   HT     0.417000        1.0080           0
    5630 WT1  1707 TIP3 OH2  OT    -0.834000       15.9994           0
    5631 WT1  1707 TIP3 H1   HT     0.417000        1.0080           0
    5632 WT1  1707 TIP3 H2   HT     0.417000        1.0080           0
    5633 WT1  1708 TIP3 OH2  OT    -0.834000       15.9994           0
    5634 WT1  1708 TIP3 H1   HT     0.417000        1.0080           0
    5635 WT1  1708 TIP3 H2   HT     0.417000        1.0080           0
    5636 WT1  1709 TIP3 OH2  OT    -0.834000       15.9994           0
    5637 WT1  1709 TIP3 H1   HT     0.417000        1.0080           0
    5638 WT1  1709 TIP3 H2   HT     0.417000        1.0080           0
    5639 WT1  1710 TIP3 OH2  OT    -0.834000       15.9994           0
    5640 WT1  1710 TIP3 H1   HT     0.417000        1.0080           0
    5641 WT1  1710 TIP3 H2   HT     0.417000        1.0080           0
    5642 WT1  1711 TIP3 OH2  OT    -0.834000       15.9994           0
    5643 WT1  1711 TIP3 H1   HT     0.417000        1.0080           0
    5644 WT1  1711 TIP3 H2   HT     0.417000        1.0080           0
    5645 WT1  1713 TIP3 OH2  OT    -0.834000       15.9994           0
    5646 WT1  1713 TIP3 H1   HT     0.417000        1.0080           0
    5647 WT1  1713 TIP3 H2   HT     0.417000        1.0080           0
    5648 WT1  1714 TIP3 OH2  OT    -0.834000       15.9994           0
    5649 WT1  1714 TIP3 H1   HT     0.417000        1.0080           0
    5650 WT1  1714 TIP3 H2   HT     0.417000        1.0080           0
    5651 WT1  1715 TIP3 OH2  OT    -0.834000       15.9994           0
    5652 WT1  1715 TIP3 H1   HT     0.417000        1.0080           0
    5653 WT1  1715 TIP3 H2   HT     0.417000        1.0080           0
    5654 WT1  1716 TIP3 OH2  OT    -0.834000       15.9994           0
    5655 WT1  1716 TIP3 H1   HT     0.417000        1.0080           0
    5656 WT1  1716 TIP3 H2   HT     0.417000        1.0080           0
    5657 WT1  1717 TIP3 OH2  OT    -0.834000       15.9994           0
    5658 WT1  1717 TIP3 H1   HT     0.417000        1.0080           0
    5659 WT1  1717 TIP3 H2   HT     0.417000        1.0080           0
    5660 WT1  1718 TIP3 OH2  OT    -0.834000       15.9994           0
    5661 WT1  1718 TIP3 H1   HT     0.417000        1.0080           0
    5662 WT1  1718 TIP3 H2   HT     0.417000        1.0080           0
    5663 WT1  1719 TIP3 OH2  OT    -0.834000       15.9994           0
    5664 WT1  1719 TIP3 H1   HT     0.417000        1.0080           0
    5665 WT1  1719 TIP3 H2   HT     0.417000        1.0080           0
    5666 WT1  1722 TIP3 OH2  OT    -0.834000       15.9994           0
    5667 WT1  1722 TIP3 H1   HT     0.417000        1.0080           0
    5668 WT1  1722 TIP3 H2   HT     0.417000        1.0080           0
    5669 WT1  1723 TIP3 OH2  OT    -0.834000       15.9994           0
    5670 WT1  1723 TIP3 H1   HT     0.417000        1.0080           0
    5671 WT1  1723 TIP3 H2   HT     0.417000        1.0080           0
    5672 WT1  1724 TIP3 OH2  OT    -0.834000       15.9994           0
    5673 WT1  1724 TIP3 H1   HT     0.417000        1.0080           0
    5674 WT1  1724 TIP3 H2   HT     0.417000        1.0080           0
    5675 WT1  1725 TIP3 OH2  OT    -0.834000       15.9994           0
    5676 WT1  1725 TIP3 H1   HT     0.417000        1.0080           0
    5677 WT1  1725 TIP3 H2   HT     0.417000        1.0080           0
    5678 WT1  1726 TIP3 OH2  OT    -0.834000       15.9994           0
    5679 WT1  1726 TIP3 H1   HT     0.417000        1.0080           0
    5680 WT1  1726 TIP3 H2   HT     0.417000        1.0080           0
    5681 WT1  1729 TIP3 OH2  OT    -0.834000       15.9994           0
    5682 WT1  1729 TIP3 H1   HT     0.417000        1.0080           0
    5683 WT1  1729 TIP3 H2   HT     0.417000        1.0080           0
    5684 WT1  1730 TIP3 OH2  OT    -0.834000       15.9994           0
    5685 WT1  1730 TIP3 H1   HT     0.417000        1.0080           0
    5686 WT1  1730 TIP3 H2   HT     0.417000        1.0080           0
    5687 WT1  1731 TIP3 OH2  OT    -0.834000       15.9994           0
    5688 WT1  1731 TIP3 H1   HT     0.417000        1.0080           0
    5689 WT1  1731 TIP3 H2   HT     0.417000        1.0080           0
    5690 WT1  1733 TIP3 OH2  OT    -0.834000       15.9994           0
    5691 WT1  1733 TIP3 H1   HT     0.417000        1.0080           0
    5692 WT1  1733 TIP3 H2   HT     0.417000        1.0080           0
    5693 WT1  1734 TIP3 OH2  OT    -0.834000       15.9994           0
    5694 WT1  1734 TIP3 H1   HT     0.417000        1.0080           0
    5695 WT1  1734 TIP3 H2   HT     0.417000        1.0080           0
    5696 WT1  1735 TIP3 OH2  OT    -0.834000       15.9994           0
    5697 WT1  1735 TIP3 H1   HT     0.417000        1.0080           0
    5698 WT1  1735 TIP3 H2   HT     0.417000        1.0080           0
    5699 WT1  1736 TIP3 OH2  OT    -0.834000       15.9994           0
    5700 WT1  1736 TIP3 H1   HT     0.417000        1.0080           0
    5701 WT1  1736 TIP3 H2   HT     0.417000        1.0080           0
    5702 WT1  1737 TIP3 OH2  OT    -0.834000       15.9994           0
    5703 WT1  1737 TIP3 H1   HT     0.417000        1.0080           0
    5704 WT1  1737 TIP3 H2   HT     0.417000        1.0080           0
    5705 WT1  1738 TIP3 OH2  OT    -0.834000       15.9994           0
    5706 WT1  1738 TIP3 H1   HT     0.417000        1.0080           0
    5707 WT1  1738 TIP3 H2   HT     0.417000        1.0080           0
    5708 WT1  1739 TIP3 OH2  OT    -0.834000       15.9994           0
    5709 WT1  1739 TIP3 H1   HT     0.417000        1.0080           0
    5710 WT1  1739 TIP3 H2   HT     0.417000        1.0080           0
    5711 WT1  1742 TIP3 OH2  OT    -0.834000       15.9994           0
    5712 WT1  1742 TIP3 H1   HT     0.417000        1.0080           0
    5713 WT1  1742 TIP3 H2   HT     0.417000        1.0080           0
    5714 WT1  1743 TIP3 OH2  OT    -0.834000       15.9994           0
    5715 WT1  1743 TIP3 H1   HT     0.417000        1.0080           0
    5716 WT1  1743 TIP3 H2   HT     0.417000        1.0080           0
    5717 WT1  1744 TIP3 OH2  OT    -0.834000       15.9994           0
    5718 WT1  1744 TIP3 H1   HT     0.417000        1.0080           0
    5719 WT1  1744 TIP3 H2   HT     0.417000        1.0080           0
    5720 WT1  1745 TIP3 OH2  OT    -0.834000       15.9994           0
    5721 WT1  1745 TIP3 H1   HT     0.417000        1.0080           0
    5722 WT1  1745 TIP3 H2   HT     0.417000        1.0080           0
    5723 WT1  1746 TIP3 OH2  OT    -0.834000       15.9994           0
    5724 WT1  1746 TIP3 H1   HT     0.417000        1.0080           0
    5725 WT1  1746 TIP3 H2   HT     0.417000        1.0080           0
    5726 WT1  1747 TIP3 OH2  OT    -0.834000       15.9994           0
    5727 WT1  1747 TIP3 H1   HT     0.417000        1.0080           0
    5728 WT1  1747 TIP3 H2   HT     0.417000        1.0080           0
    5729 WT1  1748 TIP3 OH2  OT    -0.834000       15.9994           0
    5730 WT1  1748 TIP3 H1   HT     0.417000        1.0080           0
    5731 WT1  1748 TIP3 H2   HT     0.417000        1.0080           0
    5732 WT1  1749 TIP3 OH2  OT    -0.834000       15.9994           0
    5733 WT1  1749 TIP3 H1   HT     0.417000        1.0080           0
    5734 WT1  1749 TIP3 H2   HT     0.417000        1.0080           0
    5735 WT1  1752 TIP3 OH2  OT    -0.834000       15.9994           0
    5736 WT1  1752 TIP3 H1   HT     0.417000        1.0080           0
    5737 WT1  1752 TIP3 H2   HT     0.417000        1.0080           0
    5738 WT1  1753 TIP3 OH2  OT    -0.834000       15.9994           0
    5739 WT1  1753 TIP3 H1   HT     0.417000        1.0080           0
    5740 WT1  1753 TIP3 H2   HT     0.417000        1.0080           0
    5741 WT1  1754 TIP3 OH2  OT    -0.834000       15.9994           0
    5742 WT1  1754 TIP3 H1   HT     0.417000        1.0080           0
    5743 WT1  1754 TIP3 H2   HT     0.417000        1.0080           0
    5744 WT1  1755 TIP3 OH2  OT    -0.834000       15.9994           0
    5745 WT1  1755 TIP3 H1   HT     0.417000        1.0080           0
    5746 WT1  1755 TIP3 H2   HT     0.417000        1.0080           0
    5747 WT1  1756 TIP3 OH2  OT    -0.834000       15.9994           0
    5748 WT1  1756 TIP3 H1   HT     0.417000        1.0080           0
    5749 WT1  1756 TIP3 H2   HT     0.417000        1.0080           0
    5750 WT1  1757 TIP3 OH2  OT    -0.834000       15.9994           0
    5751 WT1  1757 TIP3 H1   HT     0.417000        1.0080           0
    5752 WT1  1757 TIP3 H2   HT     0.417000        1.0080           0
    5753 WT1  1758 TIP3 OH2  OT    -0.834000       15.9994           0
    5754 WT1  1758 TIP3 H1   HT     0.417000        1.0080           0
    5755 WT1  1758 TIP3 H2   HT     0.417000        1.0080           0
    5756 WT1  1759 TIP3 OH2  OT    -0.834000       15.9994           0
    5757 WT1  1759 TIP3 H1   HT     0.417000        1.0080           0
    5758 WT1  1759 TIP3 H2   HT     0.417000        1.0080           0
    5759 WT1  1760 TIP3 OH2  OT    -0.834000       15.9994           0
    5760 WT1  1760 TIP3 H1   HT     0.417000        1.0080           0
    5761 WT1  1760 TIP3 H2   HT     0.417000        1.0080           0
    5762 WT1  1761 TIP3 OH2  OT    -0.834000       15.9994           0
    5763 WT1  1761 TIP3 H1   HT     0.417000        1.0080           0
    5764 WT1  1761 TIP3 H2   HT     0.417000        1.0080           0
    5765 WT1  1762 TIP3 OH2  OT    -0.834000       15.9994           0
    5766 WT1  1762 TIP3 H1   HT     0.417000        1.0080           0
    5767 WT1  1762 TIP3 H2   HT     0.417000        1.0080           0
    5768 WT1  1763 TIP3 OH2  OT    -0.834000       15.9994           0
    5769 WT1  1763 TIP3 H1   HT     0.417000        1.0080           0
    5770 WT1  1763 TIP3 H2   HT     0.417000        1.0080           0
    5771 WT1  1764 TIP3 OH2  OT    -0.834000       15.9994           0
    5772 WT1  1764 TIP3 H1   HT     0.417000        1.0080           0
    5773 WT1  1764 TIP3 H2   HT     0.417000        1.0080           0
    5774 WT1  1765 TIP3 OH2  OT    -0.834000       15.9994           0
    5775 WT1  1765 TIP3 H1   HT     0.417000        1.0080           0
    5776 WT1  1765 TIP3 H2   HT     0.417000        1.0080           0
    5777 WT1  1766 TIP3 OH2  OT    -0.834000       15.9994           0
    5778 WT1  1766 TIP3 H1   HT     0.417000        1.0080           0
    5779 WT1  1766 TIP3 H2   HT     0.417000        1.0080           0
    5780 WT1  1767 TIP3 OH2  OT    -0.834000       15.9994           0
    5781 WT1  1767 TIP3 H1   HT     0.417000        1.0080           0
    5782 WT1  1767 TIP3 H2   HT     0.417000        1.0080           0
    5783 WT1  1768 TIP3 OH2  OT    -0.834000       15.9994           0
    5784 WT1  1768 TIP3 H1   HT     0.417000        1.0080           0
    5785 WT1  1768 TIP3 H2   HT     0.417000        1.0080           0
    5786 WT1  1769 TIP3 OH2  OT    -0.834000       15.9994           0
    5787 WT1  1769 TIP3 H1   HT     0.417000        1.0080           0
    5788 WT1  1769 TIP3 H2   HT     0.417000        1.0080           0
    5789 WT1  1770 TIP3 OH2  OT    -0.834000       15.9994           0
    5790 WT1  1770 TIP3 H1   HT     0.417000        1.0080           0
    5791 WT1  1770 TIP3 H2   HT     0.417000        1.0080           0
    5792 WT1  1771 TIP3 OH2  OT    -0.834000       15.9994           0
    5793 WT1  1771 TIP3 H1   HT     0.417000        1.0080           0
    5794 WT1  1771 TIP3 H2   HT     0.417000        1.0080           0
    5795 WT1  1773 TIP3 OH2  OT    -0.834000       15.9994           0
    5796 WT1  1773 TIP3 H1   HT     0.417000        1.0080           0
    5797 WT1  1773 TIP3 H2   HT     0.417000        1.0080           0
    5798 WT1  1774 TIP3 OH2  OT    -0.834000       15.9994           0
    5799 WT1  1774 TIP3 H1   HT     0.417000        1.0080           0
    5800 WT1  1774 TIP3 H2   HT     0.417000        1.0080           0
    5801 WT1  1775 TIP3 OH2  OT    -0.834000       15.9994           0
    5802 WT1  1775 TIP3 H1   HT     0.417000        1.0080           0
    5803 WT1  1775 TIP3 H2   HT     0.417000        1.0080           0
    5804 WT1  1776 TIP3 OH2  OT    -0.834000       15.9994           0
    5805 WT1  1776 TIP3 H1   HT     0.417000        1.0080           0
    5806 WT1  1776 TIP3 H2   HT     0.417000        1.0080           0
    5807 WT1  1777 TIP3 OH2  OT    -0.834000       15.9994           0
    5808 WT1  1777 TIP3 H1   HT     0.417000        1.0080           0
    5809 WT1  1777 TIP3 H2   HT     0.417000        1.0080           0
    5810 WT1  1778 TIP3 OH2  OT    -0.834000       15.9994           0
    5811 WT1  1778 TIP3 H1   HT     0.417000        1.0080           0
    5812 WT1  1778 TIP3 H2   HT     0.417000        1.0080           0
    5813 WT1  1779 TIP3 OH2  OT    -0.834000       15.9994           0
    5814 WT1  1779 TIP3 H1   HT     0.417000        1.0080           0
    5815 WT1  1779 TIP3 H2   HT     0.417000        1.0080           0
    5816 WT1  1780 TIP3 OH2  OT    -0.834000       15.9994           0
    5817 WT1  1780 TIP3 H1   HT     0.417000        1.0080           0
    5818 WT1  1780 TIP3 H2   HT     0.417000        1.0080           0
    5819 WT1  1781 TIP3 OH2  OT    -0.834000       15.9994           0
    5820 WT1  1781 TIP3 H1   HT     0.417000        1.0080           0
    5821 WT1  1781 TIP3 H2   HT     0.417000        1.0080           0
    5822 WT1  1782 TIP3 OH2  OT    -0.834000       15.9994           0
    5823 WT1  1782 TIP3 H1   HT     0.417000        1.0080           0
    5824 WT1  1782 TIP3 H2   HT     0.417000        1.0080           0
    5825 WT1  1783 TIP3 OH2  OT    -0.834000       15.9994           0
    5826 WT1  1783 TIP3 H1   HT     0.417000        1.0080           0
    5827 WT1  1783 TIP3 H2   HT     0.417000        1.0080           0
    5828 WT1  1784 TIP3 OH2  OT    -0.834000       15.9994           0
    5829 WT1  1784 TIP3 H1   HT     0.417000        1.0080           0
    5830 WT1  1784 TIP3 H2   HT     0.417000        1.0080           0
    5831 WT1  1785 TIP3 OH2  OT    -0.834000       15.9994           0
    5832 WT1  1785 TIP3 H1   HT     0.417000        1.0080           0
    5833 WT1  1785 TIP3 H2   HT     0.417000        1.0080           0
    5834 WT1  1786 TIP3 OH2  OT    -0.834000       15.9994           0
    5835 WT1  1786 TIP3 H1   HT     0.417000        1.0080           0
    5836 WT1  1786 TIP3 H2   HT     0.417000        1.0080           0
    5837 WT1  1787 TIP3 OH2  OT    -0.834000       15.9994           0
    5838 WT1  1787 TIP3 H1   HT     0.417000        1.0080           0
    5839 WT1  1787 TIP3 H2   HT     0.417000        1.0080           0
    5840 WT1  1788 TIP3 OH2  OT    -0.834000       15.9994           0
    5841 WT1  1788 TIP3 H1   HT     0.417000        1.0080           0
    5842 WT1  1788 TIP3 H2   HT     0.417000        1.0080           0
    5843 WT1  1789 TIP3 OH2  OT    -0.834000       15.9994           0
    5844 WT1  1789 TIP3 H1   HT     0.417000        1.0080           0
    5845 WT1  1789 TIP3 H2   HT     0.417000        1.0080           0
    5846 WT1  1790 TIP3 OH2  OT    -0.834000       15.9994           0
    5847 WT1  1790 TIP3 H1   HT     0.417000        1.0080           0
    5848 WT1  1790 TIP3 H2   HT     0.417000        1.0080           0
    5849 WT1  1791 TIP3 OH2  OT    -0.834000       15.9994           0
    5850 WT1  1791 TIP3 H1   HT     0.417000        1.0080           0
    5851 WT1  1791 TIP3 H2   HT     0.417000        1.0080           0
    5852 WT1  1792 TIP3 OH2  OT    -0.834000       15.9994           0
    5853 WT1  1792 TIP3 H1   HT     0.417000        1.0080           0
    5854 WT1  1792 TIP3 H2   HT     0.417000        1.0080           0
    5855 WT1  1793 TIP3 OH2  OT    -0.834000       15.9994           0
    5856 WT1  1793 TIP3 H1   HT     0.417000        1.0080           0
    5857 WT1  1793 TIP3 H2   HT     0.417000        1.0080           0
    5858 WT1  1795 TIP3 OH2  OT    -0.834000       15.9994           0
    5859 WT1  1795 TIP3 H1   HT     0.417000        1.0080           0
    5860 WT1  1795 TIP3 H2   HT     0.417000        1.0080           0
    5861 WT1  1796 TIP3 OH2  OT    -0.834000       15.9994           0
    5862 WT1  1796 TIP3 H1   HT     0.417000        1.0080           0
    5863 WT1  1796 TIP3 H2   HT     0.417000        1.0080           0
    5864 WT1  1797 TIP3 OH2  OT    -0.834000       15.9994           0
    5865 WT1  1797 TIP3 H1   HT     0.417000        1.0080           0
    5866 WT1  1797 TIP3 H2   HT     0.417000        1.0080           0
    5867 WT1  1798 TIP3 OH2  OT    -0.834000       15.9994           0
    5868 WT1  1798 TIP3 H1   HT     0.417000        1.0080           0
    5869 WT1  1798 TIP3 H2   HT     0.417000        1.0080           0
    5870 WT1  1799 TIP3 OH2  OT    -0.834000       15.9994           0
    5871 WT1  1799 TIP3 H1   HT     0.417000        1.0080           0
    5872 WT1  1799 TIP3 H2   HT     0.417000        1.0080           0
    5873 WT1  1800 TIP3 OH2  OT    -0.834000       15.9994           0
    5874 WT1  1800 TIP3 H1   HT     0.417000        1.0080           0
    5875 WT1  1800 TIP3 H2   HT     0.417000        1.0080           0
    5876 WT1  1801 TIP3 OH2  OT    -0.834000       15.9994           0
    5877 WT1  1801 TIP3 H1   HT     0.417000        1.0080           0
    5878 WT1  1801 TIP3 H2   HT     0.417000        1.0080           0
    5879 WT1  1802 TIP3 OH2  OT    -0.834000       15.9994           0
    5880 WT1  1802 TIP3 H1   HT     0.417000        1.0080           0
    5881 WT1  1802 TIP3 H2   HT     0.417000        1.0080           0
    5882 WT1  1803 TIP3 OH2  OT    -0.834000       15.9994           0
    5883 WT1  1803 TIP3 H1   HT     0.417000        1.0080           0
    5884 WT1  1803 TIP3 H2   HT     0.417000        1.0080           0
    5885 WT1  1804 TIP3 OH2  OT    -0.834000       15.9994           0
    5886 WT1  1804 TIP3 H1   HT     0.417000        1.0080           0
    5887 WT1  1804 TIP3 H2   HT     0.417000        1.0080           0
    5888 WT1  1805 TIP3 OH2  OT    -0.834000       15.9994           0
    5889 WT1  1805 TIP3 H1   HT     0.417000        1.0080           0
    5890 WT1  1805 TIP3 H2   HT     0.417000        1.0080           0
    5891 WT1  1806 TIP3 OH2  OT    -0.834000       15.9994           0
    5892 WT1  1806 TIP3 H1   HT     0.417000        1.0080           0
    5893 WT1  1806 TIP3 H2   HT     0.417000        1.0080           0
    5894 WT1  1807 TIP3 OH2  OT    -0.834000       15.9994           0
    5895 WT1  1807 TIP3 H1   HT     0.417000        1.0080           0
    5896 WT1  1807 TIP3 H2   HT     0.417000        1.0080           0
    5897 WT1  1808 TIP3 OH2  OT    -0.834000       15.9994           0
    5898 WT1  1808 TIP3 H1   HT     0.417000        1.0080           0
    5899 WT1  1808 TIP3 H2   HT     0.417000        1.0080           0
    5900 WT1  1809 TIP3 OH2  OT    -0.834000       15.9994           0
    5901 WT1  1809 TIP3 H1   HT     0.417000        1.0080           0
    5902 WT1  1809 TIP3 H2   HT     0.417000        1.0080           0
    5903 WT1  1810 TIP3 OH2  OT    -0.834000       15.9994           0
    5904 WT1  1810 TIP3 H1   HT     0.417000        1.0080           0
    5905 WT1  1810 TIP3 H2   HT     0.417000        1.0080           0
    5906 WT1  1811 TIP3 OH2  OT    -0.834000       15.9994           0
    5907 WT1  1811 TIP3 H1   HT     0.417000        1.0080           0
    5908 WT1  1811 TIP3 H2   HT     0.417000        1.0080           0
    5909 WT1  1812 TIP3 OH2  OT    -0.834000       15.9994           0
    5910 WT1  1812 TIP3 H1   HT     0.417000        1.0080           0
    5911 WT1  1812 TIP3 H2   HT     0.417000        1.0080           0
    5912 WT1  1813 TIP3 OH2  OT    -0.834000       15.9994           0
    5913 WT1  1813 TIP3 H1   HT     0.417000        1.0080           0
    5914 WT1  1813 TIP3 H2   HT     0.417000        1.0080           0
    5915 WT1  1814 TIP3 OH2  OT    -0.834000       15.9994           0
    5916 WT1  1814 TIP3 H1   HT     0.417000        1.0080           0
    5917 WT1  1814 TIP3 H2   HT     0.417000        1.0080           0
    5918 WT1  1815 TIP3 OH2  OT    -0.834000       15.9994           0
    5919 WT1  1815 TIP3 H1   HT     0.417000        1.0080           0
    5920 WT1  1815 TIP3 H2   HT     0.417000        1.0080           0
    5921 WT1  1816 TIP3 OH2  OT    -0.834000       15.9994           0
    5922 WT1  1816 TIP3 H1   HT     0.417000        1.0080           0
    5923 WT1  1816 TIP3 H2   HT     0.417000        1.0080           0
    5924 WT1  1818 TIP3 OH2  OT    -0.834000       15.9994           0
    5925 WT1  1818 TIP3 H1   HT     0.417000        1.0080           0
    5926 WT1  1818 TIP3 H2   HT     0.417000        1.0080           0
    5927 WT1  1819 TIP3 OH2  OT    -0.834000       15.9994           0
    5928 WT1  1819 TIP3 H1   HT     0.417000        1.0080           0
    5929 WT1  1819 TIP3 H2   HT     0.417000        1.0080           0
    5930 WT1  1820 TIP3 OH2  OT    -0.834000       15.9994           0
    5931 WT1  1820 TIP3 H1   HT     0.417000        1.0080           0
    5932 WT1  1820 TIP3 H2   HT     0.417000        1.0080           0
    5933 WT1  1821 TIP3 OH2  OT    -0.834000       15.9994           0
    5934 WT1  1821 TIP3 H1   HT     0.417000        1.0080           0
    5935 WT1  1821 TIP3 H2   HT     0.417000        1.0080           0
    5936 WT1  1822 TIP3 OH2  OT    -0.834000       15.9994           0
    5937 WT1  1822 TIP3 H1   HT     0.417000        1.0080           0
    5938 WT1  1822 TIP3 H2   HT     0.417000        1.0080           0
    5939 WT1  1823 TIP3 OH2  OT    -0.834000       15.9994           0
    5940 WT1  1823 TIP3 H1   HT     0.417000        1.0080           0
    5941 WT1  1823 TIP3 H2   HT     0.417000        1.0080           0
    5942 WT1  1824 TIP3 OH2  OT    -0.834000       15.9994           0
    5943 WT1  1824 TIP3 H1   HT     0.417000        1.0080           0
    5944 WT1  1824 TIP3 H2   HT     0.417000        1.0080           0
    5945 WT1  1825 TIP3 OH2  OT    -0.834000       15.9994           0
    5946 WT1  1825 TIP3 H1   HT     0.417000        1.0080           0
    5947 WT1  1825 TIP3 H2   HT     0.417000        1.0080           0
    5948 WT1  1826 TIP3 OH2  OT    -0.834000       15.9994           0
    5949 WT1  1826 TIP3 H1   HT     0.417000        1.0080           0
    5950 WT1  1826 TIP3 H2   HT     0.417000        1.0080           0
    5951 WT1  1827 TIP3 OH2  OT    -0.834000       15.9994           0
    5952 WT1  1827 TIP3 H1   HT     0.417000        1.0080           0
    5953 WT1  1827 TIP3 H2   HT     0.417000        1.0080           0
    5954 WT1  1828 TIP3 OH2  OT    -0.834000       15.9994           0
    5955 WT1  1828 TIP3 H1   HT     0.417000        1.0080           0
    5956 WT1  1828 TIP3 H2   HT     0.417000        1.0080           0
    5957 WT1  1829 TIP3 OH2  OT    -0.834000       15.9994           0
    5958 WT1  1829 TIP3 H1   HT     0.417000        1.0080           0
    5959 WT1  1829 TIP3 H2   HT     0.417000        1.0080           0
    5960 WT1  1830 TIP3 OH2  OT    -0.834000       15.9994           0
    5961 WT1  1830 TIP3 H1   HT     0.417000        1.0080           0
    5962 WT1  1830 TIP3 H2   HT     0.417000        1.0080           0
    5963 WT1  1831 TIP3 OH2  OT    -0.834000       15.9994           0
    5964 WT1  1831 TIP3 H1   HT     0.417000        1.0080           0
    5965 WT1  1831 TIP3 H2   HT     0.417000        1.0080           0
    5966 WT1  1832 TIP3 OH2  OT    -0.834000       15.9994           0
    5967 WT1  1832 TIP3 H1   HT     0.417000        1.0080           0
    5968 WT1  1832 TIP3 H2   HT     0.417000        1.0080           0
    5969 WT1  1833 TIP3 OH2  OT    -0.834000       15.9994           0
    5970 WT1  1833 TIP3 H1   HT     0.417000        1.0080           0
    5971 WT1  1833 TIP3 H2   HT     0.417000        1.0080           0
    5972 WT1  1834 TIP3 OH2  OT    -0.834000       15.9994           0
    5973 WT1  1834 TIP3 H1   HT     0.417000        1.0080           0
    5974 WT1  1834 TIP3 H2   HT     0.417000        1.0080           0
    5975 WT1  1835 TIP3 OH2  OT    -0.834000       15.9994           0
    5976 WT1  1835 TIP3 H1   HT     0.417000        1.0080           0
    5977 WT1  1835 TIP3 H2   HT     0.417000        1.0080           0
    5978 WT1  1836 TIP3 OH2  OT    -0.834000       15.9994           0
    5979 WT1  1836 TIP3 H1   HT     0.417000        1.0080           0
    5980 WT1  1836 TIP3 H2   HT     0.417000        1.0080           0
    5981 WT1  1837 TIP3 OH2  OT    -0.834000       15.9994           0
    5982 WT1  1837 TIP3 H1   HT     0.417000        1.0080           0
    5983 WT1  1837 TIP3 H2   HT     0.417000        1.0080           0
    5984 WT1  1838 TIP3 OH2  OT    -0.834000       15.9994           0
    5985 WT1  1838 TIP3 H1   HT     0.417000        1.0080           0
    5986 WT1  1838 TIP3 H2   HT     0.417000        1.0080           0
    5987 WT1  1839 TIP3 OH2  OT    -0.834000       15.9994           0
    5988 WT1  1839 TIP3 H1   HT     0.417000        1.0080           0
    5989 WT1  1839 TIP3 H2   HT     0.417000        1.0080           0
    5990 WT1  1840 TIP3 OH2  OT    -0.834000       15.9994           0
    5991 WT1  1840 TIP3 H1   HT     0.417000        1.0080           0
    5992 WT1  1840 TIP3 H2   HT     0.417000        1.0080           0
    5993 WT1  1841 TIP3 OH2  OT    -0.834000       15.9994           0
    5994 WT1  1841 TIP3 H1   HT     0.417000        1.0080           0
    5995 WT1  1841 TIP3 H2   HT     0.417000        1.0080           0
    5996 WT1  1842 TIP3 OH2  OT    -0.834000       15.9994           0
    5997 WT1  1842 TIP3 H1   HT     0.417000        1.0080           0
    5998 WT1  1842 TIP3 H2   HT     0.417000        1.0080           0
    5999 WT1  1843 TIP3 OH2  OT    -0.834000       15.9994           0
    6000 WT1  1843 TIP3 H1   HT     0.417000        1.0080           0
    6001 WT1  1843 TIP3 H2   HT     0.417000        1.0080           0
    6002 WT1  1844 TIP3 OH2  OT    -0.834000       15.9994           0
    6003 WT1  1844 TIP3 H1   HT     0.417000        1.0080           0
    6004 WT1  1844 TIP3 H2   HT     0.417000        1.0080           0
    6005 WT1  1845 TIP3 OH2  OT    -0.834000       15.9994           0
    6006 WT1  1845 TIP3 H1   HT     0.417000        1.0080           0
    6007 WT1  1845 TIP3 H2   HT     0.417000        1.0080           0
    6008 WT1  1846 TIP3 OH2  OT    -0.834000       15.9994           0
    6009 WT1  1846 TIP3 H1   HT     0.417000        1.0080           0
    6010 WT1  1846 TIP3 H2   HT     0.417000        1.0080           0
    6011 WT1  1847 TIP3 OH2  OT    -0.834000       15.9994           0
    6012 WT1  1847 TIP3 H1   HT     0.417000        1.0080           0
    6013 WT1  1847 TIP3 H2   HT     0.417000        1.0080           0
    6014 WT1  1848 TIP3 OH2  OT    -0.834000       15.9994           0
    6015 WT1  1848 TIP3 H1   HT     0.417000        1.0080           0
    6016 WT1  1848 TIP3 H2   HT     0.417000        1.0080           0
    6017 WT1  1850 TIP3 OH2  OT    -0.834000       15.9994           0
    6018 WT1  1850 TIP3 H1   HT     0.417000        1.0080           0
    6019 WT1  1850 TIP3 H2   HT     0.417000        1.0080           0
    6020 WT1  1851 TIP3 OH2  OT    -0.834000       15.9994           0
    6021 WT1  1851 TIP3 H1   HT     0.417000        1.0080           0
    6022 WT1  1851 TIP3 H2   HT     0.417000        1.0080           0
    6023 WT1  1852 TIP3 OH2  OT    -0.834000       15.9994           0
    6024 WT1  1852 TIP3 H1   HT     0.417000        1.0080           0
    6025 WT1  1852 TIP3 H2   HT     0.417000        1.0080           0
    6026 WT1  1853 TIP3 OH2  OT    -0.834000       15.9994           0
    6027 WT1  1853 TIP3 H1   HT     0.417000        1.0080           0
    6028 WT1  1853 TIP3 H2   HT     0.417000        1.0080           0
    6029 WT1  1854 TIP3 OH2  OT    -0.834000       15.9994           0
    6030 WT1  1854 TIP3 H1   HT     0.417000        1.0080           0
    6031 WT1  1854 TIP3 H2   HT     0.417000        1.0080           0
    6032 WT1  1855 TIP3 OH2  OT    -0.834000       15.9994           0
    6033 WT1  1855 TIP3 H1   HT     0.417000        1.0080           0
    6034 WT1  1855 TIP3 H2   HT     0.417000        1.0080           0
    6035 WT1  1857 TIP3 OH2  OT    -0.834000       15.9994           0
    6036 WT1  1857 TIP3 H1   HT     0.417000        1.0080           0
    6037 WT1  1857 TIP3 H2   HT     0.417000        1.0080           0
    6038 WT1  1858 TIP3 OH2  OT    -0.834000       15.9994           0
    6039 WT1  1858 TIP3 H1   HT     0.417000        1.0080           0
    6040 WT1  1858 TIP3 H2   HT     0.417000        1.0080           0
    6041 WT1  1859 TIP3 OH2  OT    -0.834000       15.9994           0
    6042 WT1  1859 TIP3 H1   HT     0.417000        1.0080           0
    6043 WT1  1859 TIP3 H2   HT     0.417000        1.0080           0
    6044 WT1  1860 TIP3 OH2  OT    -0.834000       15.9994           0
    6045 WT1  1860 TIP3 H1   HT     0.417000        1.0080           0
    6046 WT1  1860 TIP3 H2   HT     0.417000        1.0080           0
    6047 WT1  1861 TIP3 OH2  OT    -0.834000       15.9994           0
    6048 WT1  1861 TIP3 H1   HT     0.417000        1.0080           0
    6049 WT1  1861 TIP3 H2   HT     0.417000        1.0080           0
    6050 WT1  1862 TIP3 OH2  OT    -0.834000       15.9994           0
    6051 WT1  1862 TIP3 H1   HT     0.417000        1.0080           0
    6052 WT1  1862 TIP3 H2   HT     0.417000        1.0080           0
    6053 WT1  1863 TIP3 OH2  OT    -0.834000       15.9994           0
    6054 WT1  1863 TIP3 H1   HT     0.417000        1.0080           0
    6055 WT1  1863 TIP3 H2   HT     0.417000        1.0080           0
    6056 WT1  1864 TIP3 OH2  OT    -0.834000       15.9994           0
    6057 WT1  1864 TIP3 H1   HT     0.417000        1.0080           0
    6058 WT1  1864 TIP3 H2   HT     0.417000        1.0080           0
    6059 WT1  1865 TIP3 OH2  OT    -0.834000       15.9994           0
    6060 WT1  1865 TIP3 H1   HT     0.417000        1.0080           0
    6061 WT1  1865 TIP3 H2   HT     0.417000        1.0080           0
    6062 WT1  1867 TIP3 OH2  OT    -0.834000       15.9994           0
    6063 WT1  1867 TIP3 H1   HT     0.417000        1.0080           0
    6064 WT1  1867 TIP3 H2   HT     0.417000        1.0080           0
    6065 WT1  1868 TIP3 OH2  OT    -0.834000       15.9994           0
    6066 WT1  1868 TIP3 H1   HT     0.417000        1.0080           0
    6067 WT1  1868 TIP3 H2   HT     0.417000        1.0080           0
    6068 WT1  1869 TIP3 OH2  OT    -0.834000       15.9994           0
    6069 WT1  1869 TIP3 H1   HT     0.417000        1.0080           0
    6070 WT1  1869 TIP3 H2   HT     0.417000        1.0080           0
    6071 WT1  1870 TIP3 OH2  OT    -0.834000       15.9994           0
    6072 WT1  1870 TIP3 H1   HT     0.417000        1.0080           0
    6073 WT1  1870 TIP3 H2   HT     0.417000        1.0080           0
    6074 WT1  1871 TIP3 OH2  OT    -0.834000       15.9994           0
    6075 WT1  1871 TIP3 H1   HT     0.417000        1.0080           0
    6076 WT1  1871 TIP3 H2   HT     0.417000        1.0080           0
    6077 WT1  1872 TIP3 OH2  OT    -0.834000       15.9994           0
    6078 WT1  1872 TIP3 H1   HT     0.417000        1.0080           0
    6079 WT1  1872 TIP3 H2   HT     0.417000        1.0080           0
    6080 WT1  1873 TIP3 OH2  OT    -0.834000       15.9994           0
    6081 WT1  1873 TIP3 H1   HT     0.417000        1.0080           0
    6082 WT1  1873 TIP3 H2   HT     0.417000        1.0080           0
    6083 WT1  1874 TIP3 OH2  OT    -0.834000       15.9994           0
    6084 WT1  1874 TIP3 H1   HT     0.417000        1.0080           0
    6085 WT1  1874 TIP3 H2   HT     0.417000        1.0080           0
    6086 WT1  1875 TIP3 OH2  OT    -0.834000       15.9994           0
    6087 WT1  1875 TIP3 H1   HT     0.417000        1.0080           0
    6088 WT1  1875 TIP3 H2   HT     0.417000        1.0080           0
    6089 WT1  1876 TIP3 OH2  OT    -0.834000       15.9994           0
    6090 WT1  1876 TIP3 H1   HT     0.417000        1.0080           0
    6091 WT1  1876 TIP3 H2   HT     0.417000        1.0080           0
    6092 WT1  1877 TIP3 OH2  OT    -0.834000       15.9994           0
    6093 WT1  1877 TIP3 H1   HT     0.417000        1.0080           0
    6094 WT1  1877 TIP3 H2   HT     0.417000        1.0080           0
    6095 WT1  1878 TIP3 OH2  OT    -0.834000       15.9994           0
    6096 WT1  1878 TIP3 H1   HT     0.417000        1.0080           0
    6097 WT1  1878 TIP3 H2   HT     0.417000        1.0080           0
    6098 WT1  1879 TIP3 OH2  OT    -0.834000       15.9994           0
    6099 WT1  1879 TIP3 H1   HT     0.417000        1.0080           0
    6100 WT1  1879 TIP3 H2   HT     0.417000        1.0080           0
    6101 WT1  1880 TIP3 OH2  OT    -0.834000       15.9994           0
    6102 WT1  1880 TIP3 H1   HT     0.417000        1.0080           0
    6103 WT1  1880 TIP3 H2   HT     0.417000        1.0080           0
    6104 WT1  1881 TIP3 OH2  OT    -0.834000       15.9994           0
    6105 WT1  1881 TIP3 H1   HT     0.417000        1.0080           0
    6106 WT1  1881 TIP3 H2   HT     0.417000        1.0080           0
    6107 WT1  1882 TIP3 OH2  OT    -0.834000       15.9994           0
    6108 WT1  1882 TIP3 H1   HT     0.417000        1.0080           0
    6109 WT1  1882 TIP3 H2   HT     0.417000        1.0080           0
    6110 WT1  1883 TIP3 OH2  OT    -0.834000       15.9994           0
    6111 WT1  1883 TIP3 H1   HT     0.417000        1.0080           0
    6112 WT1  1883 TIP3 H2   HT     0.417000        1.0080           0
    6113 WT1  1884 TIP3 OH2  OT    -0.834000       15.9994           0
    6114 WT1  1884 TIP3 H1   HT     0.417000        1.0080           0
    6115 WT1  1884 TIP3 H2   HT     0.417000        1.0080           0
    6116 WT1  1886 TIP3 OH2  OT    -0.834000       15.9994           0
    6117 WT1  1886 TIP3 H1   HT     0.417000        1.0080           0
    6118 WT1  1886 TIP3 H2   HT     0.417000        1.0080           0
    6119 WT1  1887 TIP3 OH2  OT    -0.834000       15.9994           0
    6120 WT1  1887 TIP3 H1   HT     0.417000        1.0080           0
    6121 WT1  1887 TIP3 H2   HT     0.417000        1.0080           0
    6122 WT1  1888 TIP3 OH2  OT    -0.834000       15.9994           0
    6123 WT1  1888 TIP3 H1   HT     0.417000        1.0080           0
    6124 WT1  1888 TIP3 H2   HT     0.417000        1.0080           0
    6125 WT1  1889 TIP3 OH2  OT    -0.834000       15.9994           0
    6126 WT1  1889 TIP3 H1   HT     0.417000        1.0080           0
    6127 WT1  1889 TIP3 H2   HT     0.417000        1.0080           0
    6128 WT1  1890 TIP3 OH2  OT    -0.834000       15.9994           0
    6129 WT1  1890 TIP3 H1   HT     0.417000        1.0080           0
    6130 WT1  1890 TIP3 H2   HT     0.417000        1.0080           0
    6131 WT1  1892 TIP3 OH2  OT    -0.834000       15.9994           0
    6132 WT1  1892 TIP3 H1   HT     0.417000        1.0080           0
    6133 WT1  1892 TIP3 H2   HT     0.417000        1.0080           0
    6134 WT1  1895 TIP3 OH2  OT    -0.834000       15.9994           0
    6135 WT1  1895 TIP3 H1   HT     0.417000        1.0080           0
    6136 WT1  1895 TIP3 H2   HT     0.417000        1.0080           0
    6137 WT1  1896 TIP3 OH2  OT    -0.834000       15.9994           0
    6138 WT1  1896 TIP3 H1   HT     0.417000        1.0080           0
    6139 WT1  1896 TIP3 H2   HT     0.417000        1.0080           0
    6140 WT1  1897 TIP3 OH2  OT    -0.834000       15.9994           0
    6141 WT1  1897 TIP3 H1   HT     0.417000        1.0080           0
    6142 WT1  1897 TIP3 H2   HT     0.417000        1.0080           0
    6143 WT1  1898 TIP3 OH2  OT    -0.834000       15.9994           0
    6144 WT1  1898 TIP3 H1   HT     0.417000        1.0080           0
    6145 WT1  1898 TIP3 H2   HT     0.417000        1.0080           0
    6146 WT1  1899 TIP3 OH2  OT    -0.834000       15.9994           0
    6147 WT1  1899 TIP3 H1   HT     0.417000        1.0080           0
    6148 WT1  1899 TIP3 H2   HT     0.417000        1.0080           0
    6149 WT1  1900 TIP3 OH2  OT    -0.834000       15.9994           0
    6150 WT1  1900 TIP3 H1   HT     0.417000        1.0080           0
    6151 WT1  1900 TIP3 H2   HT     0.417000        1.0080           0
    6152 WT1  1901 TIP3 OH2  OT    -0.834000       15.9994           0
    6153 WT1  1901 TIP3 H1   HT     0.417000        1.0080           0
    6154 WT1  1901 TIP3 H2   HT     0.417000        1.0080           0
    6155 WT1  1903 TIP3 OH2  OT    -0.834000       15.9994           0
    6156 WT1  1903 TIP3 H1   HT     0.417000        1.0080           0
    6157 WT1  1903 TIP3 H2   HT     0.417000        1.0080           0
    6158 WT1  1904 TIP3 OH2  OT    -0.834000       15.9994           0
    6159 WT1  1904 TIP3 H1   HT     0.417000        1.0080           0
    6160 WT1  1904 TIP3 H2   HT     0.417000        1.0080           0
    6161 WT1  1905 TIP3 OH2  OT    -0.834000       15.9994           0
    6162 WT1  1905 TIP3 H1   HT     0.417000        1.0080           0
    6163 WT1  1905 TIP3 H2   HT     0.417000        1.0080           0
    6164 WT1  1907 TIP3 OH2  OT    -0.834000       15.9994           0
    6165 WT1  1907 TIP3 H1   HT     0.417000        1.0080           0
    6166 WT1  1907 TIP3 H2   HT     0.417000        1.0080           0
    6167 WT1  1909 TIP3 OH2  OT    -0.834000       15.9994           0
    6168 WT1  1909 TIP3 H1   HT     0.417000        1.0080           0
    6169 WT1  1909 TIP3 H2   HT     0.417000        1.0080           0
    6170 WT1  1910 TIP3 OH2  OT    -0.834000       15.9994           0
    6171 WT1  1910 TIP3 H1   HT     0.417000        1.0080           0
    6172 WT1  1910 TIP3 H2   HT     0.417000        1.0080           0
    6173 WT1  1911 TIP3 OH2  OT    -0.834000       15.9994           0
    6174 WT1  1911 TIP3 H1   HT     0.417000        1.0080           0
    6175 WT1  1911 TIP3 H2   HT     0.417000        1.0080           0
    6176 WT1  1912 TIP3 OH2  OT    -0.834000       15.9994           0
    6177 WT1  1912 TIP3 H1   HT     0.417000        1.0080           0
    6178 WT1  1912 TIP3 H2   HT     0.417000        1.0080           0
    6179 WT1  1913 TIP3 OH2  OT    -0.834000       15.9994           0
    6180 WT1  1913 TIP3 H1   HT     0.417000        1.0080           0
    6181 WT1  1913 TIP3 H2   HT     0.417000        1.0080           0
    6182 WT1  1914 TIP3 OH2  OT    -0.834000       15.9994           0
    6183 WT1  1914 TIP3 H1   HT     0.417000        1.0080           0
    6184 WT1  1914 TIP3 H2   HT     0.417000        1.0080           0
    6185 WT1  1915 TIP3 OH2  OT    -0.834000       15.9994           0
    6186 WT1  1915 TIP3 H1   HT     0.417000        1.0080           0
    6187 WT1  1915 TIP3 H2   HT     0.417000        1.0080           0
    6188 WT1  1916 TIP3 OH2  OT    -0.834000       15.9994           0
    6189 WT1  1916 TIP3 H1   HT     0.417000        1.0080           0
    6190 WT1  1916 TIP3 H2   HT     0.417000        1.0080           0
    6191 WT1  1918 TIP3 OH2  OT    -0.834000       15.9994           0
    6192 WT1  1918 TIP3 H1   HT     0.417000        1.0080           0
    6193 WT1  1918 TIP3 H2   HT     0.417000        1.0080           0
    6194 WT1  1919 TIP3 OH2  OT    -0.834000       15.9994           0
    6195 WT1  1919 TIP3 H1   HT     0.417000        1.0080           0
    6196 WT1  1919 TIP3 H2   HT     0.417000        1.0080           0
    6197 WT1  1920 TIP3 OH2  OT    -0.834000       15.9994           0
    6198 WT1  1920 TIP3 H1   HT     0.417000        1.0080           0
    6199 WT1  1920 TIP3 H2   HT     0.417000        1.0080           0
    6200 WT1  1921 TIP3 OH2  OT    -0.834000       15.9994           0
    6201 WT1  1921 TIP3 H1   HT     0.417000        1.0080           0
    6202 WT1  1921 TIP3 H2   HT     0.417000        1.0080           0
    6203 WT1  1922 TIP3 OH2  OT    -0.834000       15.9994           0
    6204 WT1  1922 TIP3 H1   HT     0.417000        1.0080           0
    6205 WT1  1922 TIP3 H2   HT     0.417000        1.0080           0
    6206 WT1  1923 TIP3 OH2  OT    -0.834000       15.9994           0
    6207 WT1  1923 TIP3 H1   HT     0.417000        1.0080           0
    6208 WT1  1923 TIP3 H2   HT     0.417000        1.0080           0
    6209 WT1  1924 TIP3 OH2  OT    -0.834000       15.9994           0
    6210 WT1  1924 TIP3 H1   HT     0.417000        1.0080           0
    6211 WT1  1924 TIP3 H2   HT     0.417000        1.0080           0
    6212 WT1  1925 TIP3 OH2  OT    -0.834000       15.9994           0
    6213 WT1  1925 TIP3 H1   HT     0.417000        1.0080           0
    6214 WT1  1925 TIP3 H2   HT     0.417000        1.0080           0
    6215 WT1  1926 TIP3 OH2  OT    -0.834000       15.9994           0
    6216 WT1  1926 TIP3 H1   HT     0.417000        1.0080           0
    6217 WT1  1926 TIP3 H2   HT     0.417000        1.0080           0
    6218 WT1  1927 TIP3 OH2  OT    -0.834000       15.9994           0
    6219 WT1  1927 TIP3 H1   HT     0.417000        1.0080           0
    6220 WT1  1927 TIP3 H2   HT     0.417000        1.0080           0
    6221 WT1  1928 TIP3 OH2  OT    -0.834000       15.9994           0
    6222 WT1  1928 TIP3 H1   HT     0.417000        1.0080           0
    6223 WT1  1928 TIP3 H2   HT     0.417000        1.0080           0
    6224 WT1  1929 TIP3 OH2  OT    -0.834000       15.9994           0
    6225 WT1  1929 TIP3 H1   HT     0.417000        1.0080           0
    6226 WT1  1929 TIP3 H2   HT     0.417000        1.0080           0
    6227 WT1  1930 TIP3 OH2  OT    -0.834000       15.9994           0
    6228 WT1  1930 TIP3 H1   HT     0.417000        1.0080           0
    6229 WT1  1930 TIP3 H2   HT     0.417000        1.0080           0
    6230 WT1  1931 TIP3 OH2  OT    -0.834000       15.9994           0
    6231 WT1  1931 TIP3 H1   HT     0.417000        1.0080           0
    6232 WT1  1931 TIP3 H2   HT     0.417000        1.0080           0
    6233 WT1  1932 TIP3 OH2  OT    -0.834000       15.9994           0
    6234 WT1  1932 TIP3 H1   HT     0.417000        1.0080           0
    6235 WT1  1932 TIP3 H2   HT     0.417000        1.0080           0
    6236 WT1  1933 TIP3 OH2  OT    -0.834000       15.9994           0
    6237 WT1  1933 TIP3 H1   HT     0.417000        1.0080           0
    6238 WT1  1933 TIP3 H2   HT     0.417000        1.0080           0
    6239 WT1  1934 TIP3 OH2  OT    -0.834000       15.9994           0
    6240 WT1  1934 TIP3 H1   HT     0.417000        1.0080           0
    6241 WT1  1934 TIP3 H2   HT     0.417000        1.0080           0
    6242 WT1  1935 TIP3 OH2  OT    -0.834000       15.9994           0
    6243 WT1  1935 TIP3 H1   HT     0.417000        1.0080           0
    6244 WT1  1935 TIP3 H2   HT     0.417000        1.0080           0
    6245 WT1  1936 TIP3 OH2  OT    -0.834000       15.9994           0
    6246 WT1  1936 TIP3 H1   HT     0.417000        1.0080           0
    6247 WT1  1936 TIP3 H2   HT     0.417000        1.0080           0
    6248 WT1  1937 TIP3 OH2  OT    -0.834000       15.9994           0
    6249 WT1  1937 TIP3 H1   HT     0.417000        1.0080           0
    6250 WT1  1937 TIP3 H2   HT     0.417000        1.0080           0
    6251 WT1  1938 TIP3 OH2  OT    -0.834000       15.9994           0
    6252 WT1  1938 TIP3 H1   HT     0.417000        1.0080           0
    6253 WT1  1938 TIP3 H2   HT     0.417000        1.0080           0
    6254 WT1  1939 TIP3 OH2  OT    -0.834000       15.9994           0
    6255 WT1  1939 TIP3 H1   HT     0.417000        1.0080           0
    6256 WT1  1939 TIP3 H2   HT     0.417000        1.0080           0
    6257 WT1  1940 TIP3 OH2  OT    -0.834000       15.9994           0
    6258 WT1  1940 TIP3 H1   HT     0.417000        1.0080           0
    6259 WT1  1940 TIP3 H2   HT     0.417000        1.0080           0
    6260 WT1  1941 TIP3 OH2  OT    -0.834000       15.9994           0
    6261 WT1  1941 TIP3 H1   HT     0.417000        1.0080           0
    6262 WT1  1941 TIP3 H2   HT     0.417000        1.0080           0
    6263 WT1  1942 TIP3 OH2  OT    -0.834000       15.9994           0
    6264 WT1  1942 TIP3 H1   HT     0.417000        1.0080           0
    6265 WT1  1942 TIP3 H2   HT     0.417000        1.0080           0
    6266 WT1  1943 TIP3 OH2  OT    -0.834000       15.9994           0
    6267 WT1  1943 TIP3 H1   HT     0.417000        1.0080           0
    6268 WT1  1943 TIP3 H2   HT     0.417000        1.0080           0
    6269 WT1  1944 TIP3 OH2  OT    -0.834000       15.9994           0
    6270 WT1  1944 TIP3 H1   HT     0.417000        1.0080           0
    6271 WT1  1944 TIP3 H2   HT     0.417000        1.0080           0
    6272 WT1  1945 TIP3 OH2  OT    -0.834000       15.9994           0
    6273 WT1  1945 TIP3 H1   HT     0.417000        1.0080           0
    6274 WT1  1945 TIP3 H2   HT     0.417000        1.0080           0
    6275 WT1  1946 TIP3 OH2  OT    -0.834000       15.9994           0
    6276 WT1  1946 TIP3 H1   HT     0.417000        1.0080           0
    6277 WT1  1946 TIP3 H2   HT     0.417000        1.0080           0
    6278 WT1  1947 TIP3 OH2  OT    -0.834000       15.9994           0
    6279 WT1  1947 TIP3 H1   HT     0.417000        1.0080           0
    6280 WT1  1947 TIP3 H2   HT     0.417000        1.0080           0
    6281 WT1  1948 TIP3 OH2  OT    -0.834000       15.9994           0
    6282 WT1  1948 TIP3 H1   HT     0.417000        1.0080           0
    6283 WT1  1948 TIP3 H2   HT     0.417000        1.0080           0
    6284 WT1  1949 TIP3 OH2  OT    -0.834000       15.9994           0
    6285 WT1  1949 TIP3 H1   HT     0.417000        1.0080           0
    6286 WT1  1949 TIP3 H2   HT     0.417000        1.0080           0
    6287 WT1  1950 TIP3 OH2  OT    -0.834000       15.9994           0
    6288 WT1  1950 TIP3 H1   HT     0.417000        1.0080           0
    6289 WT1  1950 TIP3 H2   HT     0.417000        1.0080           0
    6290 WT1  1951 TIP3 OH2  OT    -0.834000       15.9994           0
    6291 WT1  1951 TIP3 H1   HT     0.417000        1.0080           0
    6292 WT1  1951 TIP3 H2   HT     0.417000        1.0080           0
    6293 WT1  1952 TIP3 OH2  OT    -0.834000       15.9994           0
    6294 WT1  1952 TIP3 H1   HT     0.417000        1.0080           0
    6295 WT1  1952 TIP3 H2   HT     0.417000        1.0080           0
    6296 WT1  1953 TIP3 OH2  OT    -0.834000       15.9994           0
    6297 WT1  1953 TIP3 H1   HT     0.417000        1.0080           0
    6298 WT1  1953 TIP3 H2   HT     0.417000        1.0080           0
    6299 WT1  1954 TIP3 OH2  OT    -0.834000       15.9994           0
    6300 WT1  1954 TIP3 H1   HT     0.417000        1.0080           0
    6301 WT1  1954 TIP3 H2   HT     0.417000        1.0080           0
    6302 WT1  1955 TIP3 OH2  OT    -0.834000       15.9994           0
    6303 WT1  1955 TIP3 H1   HT     0.417000        1.0080           0
    6304 WT1  1955 TIP3 H2   HT     0.417000        1.0080           0
    6305 WT1  1956 TIP3 OH2  OT    -0.834000       15.9994           0
    6306 WT1  1956 TIP3 H1   HT     0.417000        1.0080           0
    6307 WT1  1956 TIP3 H2   HT     0.417000        1.0080           0
    6308 WT1  1957 TIP3 OH2  OT    -0.834000       15.9994           0
    6309 WT1  1957 TIP3 H1   HT     0.417000        1.0080           0
    6310 WT1  1957 TIP3 H2   HT     0.417000        1.0080           0
    6311 WT1  1958 TIP3 OH2  OT    -0.834000       15.9994           0
    6312 WT1  1958 TIP3 H1   HT     0.417000        1.0080           0
    6313 WT1  1958 TIP3 H2   HT     0.417000        1.0080           0
    6314 WT1  1959 TIP3 OH2  OT    -0.834000       15.9994           0
    6315 WT1  1959 TIP3 H1   HT     0.417000        1.0080           0
    6316 WT1  1959 TIP3 H2   HT     0.417000        1.0080           0
    6317 WT1  1960 TIP3 OH2  OT    -0.834000       15.9994           0
    6318 WT1  1960 TIP3 H1   HT     0.417000        1.0080           0
    6319 WT1  1960 TIP3 H2   HT     0.417000        1.0080           0
    6320 WT1  1961 TIP3 OH2  OT    -0.834000       15.9994           0
    6321 WT1  1961 TIP3 H1   HT     0.417000        1.0080           0
    6322 WT1  1961 TIP3 H2   HT     0.417000        1.0080           0
    6323 WT1  1964 TIP3 OH2  OT    -0.834000       15.9994           0
    6324 WT1  1964 TIP3 H1   HT     0.417000        1.0080           0
    6325 WT1  1964 TIP3 H2   HT     0.417000        1.0080           0
    6326 WT1  1965 TIP3 OH2  OT    -0.834000       15.9994           0
    6327 WT1  1965 TIP3 H1   HT     0.417000        1.0080           0
    6328 WT1  1965 TIP3 H2   HT     0.417000        1.0080           0
    6329 WT1  1967 TIP3 OH2  OT    -0.834000       15.9994           0
    6330 WT1  1967 TIP3 H1   HT     0.417000        1.0080           0
    6331 WT1  1967 TIP3 H2   HT     0.417000        1.0080           0
    6332 WT1  1969 TIP3 OH2  OT    -0.834000       15.9994           0
    6333 WT1  1969 TIP3 H1   HT     0.417000        1.0080           0
    6334 WT1  1969 TIP3 H2   HT     0.417000        1.0080           0
    6335 WT1  1970 TIP3 OH2  OT    -0.834000       15.9994           0
    6336 WT1  1970 TIP3 H1   HT     0.417000        1.0080           0
    6337 WT1  1970 TIP3 H2   HT     0.417000        1.0080           0
    6338 WT1  1971 TIP3 OH2  OT    -0.834000       15.9994           0
    6339 WT1  1971 TIP3 H1   HT     0.417000        1.0080           0
    6340 WT1  1971 TIP3 H2   HT     0.417000        1.0080           0
    6341 WT1  1972 TIP3 OH2  OT    -0.834000       15.9994           0
    6342 WT1  1972 TIP3 H1   HT     0.417000        1.0080           0
    6343 WT1  1972 TIP3 H2   HT     0.417000        1.0080           0
    6344 WT1  1973 TIP3 OH2  OT    -0.834000       15.9994           0
    6345 WT1  1973 TIP3 H1   HT     0.417000        1.0080           0
    6346 WT1  1973 TIP3 H2   HT     0.417000        1.0080           0
    6347 WT1  1974 TIP3 OH2  OT    -0.834000       15.9994           0
    6348 WT1  1974 TIP3 H1   HT     0.417000        1.0080           0
    6349 WT1  1974 TIP3 H2   HT     0.417000        1.0080           0
    6350 WT1  1975 TIP3 OH2  OT    -0.834000       15.9994           0
    6351 WT1  1975 TIP3 H1   HT     0.417000        1.0080           0
    6352 WT1  1975 TIP3 H2   HT     0.417000        1.0080           0
    6353 WT1  1976 TIP3 OH2  OT    -0.834000       15.9994           0
    6354 WT1  1976 TIP3 H1   HT     0.417000        1.0080           0
    6355 WT1  1976 TIP3 H2   HT     0.417000        1.0080           0
    6356 WT1  1977 TIP3 OH2  OT    -0.834000       15.9994           0
    6357 WT1  1977 TIP3 H1   HT     0.417000        1.0080           0
    6358 WT1  1977 TIP3 H2   HT     0.417000        1.0080           0
    6359 WT1  1978 TIP3 OH2  OT    -0.834000       15.9994           0
    6360 WT1  1978 TIP3 H1   HT     0.417000        1.0080           0
    6361 WT1  1978 TIP3 H2   HT     0.417000        1.0080           0
    6362 WT1  1979 TIP3 OH2  OT    -0.834000       15.9994           0
    6363 WT1  1979 TIP3 H1   HT     0.417000        1.0080           0
    6364 WT1  1979 TIP3 H2   HT     0.417000        1.0080           0
    6365 WT1  1981 TIP3 OH2  OT    -0.834000       15.9994           0
    6366 WT1  1981 TIP3 H1   HT     0.417000        1.0080           0
    6367 WT1  1981 TIP3 H2   HT     0.417000        1.0080           0
    6368 WT1  1982 TIP3 OH2  OT    -0.834000       15.9994           0
    6369 WT1  1982 TIP3 H1   HT     0.417000        1.0080           0
    6370 WT1  1982 TIP3 H2   HT     0.417000        1.0080           0
    6371 WT1  1983 TIP3 OH2  OT    -0.834000       15.9994           0
    6372 WT1  1983 TIP3 H1   HT     0.417000        1.0080           0
    6373 WT1  1983 TIP3 H2   HT     0.417000        1.0080           0
    6374 WT1  1984 TIP3 OH2  OT    -0.834000       15.9994           0
    6375 WT1  1984 TIP3 H1   HT     0.417000        1.0080           0
    6376 WT1  1984 TIP3 H2   HT     0.417000        1.0080           0
    6377 WT1  1986 TIP3 OH2  OT    -0.834000       15.9994           0
    6378 WT1  1986 TIP3 H1   HT     0.417000        1.0080           0
    6379 WT1  1986 TIP3 H2   HT     0.417000        1.0080           0
    6380 WT1  1987 TIP3 OH2  OT    -0.834000       15.9994           0
    6381 WT1  1987 TIP3 H1   HT     0.417000        1.0080           0
    6382 WT1  1987 TIP3 H2   HT     0.417000        1.0080           0
    6383 WT1  1988 TIP3 OH2  OT    -0.834000       15.9994           0
    6384 WT1  1988 TIP3 H1   HT     0.417000        1.0080           0
    6385 WT1  1988 TIP3 H2   HT     0.417000        1.0080           0
    6386 WT1  1990 TIP3 OH2  OT    -0.834000       15.9994           0
    6387 WT1  1990 TIP3 H1   HT     0.417000        1.0080           0
    6388 WT1  1990 TIP3 H2   HT     0.417000        1.0080           0
    6389 WT1  1991 TIP3 OH2  OT    -0.834000       15.9994           0
    6390 WT1  1991 TIP3 H1   HT     0.417000        1.0080           0
    6391 WT1  1991 TIP3 H2   HT     0.417000        1.0080           0
    6392 WT1  1992 TIP3 OH2  OT    -0.834000       15.9994           0
    6393 WT1  1992 TIP3 H1   HT     0.417000        1.0080           0
    6394 WT1  1992 TIP3 H2   HT     0.417000        1.0080           0
    6395 WT1  1993 TIP3 OH2  OT    -0.834000       15.9994           0
    6396 WT1  1993 TIP3 H1   HT     0.417000        1.0080           0
    6397 WT1  1993 TIP3 H2   HT     0.417000        1.0080           0
    6398 WT1  1994 TIP3 OH2  OT    -0.834000       15.9994           0
    6399 WT1  1994 TIP3 H1   HT     0.417000        1.0080           0
    6400 WT1  1994 TIP3 H2   HT     0.417000        1.0080           0
    6401 WT1  1995 TIP3 OH2  OT    -0.834000       15.9994           0
    6402 WT1  1995 TIP3 H1   HT     0.417000        1.0080           0
    6403 WT1  1995 TIP3 H2   HT     0.417000        1.0080           0
    6404 WT1  1996 TIP3 OH2  OT    -0.834000       15.9994           0
    6405 WT1  1996 TIP3 H1   HT     0.417000        1.0080           0
    6406 WT1  1996 TIP3 H2   HT     0.417000        1.0080           0
    6407 WT1  1998 TIP3 OH2  OT    -0.834000       15.9994           0
    6408 WT1  1998 TIP3 H1   HT     0.417000        1.0080           0
    6409 WT1  1998 TIP3 H2   HT     0.417000        1.0080           0
    6410 WT1  1999 TIP3 OH2  OT    -0.834000       15.9994           0
    6411 WT1  1999 TIP3 H1   HT     0.417000        1.0080           0
    6412 WT1  1999 TIP3 H2   HT     0.417000        1.0080           0
    6413 WT1  2000 TIP3 OH2  OT    -0.834000       15.9994           0
    6414 WT1  2000 TIP3 H1   HT     0.417000        1.0080           0
    6415 WT1  2000 TIP3 H2   HT     0.417000        1.0080           0
    6416 WT1  2001 TIP3 OH2  OT    -0.834000       15.9994           0
    6417 WT1  2001 TIP3 H1   HT     0.417000        1.0080           0
    6418 WT1  2001 TIP3 H2   HT     0.417000        1.0080           0
    6419 WT1  2003 TIP3 OH2  OT    -0.834000       15.9994           0
    6420 WT1  2003 TIP3 H1   HT     0.417000        1.0080           0
    6421 WT1  2003 TIP3 H2   HT     0.417000        1.0080           0
    6422 WT1  2004 TIP3 OH2  OT    -0.834000       15.9994           0
    6423 WT1  2004 TIP3 H1   HT     0.417000        1.0080           0
    6424 WT1  2004 TIP3 H2   HT     0.417000        1.0080           0
    6425 WT1  2005 TIP3 OH2  OT    -0.834000       15.9994           0
    6426 WT1  2005 TIP3 H1   HT     0.417000        1.0080           0
    6427 WT1  2005 TIP3 H2   HT     0.417000        1.0080           0
    6428 WT1  2006 TIP3 OH2  OT    -0.834000       15.9994           0
    6429 WT1  2006 TIP3 H1   HT     0.417000        1.0080           0
    6430 WT1  2006 TIP3 H2   HT     0.417000        1.0080           0
    6431 WT1  2007 TIP3 OH2  OT    -0.834000       15.9994           0
    6432 WT1  2007 TIP3 H1   HT     0.417000        1.0080           0
    6433 WT1  2007 TIP3 H2   HT     0.417000        1.0080           0
    6434 WT1  2008 TIP3 OH2  OT    -0.834000       15.9994           0
    6435 WT1  2008 TIP3 H1   HT     0.417000        1.0080           0
    6436 WT1  2008 TIP3 H2   HT     0.417000        1.0080           0
    6437 WT1  2009 TIP3 OH2  OT    -0.834000       15.9994           0
    6438 WT1  2009 TIP3 H1   HT     0.417000        1.0080           0
    6439 WT1  2009 TIP3 H2   HT     0.417000        1.0080           0
    6440 WT1  2010 TIP3 OH2  OT    -0.834000       15.9994           0
    6441 WT1  2010 TIP3 H1   HT     0.417000        1.0080           0
    6442 WT1  2010 TIP3 H2   HT     0.417000        1.0080           0
    6443 WT1  2011 TIP3 OH2  OT    -0.834000       15.9994           0
    6444 WT1  2011 TIP3 H1   HT     0.417000        1.0080           0
    6445 WT1  2011 TIP3 H2   HT     0.417000        1.0080           0
    6446 WT1  2012 TIP3 OH2  OT    -0.834000       15.9994           0
    6447 WT1  2012 TIP3 H1   HT     0.417000        1.0080           0
    6448 WT1  2012 TIP3 H2   HT     0.417000        1.0080           0
    6449 WT1  2013 TIP3 OH2  OT    -0.834000       15.9994           0
    6450 WT1  2013 TIP3 H1   HT     0.417000        1.0080           0
    6451 WT1  2013 TIP3 H2   HT     0.417000        1.0080           0
    6452 WT1  2014 TIP3 OH2  OT    -0.834000       15.9994           0
    6453 WT1  2014 TIP3 H1   HT     0.417000        1.0080           0
    6454 WT1  2014 TIP3 H2   HT     0.417000        1.0080           0
    6455 WT1  2015 TIP3 OH2  OT    -0.834000       15.9994           0
    6456 WT1  2015 TIP3 H1   HT     0.417000        1.0080           0
    6457 WT1  2015 TIP3 H2   HT     0.417000        1.0080           0
    6458 WT1  2017 TIP3 OH2  OT    -0.834000       15.9994           0
    6459 WT1  2017 TIP3 H1   HT     0.417000        1.0080           0
    6460 WT1  2017 TIP3 H2   HT     0.417000        1.0080           0
    6461 WT1  2018 TIP3 OH2  OT    -0.834000       15.9994           0
    6462 WT1  2018 TIP3 H1   HT     0.417000        1.0080           0
    6463 WT1  2018 TIP3 H2   HT     0.417000        1.0080           0
    6464 WT1  2019 TIP3 OH2  OT    -0.834000       15.9994           0
    6465 WT1  2019 TIP3 H1   HT     0.417000        1.0080           0
    6466 WT1  2019 TIP3 H2   HT     0.417000        1.0080           0
    6467 WT1  2020 TIP3 OH2  OT    -0.834000       15.9994           0
    6468 WT1  2020 TIP3 H1   HT     0.417000        1.0080           0
    6469 WT1  2020 TIP3 H2   HT     0.417000        1.0080           0
    6470 WT1  2021 TIP3 OH2  OT    -0.834000       15.9994           0
    6471 WT1  2021 TIP3 H1   HT     0.417000        1.0080           0
    6472 WT1  2021 TIP3 H2   HT     0.417000        1.0080           0
    6473 WT1  2022 TIP3 OH2  OT    -0.834000       15.9994           0
    6474 WT1  2022 TIP3 H1   HT     0.417000        1.0080           0
    6475 WT1  2022 TIP3 H2   HT     0.417000        1.0080           0
    6476 WT1  2023 TIP3 OH2  OT    -0.834000       15.9994           0
    6477 WT1  2023 TIP3 H1   HT     0.417000        1.0080           0
    6478 WT1  2023 TIP3 H2   HT     0.417000        1.0080           0
    6479 WT1  2024 TIP3 OH2  OT    -0.834000       15.9994           0
    6480 WT1  2024 TIP3 H1   HT     0.417000        1.0080           0
    6481 WT1  2024 TIP3 H2   HT     0.417000        1.0080           0
    6482 WT1  2025 TIP3 OH2  OT    -0.834000       15.9994           0
    6483 WT1  2025 TIP3 H1   HT     0.417000        1.0080           0
    6484 WT1  2025 TIP3 H2   HT     0.417000        1.0080           0
    6485 WT1  2028 TIP3 OH2  OT    -0.834000       15.9994           0
    6486 WT1  2028 TIP3 H1   HT     0.417000        1.0080           0
    6487 WT1  2028 TIP3 H2   HT     0.417000        1.0080           0
    6488 WT1  2030 TIP3 OH2  OT    -0.834000       15.9994           0
    6489 WT1  2030 TIP3 H1   HT     0.417000        1.0080           0
    6490 WT1  2030 TIP3 H2   HT     0.417000        1.0080           0
    6491 WT1  2032 TIP3 OH2  OT    -0.834000       15.9994           0
    6492 WT1  2032 TIP3 H1   HT     0.417000        1.0080           0
    6493 WT1  2032 TIP3 H2   HT     0.417000        1.0080           0
    6494 WT1  2033 TIP3 OH2  OT    -0.834000       15.9994           0
    6495 WT1  2033 TIP3 H1   HT     0.417000        1.0080           0
    6496 WT1  2033 TIP3 H2   HT     0.417000        1.0080           0
    6497 WT1  2035 TIP3 OH2  OT    -0.834000       15.9994           0
    6498 WT1  2035 TIP3 H1   HT     0.417000        1.0080           0
    6499 WT1  2035 TIP3 H2   HT     0.417000        1.0080           0
    6500 WT1  2036 TIP3 OH2  OT    -0.834000       15.9994           0
    6501 WT1  2036 TIP3 H1   HT     0.417000        1.0080           0
    6502 WT1  2036 TIP3 H2   HT     0.417000        1.0080           0
    6503 WT1  2037 TIP3 OH2  OT    -0.834000       15.9994           0
    6504 WT1  2037 TIP3 H1   HT     0.417000        1.0080           0
    6505 WT1  2037 TIP3 H2   HT     0.417000        1.0080           0
    6506 WT1  2038 TIP3 OH2  OT    -0.834000       15.9994           0
    6507 WT1  2038 TIP3 H1   HT     0.417000        1.0080           0
    6508 WT1  2038 TIP3 H2   HT     0.417000        1.0080           0
    6509 WT1  2039 TIP3 OH2  OT    -0.834000       15.9994           0
    6510 WT1  2039 TIP3 H1   HT     0.417000        1.0080           0
    6511 WT1  2039 TIP3 H2   HT     0.417000        1.0080           0
    6512 WT1  2040 TIP3 OH2  OT    -0.834000       15.9994           0
    6513 WT1  2040 TIP3 H1   HT     0.417000        1.0080           0
    6514 WT1  2040 TIP3 H2   HT     0.417000        1.0080           0
    6515 WT1  2041 TIP3 OH2  OT    -0.834000       15.9994           0
    6516 WT1  2041 TIP3 H1   HT     0.417000        1.0080           0
    6517 WT1  2041 TIP3 H2   HT     0.417000        1.0080           0
    6518 WT1  2042 TIP3 OH2  OT    -0.834000       15.9994           0
    6519 WT1  2042 TIP3 H1   HT     0.417000        1.0080           0
    6520 WT1  2042 TIP3 H2   HT     0.417000        1.0080           0
    6521 WT1  2043 TIP3 OH2  OT    -0.834000       15.9994           0
    6522 WT1  2043 TIP3 H1   HT     0.417000        1.0080           0
    6523 WT1  2043 TIP3 H2   HT     0.417000        1.0080           0
    6524 WT1  2044 TIP3 OH2  OT    -0.834000       15.9994           0
    6525 WT1  2044 TIP3 H1   HT     0.417000        1.0080           0
    6526 WT1  2044 TIP3 H2   HT     0.417000        1.0080           0
    6527 WT1  2045 TIP3 OH2  OT    -0.834000       15.9994           0
    6528 WT1  2045 TIP3 H1   HT     0.417000        1.0080           0
    6529 WT1  2045 TIP3 H2   HT     0.417000        1.0080           0
    6530 WT1  2046 TIP3 OH2  OT    -0.834000       15.9994           0
    6531 WT1  2046 TIP3 H1   HT     0.417000        1.0080           0
    6532 WT1  2046 TIP3 H2   HT     0.417000        1.0080           0
    6533 WT1  2047 TIP3 OH2  OT    -0.834000       15.9994           0
    6534 WT1  2047 TIP3 H1   HT     0.417000        1.0080           0
    6535 WT1  2047 TIP3 H2   HT     0.417000        1.0080           0
    6536 WT1  2048 TIP3 OH2  OT    -0.834000       15.9994           0
    6537 WT1  2048 TIP3 H1   HT     0.417000        1.0080           0
    6538 WT1  2048 TIP3 H2   HT     0.417000        1.0080           0
    6539 WT1  2049 TIP3 OH2  OT    -0.834000       15.9994           0
    6540 WT1  2049 TIP3 H1   HT     0.417000        1.0080           0
    6541 WT1  2049 TIP3 H2   HT     0.417000        1.0080           0
    6542 WT1  2050 TIP3 OH2  OT    -0.834000       15.9994           0
    6543 WT1  2050 TIP3 H1   HT     0.417000        1.0080           0
    6544 WT1  2050 TIP3 H2   HT     0.417000        1.0080           0
    6545 WT1  2051 TIP3 OH2  OT    -0.834000       15.9994           0
    6546 WT1  2051 TIP3 H1   HT     0.417000        1.0080           0
    6547 WT1  2051 TIP3 H2   HT     0.417000        1.0080           0
    6548 WT1  2053 TIP3 OH2  OT    -0.834000       15.9994           0
    6549 WT1  2053 TIP3 H1   HT     0.417000        1.0080           0
    6550 WT1  2053 TIP3 H2   HT     0.417000        1.0080           0
    6551 WT1  2054 TIP3 OH2  OT    -0.834000       15.9994           0
    6552 WT1  2054 TIP3 H1   HT     0.417000        1.0080           0
    6553 WT1  2054 TIP3 H2   HT     0.417000        1.0080           0
    6554 WT1  2055 TIP3 OH2  OT    -0.834000       15.9994           0
    6555 WT1  2055 TIP3 H1   HT     0.417000        1.0080           0
    6556 WT1  2055 TIP3 H2   HT     0.417000        1.0080           0
    6557 WT1  2056 TIP3 OH2  OT    -0.834000       15.9994           0
    6558 WT1  2056 TIP3 H1   HT     0.417000        1.0080           0
    6559 WT1  2056 TIP3 H2   HT     0.417000        1.0080           0
    6560 WT1  2057 TIP3 OH2  OT    -0.834000       15.9994           0
    6561 WT1  2057 TIP3 H1   HT     0.417000        1.0080           0
    6562 WT1  2057 TIP3 H2   HT     0.417000        1.0080           0
    6563 WT1  2058 TIP3 OH2  OT    -0.834000       15.9994           0
    6564 WT1  2058 TIP3 H1   HT     0.417000        1.0080           0
    6565 WT1  2058 TIP3 H2   HT     0.417000        1.0080           0
    6566 WT1  2059 TIP3 OH2  OT    -0.834000       15.9994           0
    6567 WT1  2059 TIP3 H1   HT     0.417000        1.0080           0
    6568 WT1  2059 TIP3 H2   HT     0.417000        1.0080           0
    6569 WT1  2060 TIP3 OH2  OT    -0.834000       15.9994           0
    6570 WT1  2060 TIP3 H1   HT     0.417000        1.0080           0
    6571 WT1  2060 TIP3 H2   HT     0.417000        1.0080           0
    6572 WT1  2061 TIP3 OH2  OT    -0.834000       15.9994           0
    6573 WT1  2061 TIP3 H1   HT     0.417000        1.0080           0
    6574 WT1  2061 TIP3 H2   HT     0.417000        1.0080           0
    6575 WT1  2062 TIP3 OH2  OT    -0.834000       15.9994           0
    6576 WT1  2062 TIP3 H1   HT     0.417000        1.0080           0
    6577 WT1  2062 TIP3 H2   HT     0.417000        1.0080           0
    6578 WT1  2063 TIP3 OH2  OT    -0.834000       15.9994           0
    6579 WT1  2063 TIP3 H1   HT     0.417000        1.0080           0
    6580 WT1  2063 TIP3 H2   HT     0.417000        1.0080           0
    6581 WT1  2064 TIP3 OH2  OT    -0.834000       15.9994           0
    6582 WT1  2064 TIP3 H1   HT     0.417000        1.0080           0
    6583 WT1  2064 TIP3 H2   HT     0.417000        1.0080           0
    6584 WT1  2065 TIP3 OH2  OT    -0.834000       15.9994           0
    6585 WT1  2065 TIP3 H1   HT     0.417000        1.0080           0
    6586 WT1  2065 TIP3 H2   HT     0.417000        1.0080           0
    6587 WT1  2066 TIP3 OH2  OT    -0.834000       15.9994           0
    6588 WT1  2066 TIP3 H1   HT     0.417000        1.0080           0
    6589 WT1  2066 TIP3 H2   HT     0.417000        1.0080           0
    6590 WT1  2067 TIP3 OH2  OT    -0.834000       15.9994           0
    6591 WT1  2067 TIP3 H1   HT     0.417000        1.0080           0
    6592 WT1  2067 TIP3 H2   HT     0.417000        1.0080           0
    6593 WT1  2068 TIP3 OH2  OT    -0.834000       15.9994           0
    6594 WT1  2068 TIP3 H1   HT     0.417000        1.0080           0
    6595 WT1  2068 TIP3 H2   HT     0.417000        1.0080           0
    6596 WT1  2069 TIP3 OH2  OT    -0.834000       15.9994           0
    6597 WT1  2069 TIP3 H1   HT     0.417000        1.0080           0
    6598 WT1  2069 TIP3 H2   HT     0.417000        1.0080           0
    6599 WT1  2070 TIP3 OH2  OT    -0.834000       15.9994           0
    6600 WT1  2070 TIP3 H1   HT     0.417000        1.0080           0
    6601 WT1  2070 TIP3 H2   HT     0.417000        1.0080           0
    6602 WT1  2071 TIP3 OH2  OT    -0.834000       15.9994           0
    6603 WT1  2071 TIP3 H1   HT     0.417000        1.0080           0
    6604 WT1  2071 TIP3 H2   HT     0.417000        1.0080           0
    6605 WT1  2072 TIP3 OH2  OT    -0.834000       15.9994           0
    6606 WT1  2072 TIP3 H1   HT     0.417000        1.0080           0
    6607 WT1  2072 TIP3 H2   HT     0.417000        1.0080           0
    6608 WT1  2073 TIP3 OH2  OT    -0.834000       15.9994           0
    6609 WT1  2073 TIP3 H1   HT     0.417000        1.0080           0
    6610 WT1  2073 TIP3 H2   HT     0.417000        1.0080           0
    6611 WT1  2074 TIP3 OH2  OT    -0.834000       15.9994           0
    6612 WT1  2074 TIP3 H1   HT     0.417000        1.0080           0
    6613 WT1  2074 TIP3 H2   HT     0.417000        1.0080           0
    6614 WT1  2075 TIP3 OH2  OT    -0.834000       15.9994           0
    6615 WT1  2075 TIP3 H1   HT     0.417000        1.0080           0
    6616 WT1  2075 TIP3 H2   HT     0.417000        1.0080           0
    6617 WT1  2076 TIP3 OH2  OT    -0.834000       15.9994           0
    6618 WT1  2076 TIP3 H1   HT     0.417000        1.0080           0
    6619 WT1  2076 TIP3 H2   HT     0.417000        1.0080           0
    6620 WT1  2077 TIP3 OH2  OT    -0.834000       15.9994           0
    6621 WT1  2077 TIP3 H1   HT     0.417000        1.0080           0
    6622 WT1  2077 TIP3 H2   HT     0.417000        1.0080           0
    6623 WT1  2078 TIP3 OH2  OT    -0.834000       15.9994           0
    6624 WT1  2078 TIP3 H1   HT     0.417000        1.0080           0
    6625 WT1  2078 TIP3 H2   HT     0.417000        1.0080           0
    6626 WT1  2079 TIP3 OH2  OT    -0.834000       15.9994           0
    6627 WT1  2079 TIP3 H1   HT     0.417000        1.0080           0
    6628 WT1  2079 TIP3 H2   HT     0.417000        1.0080           0
    6629 WT1  2080 TIP3 OH2  OT    -0.834000       15.9994           0
    6630 WT1  2080 TIP3 H1   HT     0.417000        1.0080           0
    6631 WT1  2080 TIP3 H2   HT     0.417000        1.0080           0
    6632 WT1  2081 TIP3 OH2  OT    -0.834000       15.9994           0
    6633 WT1  2081 TIP3 H1   HT     0.417000        1.0080           0
    6634 WT1  2081 TIP3 H2   HT     0.417000        1.0080           0
    6635 WT1  2082 TIP3 OH2  OT    -0.834000       15.9994           0
    6636 WT1  2082 TIP3 H1   HT     0.417000        1.0080           0
    6637 WT1  2082 TIP3 H2   HT     0.417000        1.0080           0
    6638 WT1  2083 TIP3 OH2  OT    -0.834000       15.9994           0
    6639 WT1  2083 TIP3 H1   HT     0.417000        1.0080           0
    6640 WT1  2083 TIP3 H2   HT     0.417000        1.0080           0
    6641 WT1  2084 TIP3 OH2  OT    -0.834000       15.9994           0
    6642 WT1  2084 TIP3 H1   HT     0.417000        1.0080           0
    6643 WT1  2084 TIP3 H2   HT     0.417000        1.0080           0
    6644 WT1  2086 TIP3 OH2  OT    -0.834000       15.9994           0
    6645 WT1  2086 TIP3 H1   HT     0.417000        1.0080           0
    6646 WT1  2086 TIP3 H2   HT     0.417000        1.0080           0
    6647 WT1  2087 TIP3 OH2  OT    -0.834000       15.9994           0
    6648 WT1  2087 TIP3 H1   HT     0.417000        1.0080           0
    6649 WT1  2087 TIP3 H2   HT     0.417000        1.0080           0
    6650 WT1  2088 TIP3 OH2  OT    -0.834000       15.9994           0
    6651 WT1  2088 TIP3 H1   HT     0.417000        1.0080           0
    6652 WT1  2088 TIP3 H2   HT     0.417000        1.0080           0
    6653 WT1  2089 TIP3 OH2  OT    -0.834000       15.9994           0
    6654 WT1  2089 TIP3 H1   HT     0.417000        1.0080           0
    6655 WT1  2089 TIP3 H2   HT     0.417000        1.0080           0
    6656 WT1  2090 TIP3 OH2  OT    -0.834000       15.9994           0
    6657 WT1  2090 TIP3 H1   HT     0.417000        1.0080           0
    6658 WT1  2090 TIP3 H2   HT     0.417000        1.0080           0
    6659 WT1  2091 TIP3 OH2  OT    -0.834000       15.9994           0
    6660 WT1  2091 TIP3 H1   HT     0.417000        1.0080           0
    6661 WT1  2091 TIP3 H2   HT     0.417000        1.0080           0
    6662 WT1  2092 TIP3 OH2  OT    -0.834000       15.9994           0
    6663 WT1  2092 TIP3 H1   HT     0.417000        1.0080           0
    6664 WT1  2092 TIP3 H2   HT     0.417000        1.0080           0
    6665 WT1  2093 TIP3 OH2  OT    -0.834000       15.9994           0
    6666 WT1  2093 TIP3 H1   HT     0.417000        1.0080           0
    6667 WT1  2093 TIP3 H2   HT     0.417000        1.0080           0
    6668 WT1  2094 TIP3 OH2  OT    -0.834000       15.9994           0
    6669 WT1  2094 TIP3 H1   HT     0.417000        1.0080           0
    6670 WT1  2094 TIP3 H2   HT     0.417000        1.0080           0
    6671 WT1  2095 TIP3 OH2  OT    -0.834000       15.9994           0
    6672 WT1  2095 TIP3 H1   HT     0.417000        1.0080           0
    6673 WT1  2095 TIP3 H2   HT     0.417000        1.0080           0
    6674 WT1  2096 TIP3 OH2  OT    -0.834000       15.9994           0
    6675 WT1  2096 TIP3 H1   HT     0.417000        1.0080           0
    6676 WT1  2096 TIP3 H2   HT     0.417000        1.0080           0
    6677 WT1  2098 TIP3 OH2  OT    -0.834000       15.9994           0
    6678 WT1  2098 TIP3 H1   HT     0.417000        1.0080           0
    6679 WT1  2098 TIP3 H2   HT     0.417000        1.0080           0
    6680 WT1  2099 TIP3 OH2  OT    -0.834000       15.9994           0
    6681 WT1  2099 TIP3 H1   HT     0.417000        1.0080           0
    6682 WT1  2099 TIP3 H2   HT     0.417000        1.0080           0
    6683 WT1  2100 TIP3 OH2  OT    -0.834000       15.9994           0
    6684 WT1  2100 TIP3 H1   HT     0.417000        1.0080           0
    6685 WT1  2100 TIP3 H2   HT     0.417000        1.0080           0
    6686 WT1  2102 TIP3 OH2  OT    -0.834000       15.9994           0
    6687 WT1  2102 TIP3 H1   HT     0.417000        1.0080           0
    6688 WT1  2102 TIP3 H2   HT     0.417000        1.0080           0
    6689 WT1  2103 TIP3 OH2  OT    -0.834000       15.9994           0
    6690 WT1  2103 TIP3 H1   HT     0.417000        1.0080           0
    6691 WT1  2103 TIP3 H2   HT     0.417000        1.0080           0
    6692 WT1  2104 TIP3 OH2  OT    -0.834000       15.9994           0
    6693 WT1  2104 TIP3 H1   HT     0.417000        1.0080           0
    6694 WT1  2104 TIP3 H2   HT     0.417000        1.0080           0
    6695 WT1  2105 TIP3 OH2  OT    -0.834000       15.9994           0
    6696 WT1  2105 TIP3 H1   HT     0.417000        1.0080           0
    6697 WT1  2105 TIP3 H2   HT     0.417000        1.0080           0
    6698 WT1  2106 TIP3 OH2  OT    -0.834000       15.9994           0
    6699 WT1  2106 TIP3 H1   HT     0.417000        1.0080           0
    6700 WT1  2106 TIP3 H2   HT     0.417000        1.0080           0
    6701 WT1  2107 TIP3 OH2  OT    -0.834000       15.9994           0
    6702 WT1  2107 TIP3 H1   HT     0.417000        1.0080           0
    6703 WT1  2107 TIP3 H2   HT     0.417000        1.0080           0
    6704 WT1  2108 TIP3 OH2  OT    -0.834000       15.9994           0
    6705 WT1  2108 TIP3 H1   HT     0.417000        1.0080           0
    6706 WT1  2108 TIP3 H2   HT     0.417000        1.0080           0
    6707 WT1  2109 TIP3 OH2  OT    -0.834000       15.9994           0
    6708 WT1  2109 TIP3 H1   HT     0.417000        1.0080           0
    6709 WT1  2109 TIP3 H2   HT     0.417000        1.0080           0
    6710 WT1  2110 TIP3 OH2  OT    -0.834000       15.9994           0
    6711 WT1  2110 TIP3 H1   HT     0.417000        1.0080           0
    6712 WT1  2110 TIP3 H2   HT     0.417000        1.0080           0
    6713 WT1  2112 TIP3 OH2  OT    -0.834000       15.9994           0
    6714 WT1  2112 TIP3 H1   HT     0.417000        1.0080           0
    6715 WT1  2112 TIP3 H2   HT     0.417000        1.0080           0
    6716 WT1  2113 TIP3 OH2  OT    -0.834000       15.9994           0
    6717 WT1  2113 TIP3 H1   HT     0.417000        1.0080           0
    6718 WT1  2113 TIP3 H2   HT     0.417000        1.0080           0
    6719 WT1  2116 TIP3 OH2  OT    -0.834000       15.9994           0
    6720 WT1  2116 TIP3 H1   HT     0.417000        1.0080           0
    6721 WT1  2116 TIP3 H2   HT     0.417000        1.0080           0
    6722 WT1  2117 TIP3 OH2  OT    -0.834000       15.9994           0
    6723 WT1  2117 TIP3 H1   HT     0.417000        1.0080           0
    6724 WT1  2117 TIP3 H2   HT     0.417000        1.0080           0
    6725 WT1  2118 TIP3 OH2  OT    -0.834000       15.9994           0
    6726 WT1  2118 TIP3 H1   HT     0.417000        1.0080           0
    6727 WT1  2118 TIP3 H2   HT     0.417000        1.0080           0
    6728 WT1  2119 TIP3 OH2  OT    -0.834000       15.9994           0
    6729 WT1  2119 TIP3 H1   HT     0.417000        1.0080           0
    6730 WT1  2119 TIP3 H2   HT     0.417000        1.0080           0
    6731 WT1  2120 TIP3 OH2  OT    -0.834000       15.9994           0
    6732 WT1  2120 TIP3 H1   HT     0.417000        1.0080           0
    6733 WT1  2120 TIP3 H2   HT     0.417000        1.0080           0
    6734 WT1  2121 TIP3 OH2  OT    -0.834000       15.9994           0
    6735 WT1  2121 TIP3 H1   HT     0.417000        1.0080           0
    6736 WT1  2121 TIP3 H2   HT     0.417000        1.0080           0
    6737 WT1  2122 TIP3 OH2  OT    -0.834000       15.9994           0
    6738 WT1  2122 TIP3 H1   HT     0.417000        1.0080           0
    6739 WT1  2122 TIP3 H2   HT     0.417000        1.0080           0
    6740 WT1  2123 TIP3 OH2  OT    -0.834000       15.9994           0
    6741 WT1  2123 TIP3 H1   HT     0.417000        1.0080           0
    6742 WT1  2123 TIP3 H2   HT     0.417000        1.0080           0
    6743 WT1  2124 TIP3 OH2  OT    -0.834000       15.9994           0
    6744 WT1  2124 TIP3 H1   HT     0.417000        1.0080           0
    6745 WT1  2124 TIP3 H2   HT     0.417000        1.0080           0
    6746 WT1  2125 TIP3 OH2  OT    -0.834000       15.9994           0
    6747 WT1  2125 TIP3 H1   HT     0.417000        1.0080           0
    6748 WT1  2125 TIP3 H2   HT     0.417000        1.0080           0
    6749 WT1  2126 TIP3 OH2  OT    -0.834000       15.9994           0
    6750 WT1  2126 TIP3 H1   HT     0.417000        1.0080           0
    6751 WT1  2126 TIP3 H2   HT     0.417000        1.0080           0
    6752 WT1  2127 TIP3 OH2  OT    -0.834000       15.9994           0
    6753 WT1  2127 TIP3 H1   HT     0.417000        1.0080           0
    6754 WT1  2127 TIP3 H2   HT     0.417000        1.0080           0
    6755 WT1  2128 TIP3 OH2  OT    -0.834000       15.9994           0
    6756 WT1  2128 TIP3 H1   HT     0.417000        1.0080           0
    6757 WT1  2128 TIP3 H2   HT     0.417000        1.0080           0
    6758 WT1  2129 TIP3 OH2  OT    -0.834000       15.9994           0
    6759 WT1  2129 TIP3 H1   HT     0.417000        1.0080           0
    6760 WT1  2129 TIP3 H2   HT     0.417000        1.0080           0
    6761 WT1  2130 TIP3 OH2  OT    -0.834000       15.9994           0
    6762 WT1  2130 TIP3 H1   HT     0.417000        1.0080           0
    6763 WT1  2130 TIP3 H2   HT     0.417000        1.0080           0
    6764 WT1  2131 TIP3 OH2  OT    -0.834000       15.9994           0
    6765 WT1  2131 TIP3 H1   HT     0.417000        1.0080           0
    6766 WT1  2131 TIP3 H2   HT     0.417000        1.0080           0
    6767 WT1  2132 TIP3 OH2  OT    -0.834000       15.9994           0
    6768 WT1  2132 TIP3 H1   HT     0.417000        1.0080           0
    6769 WT1  2132 TIP3 H2   HT     0.417000        1.0080           0
    6770 WT1  2133 TIP3 OH2  OT    -0.834000       15.9994           0
    6771 WT1  2133 TIP3 H1   HT     0.417000        1.0080           0
    6772 WT1  2133 TIP3 H2   HT     0.417000        1.0080           0
    6773 WT1  2134 TIP3 OH2  OT    -0.834000       15.9994           0
    6774 WT1  2134 TIP3 H1   HT     0.417000        1.0080           0
    6775 WT1  2134 TIP3 H2   HT     0.417000        1.0080           0
    6776 WT1  2135 TIP3 OH2  OT    -0.834000       15.9994           0
    6777 WT1  2135 TIP3 H1   HT     0.417000        1.0080           0
    6778 WT1  2135 TIP3 H2   HT     0.417000        1.0080           0
    6779 WT1  2136 TIP3 OH2  OT    -0.834000       15.9994           0
    6780 WT1  2136 TIP3 H1   HT     0.417000        1.0080           0
    6781 WT1  2136 TIP3 H2   HT     0.417000        1.0080           0
    6782 WT1  2137 TIP3 OH2  OT    -0.834000       15.9994           0
    6783 WT1  2137 TIP3 H1   HT     0.417000        1.0080           0
    6784 WT1  2137 TIP3 H2   HT     0.417000        1.0080           0
    6785 WT1  2139 TIP3 OH2  OT    -0.834000       15.9994           0
    6786 WT1  2139 TIP3 H1   HT     0.417000        1.0080           0
    6787 WT1  2139 TIP3 H2   HT     0.417000        1.0080           0
    6788 WT1  2140 TIP3 OH2  OT    -0.834000       15.9994           0
    6789 WT1  2140 TIP3 H1   HT     0.417000        1.0080           0
    6790 WT1  2140 TIP3 H2   HT     0.417000        1.0080           0
    6791 WT1  2141 TIP3 OH2  OT    -0.834000       15.9994           0
    6792 WT1  2141 TIP3 H1   HT     0.417000        1.0080           0
    6793 WT1  2141 TIP3 H2   HT     0.417000        1.0080           0
    6794 WT1  2142 TIP3 OH2  OT    -0.834000       15.9994           0
    6795 WT1  2142 TIP3 H1   HT     0.417000        1.0080           0
    6796 WT1  2142 TIP3 H2   HT     0.417000        1.0080           0
    6797 WT1  2143 TIP3 OH2  OT    -0.834000       15.9994           0
    6798 WT1  2143 TIP3 H1   HT     0.417000        1.0080           0
    6799 WT1  2143 TIP3 H2   HT     0.417000        1.0080           0
    6800 WT1  2144 TIP3 OH2  OT    -0.834000       15.9994           0
    6801 WT1  2144 TIP3 H1   HT     0.417000        1.0080           0
    6802 WT1  2144 TIP3 H2   HT     0.417000        1.0080           0
    6803 WT1  2145 TIP3 OH2  OT    -0.834000       15.9994           0
    6804 WT1  2145 TIP3 H1   HT     0.417000        1.0080           0
    6805 WT1  2145 TIP3 H2   HT     0.417000        1.0080           0
    6806 WT1  2146 TIP3 OH2  OT    -0.834000       15.9994           0
    6807 WT1  2146 TIP3 H1   HT     0.417000        1.0080           0
    6808 WT1  2146 TIP3 H2   HT     0.417000        1.0080           0
    6809 WT1  2147 TIP3 OH2  OT    -0.834000       15.9994           0
    6810 WT1  2147 TIP3 H1   HT     0.417000        1.0080           0
    6811 WT1  2147 TIP3 H2   HT     0.417000        1.0080           0
    6812 WT1  2148 TIP3 OH2  OT    -0.834000       15.9994           0
    6813 WT1  2148 TIP3 H1   HT     0.417000        1.0080           0
    6814 WT1  2148 TIP3 H2   HT     0.417000        1.0080           0
    6815 WT1  2149 TIP3 OH2  OT    -0.834000       15.9994           0
    6816 WT1  2149 TIP3 H1   HT     0.417000        1.0080           0
    6817 WT1  2149 TIP3 H2   HT     0.417000        1.0080           0
    6818 WT1  2151 TIP3 OH2  OT    -0.834000       15.9994           0
    6819 WT1  2151 TIP3 H1   HT     0.417000        1.0080           0
    6820 WT1  2151 TIP3 H2   HT     0.417000        1.0080           0
    6821 WT1  2152 TIP3 OH2  OT    -0.834000       15.9994           0
    6822 WT1  2152 TIP3 H1   HT     0.417000        1.0080           0
    6823 WT1  2152 TIP3 H2   HT     0.417000        1.0080           0
    6824 WT1  2154 TIP3 OH2  OT    -0.834000       15.9994           0
    6825 WT1  2154 TIP3 H1   HT     0.417000        1.0080           0
    6826 WT1  2154 TIP3 H2   HT     0.417000        1.0080           0
    6827 WT1  2155 TIP3 OH2  OT    -0.834000       15.9994           0
    6828 WT1  2155 TIP3 H1   HT     0.417000        1.0080           0
    6829 WT1  2155 TIP3 H2   HT     0.417000        1.0080           0
    6830 WT1  2156 TIP3 OH2  OT    -0.834000       15.9994           0
    6831 WT1  2156 TIP3 H1   HT     0.417000        1.0080           0
    6832 WT1  2156 TIP3 H2   HT     0.417000        1.0080           0
    6833 WT1  2157 TIP3 OH2  OT    -0.834000       15.9994           0
    6834 WT1  2157 TIP3 H1   HT     0.417000        1.0080           0
    6835 WT1  2157 TIP3 H2   HT     0.417000        1.0080           0
    6836 WT1  2159 TIP3 OH2  OT    -0.834000       15.9994           0
    6837 WT1  2159 TIP3 H1   HT     0.417000        1.0080           0
    6838 WT1  2159 TIP3 H2   HT     0.417000        1.0080           0
    6839 WT1  2160 TIP3 OH2  OT    -0.834000       15.9994           0
    6840 WT1  2160 TIP3 H1   HT     0.417000        1.0080           0
    6841 WT1  2160 TIP3 H2   HT     0.417000        1.0080           0
    6842 WT1  2161 TIP3 OH2  OT    -0.834000       15.9994           0
    6843 WT1  2161 TIP3 H1   HT     0.417000        1.0080           0
    6844 WT1  2161 TIP3 H2   HT     0.417000        1.0080           0
    6845 WT1  2162 TIP3 OH2  OT    -0.834000       15.9994           0
    6846 WT1  2162 TIP3 H1   HT     0.417000        1.0080           0
    6847 WT1  2162 TIP3 H2   HT     0.417000        1.0080           0
    6848 WT1  2165 TIP3 OH2  OT    -0.834000       15.9994           0
    6849 WT1  2165 TIP3 H1   HT     0.417000        1.0080           0
    6850 WT1  2165 TIP3 H2   HT     0.417000        1.0080           0
    6851 WT1  2166 TIP3 OH2  OT    -0.834000       15.9994           0
    6852 WT1  2166 TIP3 H1   HT     0.417000        1.0080           0
    6853 WT1  2166 TIP3 H2   HT     0.417000        1.0080           0
    6854 WT1  2167 TIP3 OH2  OT    -0.834000       15.9994           0
    6855 WT1  2167 TIP3 H1   HT     0.417000        1.0080           0
    6856 WT1  2167 TIP3 H2   HT     0.417000        1.0080           0
    6857 WT1  2168 TIP3 OH2  OT    -0.834000       15.9994           0
    6858 WT1  2168 TIP3 H1   HT     0.417000        1.0080           0
    6859 WT1  2168 TIP3 H2   HT     0.417000        1.0080           0
    6860 WT1  2169 TIP3 OH2  OT    -0.834000       15.9994           0
    6861 WT1  2169 TIP3 H1   HT     0.417000        1.0080           0
    6862 WT1  2169 TIP3 H2   HT     0.417000        1.0080           0
    6863 WT1  2170 TIP3 OH2  OT    -0.834000       15.9994           0
    6864 WT1  2170 TIP3 H1   HT     0.417000        1.0080           0
    6865 WT1  2170 TIP3 H2   HT     0.417000        1.0080           0
    6866 WT1  2172 TIP3 OH2  OT    -0.834000       15.9994           0
    6867 WT1  2172 TIP3 H1   HT     0.417000        1.0080           0
    6868 WT1  2172 TIP3 H2   HT     0.417000        1.0080           0
    6869 WT1  2173 TIP3 OH2  OT    -0.834000       15.9994           0
    6870 WT1  2173 TIP3 H1   HT     0.417000        1.0080           0
    6871 WT1  2173 TIP3 H2   HT     0.417000        1.0080           0
    6872 WT1  2174 TIP3 OH2  OT    -0.834000       15.9994           0
    6873 WT1  2174 TIP3 H1   HT     0.417000        1.0080           0
    6874 WT1  2174 TIP3 H2   HT     0.417000        1.0080           0
    6875 WT1  2175 TIP3 OH2  OT    -0.834000       15.9994           0
    6876 WT1  2175 TIP3 H1   HT     0.417000        1.0080           0
    6877 WT1  2175 TIP3 H2   HT     0.417000        1.0080           0
    6878 WT1  2176 TIP3 OH2  OT    -0.834000       15.9994           0
    6879 WT1  2176 TIP3 H1   HT     0.417000        1.0080           0
    6880 WT1  2176 TIP3 H2   HT     0.417000        1.0080           0
    6881 WT1  2177 TIP3 OH2  OT    -0.834000       15.9994           0
    6882 WT1  2177 TIP3 H1   HT     0.417000        1.0080           0
    6883 WT1  2177 TIP3 H2   HT     0.417000        1.0080           0
    6884 WT1  2178 TIP3 OH2  OT    -0.834000       15.9994           0
    6885 WT1  2178 TIP3 H1   HT     0.417000        1.0080           0
    6886 WT1  2178 TIP3 H2   HT     0.417000        1.0080           0
    6887 WT1  2180 TIP3 OH2  OT    -0.834000       15.9994           0
    6888 WT1  2180 TIP3 H1   HT     0.417000        1.0080           0
    6889 WT1  2180 TIP3 H2   HT     0.417000        1.0080           0
    6890 WT1  2181 TIP3 OH2  OT    -0.834000       15.9994           0
    6891 WT1  2181 TIP3 H1   HT     0.417000        1.0080           0
    6892 WT1  2181 TIP3 H2   HT     0.417000        1.0080           0
    6893 WT1  2182 TIP3 OH2  OT    -0.834000       15.9994           0
    6894 WT1  2182 TIP3 H1   HT     0.417000        1.0080           0
    6895 WT1  2182 TIP3 H2   HT     0.417000        1.0080           0
    6896 WT1  2183 TIP3 OH2  OT    -0.834000       15.9994           0
    6897 WT1  2183 TIP3 H1   HT     0.417000        1.0080           0
    6898 WT1  2183 TIP3 H2   HT     0.417000        1.0080           0
    6899 WT1  2186 TIP3 OH2  OT    -0.834000       15.9994           0
    6900 WT1  2186 TIP3 H1   HT     0.417000        1.0080           0
    6901 WT1  2186 TIP3 H2   HT     0.417000        1.0080           0
    6902 WT1  2187 TIP3 OH2  OT    -0.834000       15.9994           0
    6903 WT1  2187 TIP3 H1   HT     0.417000        1.0080           0
    6904 WT1  2187 TIP3 H2   HT     0.417000        1.0080           0
    6905 WT1  2188 TIP3 OH2  OT    -0.834000       15.9994           0
    6906 WT1  2188 TIP3 H1   HT     0.417000        1.0080           0
    6907 WT1  2188 TIP3 H2   HT     0.417000        1.0080           0
    6908 WT1  2189 TIP3 OH2  OT    -0.834000       15.9994           0
    6909 WT1  2189 TIP3 H1   HT     0.417000        1.0080           0
    6910 WT1  2189 TIP3 H2   HT     0.417000        1.0080           0
    6911 WT1  2190 TIP3 OH2  OT    -0.834000       15.9994           0
    6912 WT1  2190 TIP3 H1   HT     0.417000        1.0080           0
    6913 WT1  2190 TIP3 H2   HT     0.417000        1.0080           0
    6914 WT1  2191 TIP3 OH2  OT    -0.834000       15.9994           0
    6915 WT1  2191 TIP3 H1   HT     0.417000        1.0080           0
    6916 WT1  2191 TIP3 H2   HT     0.417000        1.0080           0
    6917 WT1  2192 TIP3 OH2  OT    -0.834000       15.9994           0
    6918 WT1  2192 TIP3 H1   HT     0.417000        1.0080           0
    6919 WT1  2192 TIP3 H2   HT     0.417000        1.0080           0
    6920 WT1  2193 TIP3 OH2  OT    -0.834000       15.9994           0
    6921 WT1  2193 TIP3 H1   HT     0.417000        1.0080           0
    6922 WT1  2193 TIP3 H2   HT     0.417000        1.0080           0
    6923 WT1  2195 TIP3 OH2  OT    -0.834000       15.9994           0
    6924 WT1  2195 TIP3 H1   HT     0.417000        1.0080           0
    6925 WT1  2195 TIP3 H2   HT     0.417000        1.0080           0
    6926 WT1  2196 TIP3 OH2  OT    -0.834000       15.9994           0
    6927 WT1  2196 TIP3 H1   HT     0.417000        1.0080           0
    6928 WT1  2196 TIP3 H2   HT     0.417000        1.0080           0
    6929 WT1  2197 TIP3 OH2  OT    -0.834000       15.9994           0
    6930 WT1  2197 TIP3 H1   HT     0.417000        1.0080           0
    6931 WT1  2197 TIP3 H2   HT     0.417000        1.0080           0
    6932 WT1  2198 TIP3 OH2  OT    -0.834000       15.9994           0
    6933 WT1  2198 TIP3 H1   HT     0.417000        1.0080           0
    6934 WT1  2198 TIP3 H2   HT     0.417000        1.0080           0
    6935 WT1  2199 TIP3 OH2  OT    -0.834000       15.9994           0
    6936 WT1  2199 TIP3 H1   HT     0.417000        1.0080           0
    6937 WT1  2199 TIP3 H2   HT     0.417000        1.0080           0
    6938 WT1  2200 TIP3 OH2  OT    -0.834000       15.9994           0
    6939 WT1  2200 TIP3 H1   HT     0.417000        1.0080           0
    6940 WT1  2200 TIP3 H2   HT     0.417000        1.0080           0
    6941 WT1  2201 TIP3 OH2  OT    -0.834000       15.9994           0
    6942 WT1  2201 TIP3 H1   HT     0.417000        1.0080           0
    6943 WT1  2201 TIP3 H2   HT     0.417000        1.0080           0
    6944 WT1  2202 TIP3 OH2  OT    -0.834000       15.9994           0
    6945 WT1  2202 TIP3 H1   HT     0.417000        1.0080           0
    6946 WT1  2202 TIP3 H2   HT     0.417000        1.0080           0
    6947 WT1  2203 TIP3 OH2  OT    -0.834000       15.9994           0
    6948 WT1  2203 TIP3 H1   HT     0.417000        1.0080           0
    6949 WT1  2203 TIP3 H2   HT     0.417000        1.0080           0
    6950 WT1  2204 TIP3 OH2  OT    -0.834000       15.9994           0
    6951 WT1  2204 TIP3 H1   HT     0.417000        1.0080           0
    6952 WT1  2204 TIP3 H2   HT     0.417000        1.0080           0
    6953 WT1  2205 TIP3 OH2  OT    -0.834000       15.9994           0
    6954 WT1  2205 TIP3 H1   HT     0.417000        1.0080           0
    6955 WT1  2205 TIP3 H2   HT     0.417000        1.0080           0
    6956 WT1  2207 TIP3 OH2  OT    -0.834000       15.9994           0
    6957 WT1  2207 TIP3 H1   HT     0.417000        1.0080           0
    6958 WT1  2207 TIP3 H2   HT     0.417000        1.0080           0
    6959 WT1  2208 TIP3 OH2  OT    -0.834000       15.9994           0
    6960 WT1  2208 TIP3 H1   HT     0.417000        1.0080           0
    6961 WT1  2208 TIP3 H2   HT     0.417000        1.0080           0
    6962 WT1  2209 TIP3 OH2  OT    -0.834000       15.9994           0
    6963 WT1  2209 TIP3 H1   HT     0.417000        1.0080           0
    6964 WT1  2209 TIP3 H2   HT     0.417000        1.0080           0
    6965 WT1  2211 TIP3 OH2  OT    -0.834000       15.9994           0
    6966 WT1  2211 TIP3 H1   HT     0.417000        1.0080           0
    6967 WT1  2211 TIP3 H2   HT     0.417000        1.0080           0
    6968 WT1  2213 TIP3 OH2  OT    -0.834000       15.9994           0
    6969 WT1  2213 TIP3 H1   HT     0.417000        1.0080           0
    6970 WT1  2213 TIP3 H2   HT     0.417000        1.0080           0
    6971 WT1  2214 TIP3 OH2  OT    -0.834000       15.9994           0
    6972 WT1  2214 TIP3 H1   HT     0.417000        1.0080           0
    6973 WT1  2214 TIP3 H2   HT     0.417000        1.0080           0
    6974 WT1  2215 TIP3 OH2  OT    -0.834000       15.9994           0
    6975 WT1  2215 TIP3 H1   HT     0.417000        1.0080           0
    6976 WT1  2215 TIP3 H2   HT     0.417000        1.0080           0
    6977 WT1  2216 TIP3 OH2  OT    -0.834000       15.9994           0
    6978 WT1  2216 TIP3 H1   HT     0.417000        1.0080           0
    6979 WT1  2216 TIP3 H2   HT     0.417000        1.0080           0
    6980 WT1  2217 TIP3 OH2  OT    -0.834000       15.9994           0
    6981 WT1  2217 TIP3 H1   HT     0.417000        1.0080           0
    6982 WT1  2217 TIP3 H2   HT     0.417000        1.0080           0
    6983 WT1  2218 TIP3 OH2  OT    -0.834000       15.9994           0
    6984 WT1  2218 TIP3 H1   HT     0.417000        1.0080           0
    6985 WT1  2218 TIP3 H2   HT     0.417000        1.0080           0
    6986 WT1  2219 TIP3 OH2  OT    -0.834000       15.9994           0
    6987 WT1  2219 TIP3 H1   HT     0.417000        1.0080           0
    6988 WT1  2219 TIP3 H2   HT     0.417000        1.0080           0
    6989 WT1  2220 TIP3 OH2  OT    -0.834000       15.9994           0
    6990 WT1  2220 TIP3 H1   HT     0.417000        1.0080           0
    6991 WT1  2220 TIP3 H2   HT     0.417000        1.0080           0
    6992 WT1  2221 TIP3 OH2  OT    -0.834000       15.9994           0
    6993 WT1  2221 TIP3 H1   HT     0.417000        1.0080           0
    6994 WT1  2221 TIP3 H2   HT     0.417000        1.0080           0
    6995 WT1  2222 TIP3 OH2  OT    -0.834000       15.9994           0
    6996 WT1  2222 TIP3 H1   HT     0.417000        1.0080           0
    6997 WT1  2222 TIP3 H2   HT     0.417000        1.0080           0
    6998 WT1  2224 TIP3 OH2  OT    -0.834000       15.9994           0
    6999 WT1  2224 TIP3 H1   HT     0.417000        1.0080           0
    7000 WT1  2224 TIP3 H2   HT     0.417000        1.0080           0
    7001 WT1  2226 TIP3 OH2  OT    -0.834000       15.9994           0
    7002 WT1  2226 TIP3 H1   HT     0.417000        1.0080           0
    7003 WT1  2226 TIP3 H2   HT     0.417000        1.0080           0
    7004 WT1  2227 TIP3 OH2  OT    -0.834000       15.9994           0
    7005 WT1  2227 TIP3 H1   HT     0.417000        1.0080           0
    7006 WT1  2227 TIP3 H2   HT     0.417000        1.0080           0
    7007 WT1  2228 TIP3 OH2  OT    -0.834000       15.9994           0
    7008 WT1  2228 TIP3 H1   HT     0.417000        1.0080           0
    7009 WT1  2228 TIP3 H2   HT     0.417000        1.0080           0
    7010 WT1  2229 TIP3 OH2  OT    -0.834000       15.9994           0
    7011 WT1  2229 TIP3 H1   HT     0.417000        1.0080           0
    7012 WT1  2229 TIP3 H2   HT     0.417000        1.0080           0
    7013 WT1  2230 TIP3 OH2  OT    -0.834000       15.9994           0
    7014 WT1  2230 TIP3 H1   HT     0.417000        1.0080           0
    7015 WT1  2230 TIP3 H2   HT     0.417000        1.0080           0
    7016 WT1  2233 TIP3 OH2  OT    -0.834000       15.9994           0
    7017 WT1  2233 TIP3 H1   HT     0.417000        1.0080           0
    7018 WT1  2233 TIP3 H2   HT     0.417000        1.0080           0
    7019 WT1  2234 TIP3 OH2  OT    -0.834000       15.9994           0
    7020 WT1  2234 TIP3 H1   HT     0.417000        1.0080           0
    7021 WT1  2234 TIP3 H2   HT     0.417000        1.0080           0
    7022 WT1  2235 TIP3 OH2  OT    -0.834000       15.9994           0
    7023 WT1  2235 TIP3 H1   HT     0.417000        1.0080           0
    7024 WT1  2235 TIP3 H2   HT     0.417000        1.0080           0
    7025 WT1  2236 TIP3 OH2  OT    -0.834000       15.9994           0
    7026 WT1  2236 TIP3 H1   HT     0.417000        1.0080           0
    7027 WT1  2236 TIP3 H2   HT     0.417000        1.0080           0
    7028 WT1  2238 TIP3 OH2  OT    -0.834000       15.9994           0
    7029 WT1  2238 TIP3 H1   HT     0.417000        1.0080           0
    7030 WT1  2238 TIP3 H2   HT     0.417000        1.0080           0
    7031 WT1  2239 TIP3 OH2  OT    -0.834000       15.9994           0
    7032 WT1  2239 TIP3 H1   HT     0.417000        1.0080           0
    7033 WT1  2239 TIP3 H2   HT     0.417000        1.0080           0
    7034 WT1  2240 TIP3 OH2  OT    -0.834000       15.9994           0
    7035 WT1  2240 TIP3 H1   HT     0.417000        1.0080           0
    7036 WT1  2240 TIP3 H2   HT     0.417000        1.0080           0
    7037 WT1  2241 TIP3 OH2  OT    -0.834000       15.9994           0
    7038 WT1  2241 TIP3 H1   HT     0.417000        1.0080           0
    7039 WT1  2241 TIP3 H2   HT     0.417000        1.0080           0
    7040 WT1  2242 TIP3 OH2  OT    -0.834000       15.9994           0
    7041 WT1  2242 TIP3 H1   HT     0.417000        1.0080           0
    7042 WT1  2242 TIP3 H2   HT     0.417000        1.0080           0
    7043 WT1  2243 TIP3 OH2  OT    -0.834000       15.9994           0
    7044 WT1  2243 TIP3 H1   HT     0.417000        1.0080           0
    7045 WT1  2243 TIP3 H2   HT     0.417000        1.0080           0
    7046 WT1  2244 TIP3 OH2  OT    -0.834000       15.9994           0
    7047 WT1  2244 TIP3 H1   HT     0.417000        1.0080           0
    7048 WT1  2244 TIP3 H2   HT     0.417000        1.0080           0
    7049 WT1  2245 TIP3 OH2  OT    -0.834000       15.9994           0
    7050 WT1  2245 TIP3 H1   HT     0.417000        1.0080           0
    7051 WT1  2245 TIP3 H2   HT     0.417000        1.0080           0
    7052 WT1  2246 TIP3 OH2  OT    -0.834000       15.9994           0
    7053 WT1  2246 TIP3 H1   HT     0.417000        1.0080           0
    7054 WT1  2246 TIP3 H2   HT     0.417000        1.0080           0
    7055 WT1  2248 TIP3 OH2  OT    -0.834000       15.9994           0
    7056 WT1  2248 TIP3 H1   HT     0.417000        1.0080           0
    7057 WT1  2248 TIP3 H2   HT     0.417000        1.0080           0
    7058 WT1  2249 TIP3 OH2  OT    -0.834000       15.9994           0
    7059 WT1  2249 TIP3 H1   HT     0.417000        1.0080           0
    7060 WT1  2249 TIP3 H2   HT     0.417000        1.0080           0
    7061 WT1  2250 TIP3 OH2  OT    -0.834000       15.9994           0
    7062 WT1  2250 TIP3 H1   HT     0.417000        1.0080           0
    7063 WT1  2250 TIP3 H2   HT     0.417000        1.0080           0
    7064 WT1  2251 TIP3 OH2  OT    -0.834000       15.9994           0
    7065 WT1  2251 TIP3 H1   HT     0.417000        1.0080           0
    7066 WT1  2251 TIP3 H2   HT     0.417000        1.0080           0
    7067 WT1  2252 TIP3 OH2  OT    -0.834000       15.9994           0
    7068 WT1  2252 TIP3 H1   HT     0.417000        1.0080           0
    7069 WT1  2252 TIP3 H2   HT     0.417000        1.0080           0
    7070 WT1  2255 TIP3 OH2  OT    -0.834000       15.9994           0
    7071 WT1  2255 TIP3 H1   HT     0.417000        1.0080           0
    7072 WT1  2255 TIP3 H2   HT     0.417000        1.0080           0
    7073 WT1  2256 TIP3 OH2  OT    -0.834000       15.9994           0
    7074 WT1  2256 TIP3 H1   HT     0.417000        1.0080           0
    7075 WT1  2256 TIP3 H2   HT     0.417000        1.0080           0
    7076 WT1  2257 TIP3 OH2  OT    -0.834000       15.9994           0
    7077 WT1  2257 TIP3 H1   HT     0.417000        1.0080           0
    7078 WT1  2257 TIP3 H2   HT     0.417000        1.0080           0
    7079 WT1  2258 TIP3 OH2  OT    -0.834000       15.9994           0
    7080 WT1  2258 TIP3 H1   HT     0.417000        1.0080           0
    7081 WT1  2258 TIP3 H2   HT     0.417000        1.0080           0
    7082 WT1  2259 TIP3 OH2  OT    -0.834000       15.9994           0
    7083 WT1  2259 TIP3 H1   HT     0.417000        1.0080           0
    7084 WT1  2259 TIP3 H2   HT     0.417000        1.0080           0
    7085 WT1  2260 TIP3 OH2  OT    -0.834000       15.9994           0
    7086 WT1  2260 TIP3 H1   HT     0.417000        1.0080           0
    7087 WT1  2260 TIP3 H2   HT     0.417000        1.0080           0
    7088 WT1  2262 TIP3 OH2  OT    -0.834000       15.9994           0
    7089 WT1  2262 TIP3 H1   HT     0.417000        1.0080           0
    7090 WT1  2262 TIP3 H2   HT     0.417000        1.0080           0
    7091 WT1  2264 TIP3 OH2  OT    -0.834000       15.9994           0
    7092 WT1  2264 TIP3 H1   HT     0.417000        1.0080           0
    7093 WT1  2264 TIP3 H2   HT     0.417000        1.0080           0
    7094 WT1  2265 TIP3 OH2  OT    -0.834000       15.9994           0
    7095 WT1  2265 TIP3 H1   HT     0.417000        1.0080           0
    7096 WT1  2265 TIP3 H2   HT     0.417000        1.0080           0
    7097 WT1  2267 TIP3 OH2  OT    -0.834000       15.9994           0
    7098 WT1  2267 TIP3 H1   HT     0.417000        1.0080           0
    7099 WT1  2267 TIP3 H2   HT     0.417000        1.0080           0
    7100 WT1  2268 TIP3 OH2  OT    -0.834000       15.9994           0
    7101 WT1  2268 TIP3 H1   HT     0.417000        1.0080           0
    7102 WT1  2268 TIP3 H2   HT     0.417000        1.0080           0
    7103 WT1  2269 TIP3 OH2  OT    -0.834000       15.9994           0
    7104 WT1  2269 TIP3 H1   HT     0.417000        1.0080           0
    7105 WT1  2269 TIP3 H2   HT     0.417000        1.0080           0
    7106 WT1  2271 TIP3 OH2  OT    -0.834000       15.9994           0
    7107 WT1  2271 TIP3 H1   HT     0.417000        1.0080           0
    7108 WT1  2271 TIP3 H2   HT     0.417000        1.0080           0
    7109 WT1  2272 TIP3 OH2  OT    -0.834000       15.9994           0
    7110 WT1  2272 TIP3 H1   HT     0.417000        1.0080           0
    7111 WT1  2272 TIP3 H2   HT     0.417000        1.0080           0
    7112 WT1  2273 TIP3 OH2  OT    -0.834000       15.9994           0
    7113 WT1  2273 TIP3 H1   HT     0.417000        1.0080           0
    7114 WT1  2273 TIP3 H2   HT     0.417000        1.0080           0
    7115 WT1  2274 TIP3 OH2  OT    -0.834000       15.9994           0
    7116 WT1  2274 TIP3 H1   HT     0.417000        1.0080           0
    7117 WT1  2274 TIP3 H2   HT     0.417000        1.0080           0
    7118 WT1  2275 TIP3 OH2  OT    -0.834000       15.9994           0
    7119 WT1  2275 TIP3 H1   HT     0.417000        1.0080           0
    7120 WT1  2275 TIP3 H2   HT     0.417000        1.0080           0
    7121 WT1  2276 TIP3 OH2  OT    -0.834000       15.9994           0
    7122 WT1  2276 TIP3 H1   HT     0.417000        1.0080           0
    7123 WT1  2276 TIP3 H2   HT     0.417000        1.0080           0
    7124 WT1  2277 TIP3 OH2  OT    -0.834000       15.9994           0
    7125 WT1  2277 TIP3 H1   HT     0.417000        1.0080           0
    7126 WT1  2277 TIP3 H2   HT     0.417000        1.0080           0
    7127 WT1  2278 TIP3 OH2  OT    -0.834000       15.9994           0
    7128 WT1  2278 TIP3 H1   HT     0.417000        1.0080           0
    7129 WT1  2278 TIP3 H2   HT     0.417000        1.0080           0
    7130 WT1  2279 TIP3 OH2  OT    -0.834000       15.9994           0
    7131 WT1  2279 TIP3 H1   HT     0.417000        1.0080           0
    7132 WT1  2279 TIP3 H2   HT     0.417000        1.0080           0
    7133 WT1  2280 TIP3 OH2  OT    -0.834000       15.9994           0
    7134 WT1  2280 TIP3 H1   HT     0.417000        1.0080           0
    7135 WT1  2280 TIP3 H2   HT     0.417000        1.0080           0
    7136 WT1  2281 TIP3 OH2  OT    -0.834000       15.9994           0
    7137 WT1  2281 TIP3 H1   HT     0.417000        1.0080           0
    7138 WT1  2281 TIP3 H2   HT     0.417000        1.0080           0
    7139 WT1  2282 TIP3 OH2  OT    -0.834000       15.9994           0
    7140 WT1  2282 TIP3 H1   HT     0.417000        1.0080           0
    7141 WT1  2282 TIP3 H2   HT     0.417000        1.0080           0
    7142 WT1  2283 TIP3 OH2  OT    -0.834000       15.9994           0
    7143 WT1  2283 TIP3 H1   HT     0.417000        1.0080           0
    7144 WT1  2283 TIP3 H2   HT     0.417000        1.0080           0
    7145 WT1  2284 TIP3 OH2  OT    -0.834000       15.9994           0
    7146 WT1  2284 TIP3 H1   HT     0.417000        1.0080           0
    7147 WT1  2284 TIP3 H2   HT     0.417000        1.0080           0
    7148 WT1  2285 TIP3 OH2  OT    -0.834000       15.9994           0
    7149 WT1  2285 TIP3 H1   HT     0.417000        1.0080           0
    7150 WT1  2285 TIP3 H2   HT     0.417000        1.0080           0
    7151 WT1  2286 TIP3 OH2  OT    -0.834000       15.9994           0
    7152 WT1  2286 TIP3 H1   HT     0.417000        1.0080           0
    7153 WT1  2286 TIP3 H2   HT     0.417000        1.0080           0
    7154 WT1  2287 TIP3 OH2  OT    -0.834000       15.9994           0
    7155 WT1  2287 TIP3 H1   HT     0.417000        1.0080           0
    7156 WT1  2287 TIP3 H2   HT     0.417000        1.0080           0
    7157 WT1  2288 TIP3 OH2  OT    -0.834000       15.9994           0
    7158 WT1  2288 TIP3 H1   HT     0.417000        1.0080           0
    7159 WT1  2288 TIP3 H2   HT     0.417000        1.0080           0
    7160 WT1  2289 TIP3 OH2  OT    -0.834000       15.9994           0
    7161 WT1  2289 TIP3 H1   HT     0.417000        1.0080           0
    7162 WT1  2289 TIP3 H2   HT     0.417000        1.0080           0
    7163 WT1  2290 TIP3 OH2  OT    -0.834000       15.9994           0
    7164 WT1  2290 TIP3 H1   HT     0.417000        1.0080           0
    7165 WT1  2290 TIP3 H2   HT     0.417000        1.0080           0
    7166 WT1  2291 TIP3 OH2  OT    -0.834000       15.9994           0
    7167 WT1  2291 TIP3 H1   HT     0.417000        1.0080           0
    7168 WT1  2291 TIP3 H2   HT     0.417000        1.0080           0
    7169 WT1  2292 TIP3 OH2  OT    -0.834000       15.9994           0
    7170 WT1  2292 TIP3 H1   HT     0.417000        1.0080           0
    7171 WT1  2292 TIP3 H2   HT     0.417000        1.0080           0
    7172 WT1  2293 TIP3 OH2  OT    -0.834000       15.9994           0
    7173 WT1  2293 TIP3 H1   HT     0.417000        1.0080           0
    7174 WT1  2293 TIP3 H2   HT     0.417000        1.0080           0
    7175 WT1  2294 TIP3 OH2  OT    -0.834000       15.9994           0
    7176 WT1  2294 TIP3 H1   HT     0.417000        1.0080           0
    7177 WT1  2294 TIP3 H2   HT     0.417000        1.0080           0
    7178 WT1  2295 TIP3 OH2  OT    -0.834000       15.9994           0
    7179 WT1  2295 TIP3 H1   HT     0.417000        1.0080           0
    7180 WT1  2295 TIP3 H2   HT     0.417000        1.0080           0
    7181 WT1  2296 TIP3 OH2  OT    -0.834000       15.9994           0
    7182 WT1  2296 TIP3 H1   HT     0.417000        1.0080           0
    7183 WT1  2296 TIP3 H2   HT     0.417000        1.0080           0
    7184 WT1  2297 TIP3 OH2  OT    -0.834000       15.9994           0
    7185 WT1  2297 TIP3 H1   HT     0.417000        1.0080           0
    7186 WT1  2297 TIP3 H2   HT     0.417000        1.0080           0
    7187 WT1  2298 TIP3 OH2  OT    -0.834000       15.9994           0
    7188 WT1  2298 TIP3 H1   HT     0.417000        1.0080           0
    7189 WT1  2298 TIP3 H2   HT     0.417000        1.0080           0
    7190 WT1  2299 TIP3 OH2  OT    -0.834000       15.9994           0
    7191 WT1  2299 TIP3 H1   HT     0.417000        1.0080           0
    7192 WT1  2299 TIP3 H2   HT     0.417000        1.0080           0
    7193 WT1  2300 TIP3 OH2  OT    -0.834000       15.9994           0
    7194 WT1  2300 TIP3 H1   HT     0.417000        1.0080           0
    7195 WT1  2300 TIP3 H2   HT     0.417000        1.0080           0
    7196 WT1  2301 TIP3 OH2  OT    -0.834000       15.9994           0
    7197 WT1  2301 TIP3 H1   HT     0.417000        1.0080           0
    7198 WT1  2301 TIP3 H2   HT     0.417000        1.0080           0
    7199 WT1  2302 TIP3 OH2  OT    -0.834000       15.9994           0
    7200 WT1  2302 TIP3 H1   HT     0.417000        1.0080           0
    7201 WT1  2302 TIP3 H2   HT     0.417000        1.0080           0
    7202 WT1  2303 TIP3 OH2  OT    -0.834000       15.9994           0
    7203 WT1  2303 TIP3 H1   HT     0.417000        1.0080           0
    7204 WT1  2303 TIP3 H2   HT     0.417000        1.0080           0
    7205 WT1  2305 TIP3 OH2  OT    -0.834000       15.9994           0
    7206 WT1  2305 TIP3 H1   HT     0.417000        1.0080           0
    7207 WT1  2305 TIP3 H2   HT     0.417000        1.0080           0
    7208 WT1  2306 TIP3 OH2  OT    -0.834000       15.9994           0
    7209 WT1  2306 TIP3 H1   HT     0.417000        1.0080           0
    7210 WT1  2306 TIP3 H2   HT     0.417000        1.0080           0
    7211 WT1  2307 TIP3 OH2  OT    -0.834000       15.9994           0
    7212 WT1  2307 TIP3 H1   HT     0.417000        1.0080           0
    7213 WT1  2307 TIP3 H2   HT     0.417000        1.0080           0
    7214 WT1  2308 TIP3 OH2  OT    -0.834000       15.9994           0
    7215 WT1  2308 TIP3 H1   HT     0.417000        1.0080           0
    7216 WT1  2308 TIP3 H2   HT     0.417000        1.0080           0
    7217 WT1  2309 TIP3 OH2  OT    -0.834000       15.9994           0
    7218 WT1  2309 TIP3 H1   HT     0.417000        1.0080           0
    7219 WT1  2309 TIP3 H2   HT     0.417000        1.0080           0
    7220 WT1  2310 TIP3 OH2  OT    -0.834000       15.9994           0
    7221 WT1  2310 TIP3 H1   HT     0.417000        1.0080           0
    7222 WT1  2310 TIP3 H2   HT     0.417000        1.0080           0
    7223 WT1  2311 TIP3 OH2  OT    -0.834000       15.9994           0
    7224 WT1  2311 TIP3 H1   HT     0.417000        1.0080           0
    7225 WT1  2311 TIP3 H2   HT     0.417000        1.0080           0
    7226 WT1  2313 TIP3 OH2  OT    -0.834000       15.9994           0
    7227 WT1  2313 TIP3 H1   HT     0.417000        1.0080           0
    7228 WT1  2313 TIP3 H2   HT     0.417000        1.0080           0
    7229 WT1  2314 TIP3 OH2  OT    -0.834000       15.9994           0
    7230 WT1  2314 TIP3 H1   HT     0.417000        1.0080           0
    7231 WT1  2314 TIP3 H2   HT     0.417000        1.0080           0
    7232 WT1  2315 TIP3 OH2  OT    -0.834000       15.9994           0
    7233 WT1  2315 TIP3 H1   HT     0.417000        1.0080           0
    7234 WT1  2315 TIP3 H2   HT     0.417000        1.0080           0
    7235 WT1  2316 TIP3 OH2  OT    -0.834000       15.9994           0
    7236 WT1  2316 TIP3 H1   HT     0.417000        1.0080           0
    7237 WT1  2316 TIP3 H2   HT     0.417000        1.0080           0
    7238 WT1  2317 TIP3 OH2  OT    -0.834000       15.9994           0
    7239 WT1  2317 TIP3 H1   HT     0.417000        1.0080           0
    7240 WT1  2317 TIP3 H2   HT     0.417000        1.0080           0
    7241 WT1  2318 TIP3 OH2  OT    -0.834000       15.9994           0
    7242 WT1  2318 TIP3 H1   HT     0.417000        1.0080           0
    7243 WT1  2318 TIP3 H2   HT     0.417000        1.0080           0
    7244 WT1  2319 TIP3 OH2  OT    -0.834000       15.9994           0
    7245 WT1  2319 TIP3 H1   HT     0.417000        1.0080           0
    7246 WT1  2319 TIP3 H2   HT     0.417000        1.0080           0
    7247 WT1  2321 TIP3 OH2  OT    -0.834000       15.9994           0
    7248 WT1  2321 TIP3 H1   HT     0.417000        1.0080           0
    7249 WT1  2321 TIP3 H2   HT     0.417000        1.0080           0
    7250 WT1  2322 TIP3 OH2  OT    -0.834000       15.9994           0
    7251 WT1  2322 TIP3 H1   HT     0.417000        1.0080           0
    7252 WT1  2322 TIP3 H2   HT     0.417000        1.0080           0
    7253 WT1  2323 TIP3 OH2  OT    -0.834000       15.9994           0
    7254 WT1  2323 TIP3 H1   HT     0.417000        1.0080           0
    7255 WT1  2323 TIP3 H2   HT     0.417000        1.0080           0
    7256 WT1  2324 TIP3 OH2  OT    -0.834000       15.9994           0
    7257 WT1  2324 TIP3 H1   HT     0.417000        1.0080           0
    7258 WT1  2324 TIP3 H2   HT     0.417000        1.0080           0
    7259 WT1  2327 TIP3 OH2  OT    -0.834000       15.9994           0
    7260 WT1  2327 TIP3 H1   HT     0.417000        1.0080           0
    7261 WT1  2327 TIP3 H2   HT     0.417000        1.0080           0
    7262 WT1  2328 TIP3 OH2  OT    -0.834000       15.9994           0
    7263 WT1  2328 TIP3 H1   HT     0.417000        1.0080           0
    7264 WT1  2328 TIP3 H2   HT     0.417000        1.0080           0
    7265 WT1  2329 TIP3 OH2  OT    -0.834000       15.9994           0
    7266 WT1  2329 TIP3 H1   HT     0.417000        1.0080           0
    7267 WT1  2329 TIP3 H2   HT     0.417000        1.0080           0
    7268 WT1  2330 TIP3 OH2  OT    -0.834000       15.9994           0
    7269 WT1  2330 TIP3 H1   HT     0.417000        1.0080           0
    7270 WT1  2330 TIP3 H2   HT     0.417000        1.0080           0
    7271 WT1  2331 TIP3 OH2  OT    -0.834000       15.9994           0
    7272 WT1  2331 TIP3 H1   HT     0.417000        1.0080           0
    7273 WT1  2331 TIP3 H2   HT     0.417000        1.0080           0
    7274 WT1  2332 TIP3 OH2  OT    -0.834000       15.9994           0
    7275 WT1  2332 TIP3 H1   HT     0.417000        1.0080           0
    7276 WT1  2332 TIP3 H2   HT     0.417000        1.0080           0
    7277 WT1  2333 TIP3 OH2  OT    -0.834000       15.9994           0
    7278 WT1  2333 TIP3 H1   HT     0.417000        1.0080           0
    7279 WT1  2333 TIP3 H2   HT     0.417000        1.0080           0
    7280 WT1  2334 TIP3 OH2  OT    -0.834000       15.9994           0
    7281 WT1  2334 TIP3 H1   HT     0.417000        1.0080           0
    7282 WT1  2334 TIP3 H2   HT     0.417000        1.0080           0
    7283 WT1  2335 TIP3 OH2  OT    -0.834000       15.9994           0
    7284 WT1  2335 TIP3 H1   HT     0.417000        1.0080           0
    7285 WT1  2335 TIP3 H2   HT     0.417000        1.0080           0
    7286 WT1  2336 TIP3 OH2  OT    -0.834000       15.9994           0
    7287 WT1  2336 TIP3 H1   HT     0.417000        1.0080           0
    7288 WT1  2336 TIP3 H2   HT     0.417000        1.0080           0
    7289 WT1  2337 TIP3 OH2  OT    -0.834000       15.9994           0
    7290 WT1  2337 TIP3 H1   HT     0.417000        1.0080           0
    7291 WT1  2337 TIP3 H2   HT     0.417000        1.0080           0
    7292 WT1  2338 TIP3 OH2  OT    -0.834000       15.9994           0
    7293 WT1  2338 TIP3 H1   HT     0.417000        1.0080           0
    7294 WT1  2338 TIP3 H2   HT     0.417000        1.0080           0
    7295 WT1  2339 TIP3 OH2  OT    -0.834000       15.9994           0
    7296 WT1  2339 TIP3 H1   HT     0.417000        1.0080           0
    7297 WT1  2339 TIP3 H2   HT     0.417000        1.0080           0
    7298 WT1  2340 TIP3 OH2  OT    -0.834000       15.9994           0
    7299 WT1  2340 TIP3 H1   HT     0.417000        1.0080           0
    7300 WT1  2340 TIP3 H2   HT     0.417000        1.0080           0
    7301 WT1  2341 TIP3 OH2  OT    -0.834000       15.9994           0
    7302 WT1  2341 TIP3 H1   HT     0.417000        1.0080           0
    7303 WT1  2341 TIP3 H2   HT     0.417000        1.0080           0
    7304 WT1  2342 TIP3 OH2  OT    -0.834000       15.9994           0
    7305 WT1  2342 TIP3 H1   HT     0.417000        1.0080           0
    7306 WT1  2342 TIP3 H2   HT     0.417000        1.0080           0
    7307 WT1  2343 TIP3 OH2  OT    -0.834000       15.9994           0
    7308 WT1  2343 TIP3 H1   HT     0.417000        1.0080           0
    7309 WT1  2343 TIP3 H2   HT     0.417000        1.0080           0
    7310 WT1  2345 TIP3 OH2  OT    -0.834000       15.9994           0
    7311 WT1  2345 TIP3 H1   HT     0.417000        1.0080           0
    7312 WT1  2345 TIP3 H2   HT     0.417000        1.0080           0
    7313 WT1  2346 TIP3 OH2  OT    -0.834000       15.9994           0
    7314 WT1  2346 TIP3 H1   HT     0.417000        1.0080           0
    7315 WT1  2346 TIP3 H2   HT     0.417000        1.0080           0
    7316 WT1  2347 TIP3 OH2  OT    -0.834000       15.9994           0
    7317 WT1  2347 TIP3 H1   HT     0.417000        1.0080           0
    7318 WT1  2347 TIP3 H2   HT     0.417000        1.0080           0
    7319 WT1  2348 TIP3 OH2  OT    -0.834000       15.9994           0
    7320 WT1  2348 TIP3 H1   HT     0.417000        1.0080           0
    7321 WT1  2348 TIP3 H2   HT     0.417000        1.0080           0
    7322 WT1  2349 TIP3 OH2  OT    -0.834000       15.9994           0
    7323 WT1  2349 TIP3 H1   HT     0.417000        1.0080           0
    7324 WT1  2349 TIP3 H2   HT     0.417000        1.0080           0
    7325 WT1  2350 TIP3 OH2  OT    -0.834000       15.9994           0
    7326 WT1  2350 TIP3 H1   HT     0.417000        1.0080           0
    7327 WT1  2350 TIP3 H2   HT     0.417000        1.0080           0
    7328 WT1  2351 TIP3 OH2  OT    -0.834000       15.9994           0
    7329 WT1  2351 TIP3 H1   HT     0.417000        1.0080           0
    7330 WT1  2351 TIP3 H2   HT     0.417000        1.0080           0
    7331 WT1  2352 TIP3 OH2  OT    -0.834000       15.9994           0
    7332 WT1  2352 TIP3 H1   HT     0.417000        1.0080           0
    7333 WT1  2352 TIP3 H2   HT     0.417000        1.0080           0
    7334 WT1  2353 TIP3 OH2  OT    -0.834000       15.9994           0
    7335 WT1  2353 TIP3 H1   HT     0.417000        1.0080           0
    7336 WT1  2353 TIP3 H2   HT     0.417000        1.0080           0
    7337 WT1  2354 TIP3 OH2  OT    -0.834000       15.9994           0
    7338 WT1  2354 TIP3 H1   HT     0.417000        1.0080           0
    7339 WT1  2354 TIP3 H2   HT     0.417000        1.0080           0
    7340 WT1  2355 TIP3 OH2  OT    -0.834000       15.9994           0
    7341 WT1  2355 TIP3 H1   HT     0.417000        1.0080           0
    7342 WT1  2355 TIP3 H2   HT     0.417000        1.0080           0
    7343 WT1  2356 TIP3 OH2  OT    -0.834000       15.9994           0
    7344 WT1  2356 TIP3 H1   HT     0.417000        1.0080           0
    7345 WT1  2356 TIP3 H2   HT     0.417000        1.0080           0
    7346 WT1  2357 TIP3 OH2  OT    -0.834000       15.9994           0
    7347 WT1  2357 TIP3 H1   HT     0.417000        1.0080           0
    7348 WT1  2357 TIP3 H2   HT     0.417000        1.0080           0
    7349 WT1  2358 TIP3 OH2  OT    -0.834000       15.9994           0
    7350 WT1  2358 TIP3 H1   HT     0.417000        1.0080           0
    7351 WT1  2358 TIP3 H2   HT     0.417000        1.0080           0
    7352 WT1  2359 TIP3 OH2  OT    -0.834000       15.9994           0
    7353 WT1  2359 TIP3 H1   HT     0.417000        1.0080           0
    7354 WT1  2359 TIP3 H2   HT     0.417000        1.0080           0
    7355 WT1  2360 TIP3 OH2  OT    -0.834000       15.9994           0
    7356 WT1  2360 TIP3 H1   HT     0.417000        1.0080           0
    7357 WT1  2360 TIP3 H2   HT     0.417000        1.0080           0
    7358 WT1  2361 TIP3 OH2  OT    -0.834000       15.9994           0
    7359 WT1  2361 TIP3 H1   HT     0.417000        1.0080           0
    7360 WT1  2361 TIP3 H2   HT     0.417000        1.0080           0
    7361 WT1  2362 TIP3 OH2  OT    -0.834000       15.9994           0
    7362 WT1  2362 TIP3 H1   HT     0.417000        1.0080           0
    7363 WT1  2362 TIP3 H2   HT     0.417000        1.0080           0
    7364 WT1  2363 TIP3 OH2  OT    -0.834000       15.9994           0
    7365 WT1  2363 TIP3 H1   HT     0.417000        1.0080           0
    7366 WT1  2363 TIP3 H2   HT     0.417000        1.0080           0
    7367 WT1  2365 TIP3 OH2  OT    -0.834000       15.9994           0
    7368 WT1  2365 TIP3 H1   HT     0.417000        1.0080           0
    7369 WT1  2365 TIP3 H2   HT     0.417000        1.0080           0
    7370 WT1  2366 TIP3 OH2  OT    -0.834000       15.9994           0
    7371 WT1  2366 TIP3 H1   HT     0.417000        1.0080           0
    7372 WT1  2366 TIP3 H2   HT     0.417000        1.0080           0
    7373 WT1  2367 TIP3 OH2  OT    -0.834000       15.9994           0
    7374 WT1  2367 TIP3 H1   HT     0.417000        1.0080           0
    7375 WT1  2367 TIP3 H2   HT     0.417000        1.0080           0
    7376 WT1  2369 TIP3 OH2  OT    -0.834000       15.9994           0
    7377 WT1  2369 TIP3 H1   HT     0.417000        1.0080           0
    7378 WT1  2369 TIP3 H2   HT     0.417000        1.0080           0
    7379 WT1  2370 TIP3 OH2  OT    -0.834000       15.9994           0
    7380 WT1  2370 TIP3 H1   HT     0.417000        1.0080           0
    7381 WT1  2370 TIP3 H2   HT     0.417000        1.0080           0
    7382 WT1  2371 TIP3 OH2  OT    -0.834000       15.9994           0
    7383 WT1  2371 TIP3 H1   HT     0.417000        1.0080           0
    7384 WT1  2371 TIP3 H2   HT     0.417000        1.0080           0
    7385 WT1  2372 TIP3 OH2  OT    -0.834000       15.9994           0
    7386 WT1  2372 TIP3 H1   HT     0.417000        1.0080           0
    7387 WT1  2372 TIP3 H2   HT     0.417000        1.0080           0
    7388 WT1  2373 TIP3 OH2  OT    -0.834000       15.9994           0
    7389 WT1  2373 TIP3 H1   HT     0.417000        1.0080           0
    7390 WT1  2373 TIP3 H2   HT     0.417000        1.0080           0
    7391 WT1  2375 TIP3 OH2  OT    -0.834000       15.9994           0
    7392 WT1  2375 TIP3 H1   HT     0.417000        1.0080           0
    7393 WT1  2375 TIP3 H2   HT     0.417000        1.0080           0
    7394 WT1  2376 TIP3 OH2  OT    -0.834000       15.9994           0
    7395 WT1  2376 TIP3 H1   HT     0.417000        1.0080           0
    7396 WT1  2376 TIP3 H2   HT     0.417000        1.0080           0
    7397 WT1  2377 TIP3 OH2  OT    -0.834000       15.9994           0
    7398 WT1  2377 TIP3 H1   HT     0.417000        1.0080           0
    7399 WT1  2377 TIP3 H2   HT     0.417000        1.0080           0
    7400 WT1  2379 TIP3 OH2  OT    -0.834000       15.9994           0
    7401 WT1  2379 TIP3 H1   HT     0.417000        1.0080           0
    7402 WT1  2379 TIP3 H2   HT     0.417000        1.0080           0
    7403 WT1  2381 TIP3 OH2  OT    -0.834000       15.9994           0
    7404 WT1  2381 TIP3 H1   HT     0.417000        1.0080           0
    7405 WT1  2381 TIP3 H2   HT     0.417000        1.0080           0
    7406 WT1  2382 TIP3 OH2  OT    -0.834000       15.9994           0
    7407 WT1  2382 TIP3 H1   HT     0.417000        1.0080           0
    7408 WT1  2382 TIP3 H2   HT     0.417000        1.0080           0
    7409 WT1  2383 TIP3 OH2  OT    -0.834000       15.9994           0
    7410 WT1  2383 TIP3 H1   HT     0.417000        1.0080           0
    7411 WT1  2383 TIP3 H2   HT     0.417000        1.0080           0
    7412 WT1  2384 TIP3 OH2  OT    -0.834000       15.9994           0
    7413 WT1  2384 TIP3 H1   HT     0.417000        1.0080           0
    7414 WT1  2384 TIP3 H2   HT     0.417000        1.0080           0
    7415 WT1  2385 TIP3 OH2  OT    -0.834000       15.9994           0
    7416 WT1  2385 TIP3 H1   HT     0.417000        1.0080           0
    7417 WT1  2385 TIP3 H2   HT     0.417000        1.0080           0
    7418 WT1  2386 TIP3 OH2  OT    -0.834000       15.9994           0
    7419 WT1  2386 TIP3 H1   HT     0.417000        1.0080           0
    7420 WT1  2386 TIP3 H2   HT     0.417000        1.0080           0
    7421 WT1  2387 TIP3 OH2  OT    -0.834000       15.9994           0
    7422 WT1  2387 TIP3 H1   HT     0.417000        1.0080           0
    7423 WT1  2387 TIP3 H2   HT     0.417000        1.0080           0
    7424 WT1  2389 TIP3 OH2  OT    -0.834000       15.9994           0
    7425 WT1  2389 TIP3 H1   HT     0.417000        1.0080           0
    7426 WT1  2389 TIP3 H2   HT     0.417000        1.0080           0
    7427 WT1  2390 TIP3 OH2  OT    -0.834000       15.9994           0
    7428 WT1  2390 TIP3 H1   HT     0.417000        1.0080           0
    7429 WT1  2390 TIP3 H2   HT     0.417000        1.0080           0
    7430 WT1  2391 TIP3 OH2  OT    -0.834000       15.9994           0
    7431 WT1  2391 TIP3 H1   HT     0.417000        1.0080           0
    7432 WT1  2391 TIP3 H2   HT     0.417000        1.0080           0
    7433 WT1  2392 TIP3 OH2  OT    -0.834000       15.9994           0
    7434 WT1  2392 TIP3 H1   HT     0.417000        1.0080           0
    7435 WT1  2392 TIP3 H2   HT     0.417000        1.0080           0
    7436 WT1  2393 TIP3 OH2  OT    -0.834000       15.9994           0
    7437 WT1  2393 TIP3 H1   HT     0.417000        1.0080           0
    7438 WT1  2393 TIP3 H2   HT     0.417000        1.0080           0
    7439 WT1  2394 TIP3 OH2  OT    -0.834000       15.9994           0
    7440 WT1  2394 TIP3 H1   HT     0.417000        1.0080           0
    7441 WT1  2394 TIP3 H2   HT     0.417000        1.0080           0
    7442 WT1  2395 TIP3 OH2  OT    -0.834000       15.9994           0
    7443 WT1  2395 TIP3 H1   HT     0.417000        1.0080           0
    7444 WT1  2395 TIP3 H2   HT     0.417000        1.0080           0
    7445 WT1  2396 TIP3 OH2  OT    -0.834000       15.9994           0
    7446 WT1  2396 TIP3 H1   HT     0.417000        1.0080           0
    7447 WT1  2396 TIP3 H2   HT     0.417000        1.0080           0
    7448 WT1  2397 TIP3 OH2  OT    -0.834000       15.9994           0
    7449 WT1  2397 TIP3 H1   HT     0.417000        1.0080           0
    7450 WT1  2397 TIP3 H2   HT     0.417000        1.0080           0
    7451 WT1  2398 TIP3 OH2  OT    -0.834000       15.9994           0
    7452 WT1  2398 TIP3 H1   HT     0.417000        1.0080           0
    7453 WT1  2398 TIP3 H2   HT     0.417000        1.0080           0
    7454 WT1  2399 TIP3 OH2  OT    -0.834000       15.9994           0
    7455 WT1  2399 TIP3 H1   HT     0.417000        1.0080           0
    7456 WT1  2399 TIP3 H2   HT     0.417000        1.0080           0
    7457 WT1  2401 TIP3 OH2  OT    -0.834000       15.9994           0
    7458 WT1  2401 TIP3 H1   HT     0.417000        1.0080           0
    7459 WT1  2401 TIP3 H2   HT     0.417000        1.0080           0
    7460 WT1  2402 TIP3 OH2  OT    -0.834000       15.9994           0
    7461 WT1  2402 TIP3 H1   HT     0.417000        1.0080           0
    7462 WT1  2402 TIP3 H2   HT     0.417000        1.0080           0
    7463 WT1  2403 TIP3 OH2  OT    -0.834000       15.9994           0
    7464 WT1  2403 TIP3 H1   HT     0.417000        1.0080           0
    7465 WT1  2403 TIP3 H2   HT     0.417000        1.0080           0
    7466 WT1  2404 TIP3 OH2  OT    -0.834000       15.9994           0
    7467 WT1  2404 TIP3 H1   HT     0.417000        1.0080           0
    7468 WT1  2404 TIP3 H2   HT     0.417000        1.0080           0
    7469 WT1  2405 TIP3 OH2  OT    -0.834000       15.9994           0
    7470 WT1  2405 TIP3 H1   HT     0.417000        1.0080           0
    7471 WT1  2405 TIP3 H2   HT     0.417000        1.0080           0
    7472 WT1  2407 TIP3 OH2  OT    -0.834000       15.9994           0
    7473 WT1  2407 TIP3 H1   HT     0.417000        1.0080           0
    7474 WT1  2407 TIP3 H2   HT     0.417000        1.0080           0
    7475 WT1  2408 TIP3 OH2  OT    -0.834000       15.9994           0
    7476 WT1  2408 TIP3 H1   HT     0.417000        1.0080           0
    7477 WT1  2408 TIP3 H2   HT     0.417000        1.0080           0
    7478 WT1  2409 TIP3 OH2  OT    -0.834000       15.9994           0
    7479 WT1  2409 TIP3 H1   HT     0.417000        1.0080           0
    7480 WT1  2409 TIP3 H2   HT     0.417000        1.0080           0
    7481 WT1  2410 TIP3 OH2  OT    -0.834000       15.9994           0
    7482 WT1  2410 TIP3 H1   HT     0.417000        1.0080           0
    7483 WT1  2410 TIP3 H2   HT     0.417000        1.0080           0
    7484 WT1  2411 TIP3 OH2  OT    -0.834000       15.9994           0
    7485 WT1  2411 TIP3 H1   HT     0.417000        1.0080           0
    7486 WT1  2411 TIP3 H2   HT     0.417000        1.0080           0
    7487 WT1  2412 TIP3 OH2  OT    -0.834000       15.9994           0
    7488 WT1  2412 TIP3 H1   HT     0.417000        1.0080           0
    7489 WT1  2412 TIP3 H2   HT     0.417000        1.0080           0
    7490 WT1  2414 TIP3 OH2  OT    -0.834000       15.9994           0
    7491 WT1  2414 TIP3 H1   HT     0.417000        1.0080           0
    7492 WT1  2414 TIP3 H2   HT     0.417000        1.0080           0
    7493 WT1  2415 TIP3 OH2  OT    -0.834000       15.9994           0
    7494 WT1  2415 TIP3 H1   HT     0.417000        1.0080           0
    7495 WT1  2415 TIP3 H2   HT     0.417000        1.0080           0
    7496 WT1  2416 TIP3 OH2  OT    -0.834000       15.9994           0
    7497 WT1  2416 TIP3 H1   HT     0.417000        1.0080           0
    7498 WT1  2416 TIP3 H2   HT     0.417000        1.0080           0
    7499 WT1  2418 TIP3 OH2  OT    -0.834000       15.9994           0
    7500 WT1  2418 TIP3 H1   HT     0.417000        1.0080           0
    7501 WT1  2418 TIP3 H2   HT     0.417000        1.0080           0
    7502 WT1  2419 TIP3 OH2  OT    -0.834000       15.9994           0
    7503 WT1  2419 TIP3 H1   HT     0.417000        1.0080           0
    7504 WT1  2419 TIP3 H2   HT     0.417000        1.0080           0
    7505 WT1  2420 TIP3 OH2  OT    -0.834000       15.9994           0
    7506 WT1  2420 TIP3 H1   HT     0.417000        1.0080           0
    7507 WT1  2420 TIP3 H2   HT     0.417000        1.0080           0
    7508 WT1  2421 TIP3 OH2  OT    -0.834000       15.9994           0
    7509 WT1  2421 TIP3 H1   HT     0.417000        1.0080           0
    7510 WT1  2421 TIP3 H2   HT     0.417000        1.0080           0
    7511 WT1  2422 TIP3 OH2  OT    -0.834000       15.9994           0
    7512 WT1  2422 TIP3 H1   HT     0.417000        1.0080           0
    7513 WT1  2422 TIP3 H2   HT     0.417000        1.0080           0
    7514 WT1  2423 TIP3 OH2  OT    -0.834000       15.9994           0
    7515 WT1  2423 TIP3 H1   HT     0.417000        1.0080           0
    7516 WT1  2423 TIP3 H2   HT     0.417000        1.0080           0
    7517 WT1  2425 TIP3 OH2  OT    -0.834000       15.9994           0
    7518 WT1  2425 TIP3 H1   HT     0.417000        1.0080           0
    7519 WT1  2425 TIP3 H2   HT     0.417000        1.0080           0
    7520 WT1  2426 TIP3 OH2  OT    -0.834000       15.9994           0
    7521 WT1  2426 TIP3 H1   HT     0.417000        1.0080           0
    7522 WT1  2426 TIP3 H2   HT     0.417000        1.0080           0
    7523 WT1  2427 TIP3 OH2  OT    -0.834000       15.9994           0
    7524 WT1  2427 TIP3 H1   HT     0.417000        1.0080           0
    7525 WT1  2427 TIP3 H2   HT     0.417000        1.0080           0
    7526 WT1  2428 TIP3 OH2  OT    -0.834000       15.9994           0
    7527 WT1  2428 TIP3 H1   HT     0.417000        1.0080           0
    7528 WT1  2428 TIP3 H2   HT     0.417000        1.0080           0
    7529 WT1  2429 TIP3 OH2  OT    -0.834000       15.9994           0
    7530 WT1  2429 TIP3 H1   HT     0.417000        1.0080           0
    7531 WT1  2429 TIP3 H2   HT     0.417000        1.0080           0
    7532 WT1  2430 TIP3 OH2  OT    -0.834000       15.9994           0
    7533 WT1  2430 TIP3 H1   HT     0.417000        1.0080           0
    7534 WT1  2430 TIP3 H2   HT     0.417000        1.0080           0
    7535 WT1  2431 TIP3 OH2  OT    -0.834000       15.9994           0
    7536 WT1  2431 TIP3 H1   HT     0.417000        1.0080           0
    7537 WT1  2431 TIP3 H2   HT     0.417000        1.0080           0
    7538 WT1  2433 TIP3 OH2  OT    -0.834000       15.9994           0
    7539 WT1  2433 TIP3 H1   HT     0.417000        1.0080           0
    7540 WT1  2433 TIP3 H2   HT     0.417000        1.0080           0
    7541 WT1  2434 TIP3 OH2  OT    -0.834000       15.9994           0
    7542 WT1  2434 TIP3 H1   HT     0.417000        1.0080           0
    7543 WT1  2434 TIP3 H2   HT     0.417000        1.0080           0
    7544 WT1  2435 TIP3 OH2  OT    -0.834000       15.9994           0
    7545 WT1  2435 TIP3 H1   HT     0.417000        1.0080           0
    7546 WT1  2435 TIP3 H2   HT     0.417000        1.0080           0
    7547 WT1  2436 TIP3 OH2  OT    -0.834000       15.9994           0
    7548 WT1  2436 TIP3 H1   HT     0.417000        1.0080           0
    7549 WT1  2436 TIP3 H2   HT     0.417000        1.0080           0
    7550 WT1  2437 TIP3 OH2  OT    -0.834000       15.9994           0
    7551 WT1  2437 TIP3 H1   HT     0.417000        1.0080           0
    7552 WT1  2437 TIP3 H2   HT     0.417000        1.0080           0
    7553 WT1  2438 TIP3 OH2  OT    -0.834000       15.9994           0
    7554 WT1  2438 TIP3 H1   HT     0.417000        1.0080           0
    7555 WT1  2438 TIP3 H2   HT     0.417000        1.0080           0
    7556 WT1  2439 TIP3 OH2  OT    -0.834000       15.9994           0
    7557 WT1  2439 TIP3 H1   HT     0.417000        1.0080           0
    7558 WT1  2439 TIP3 H2   HT     0.417000        1.0080           0
    7559 WT1  2440 TIP3 OH2  OT    -0.834000       15.9994           0
    7560 WT1  2440 TIP3 H1   HT     0.417000        1.0080           0
    7561 WT1  2440 TIP3 H2   HT     0.417000        1.0080           0
    7562 WT1  2441 TIP3 OH2  OT    -0.834000       15.9994           0
    7563 WT1  2441 TIP3 H1   HT     0.417000        1.0080           0
    7564 WT1  2441 TIP3 H2   HT     0.417000        1.0080           0
    7565 WT1  2442 TIP3 OH2  OT    -0.834000       15.9994           0
    7566 WT1  2442 TIP3 H1   HT     0.417000        1.0080           0
    7567 WT1  2442 TIP3 H2   HT     0.417000        1.0080           0
    7568 WT1  2443 TIP3 OH2  OT    -0.834000       15.9994           0
    7569 WT1  2443 TIP3 H1   HT     0.417000        1.0080           0
    7570 WT1  2443 TIP3 H2   HT     0.417000        1.0080           0
    7571 WT1  2444 TIP3 OH2  OT    -0.834000       15.9994           0
    7572 WT1  2444 TIP3 H1   HT     0.417000        1.0080           0
    7573 WT1  2444 TIP3 H2   HT     0.417000        1.0080           0
    7574 WT1  2446 TIP3 OH2  OT    -0.834000       15.9994           0
    7575 WT1  2446 TIP3 H1   HT     0.417000        1.0080           0
    7576 WT1  2446 TIP3 H2   HT     0.417000        1.0080           0
    7577 WT1  2447 TIP3 OH2  OT    -0.834000       15.9994           0
    7578 WT1  2447 TIP3 H1   HT     0.417000        1.0080           0
    7579 WT1  2447 TIP3 H2   HT     0.417000        1.0080           0
    7580 WT1  2448 TIP3 OH2  OT    -0.834000       15.9994           0
    7581 WT1  2448 TIP3 H1   HT     0.417000        1.0080           0
    7582 WT1  2448 TIP3 H2   HT     0.417000        1.0080           0
    7583 WT1  2449 TIP3 OH2  OT    -0.834000       15.9994           0
    7584 WT1  2449 TIP3 H1   HT     0.417000        1.0080           0
    7585 WT1  2449 TIP3 H2   HT     0.417000        1.0080           0
    7586 WT1  2451 TIP3 OH2  OT    -0.834000       15.9994           0
    7587 WT1  2451 TIP3 H1   HT     0.417000        1.0080           0
    7588 WT1  2451 TIP3 H2   HT     0.417000        1.0080           0
    7589 WT1  2452 TIP3 OH2  OT    -0.834000       15.9994           0
    7590 WT1  2452 TIP3 H1   HT     0.417000        1.0080           0
    7591 WT1  2452 TIP3 H2   HT     0.417000        1.0080           0
    7592 WT1  2453 TIP3 OH2  OT    -0.834000       15.9994           0
    7593 WT1  2453 TIP3 H1   HT     0.417000        1.0080           0
    7594 WT1  2453 TIP3 H2   HT     0.417000        1.0080           0
    7595 WT1  2454 TIP3 OH2  OT    -0.834000       15.9994           0
    7596 WT1  2454 TIP3 H1   HT     0.417000        1.0080           0
    7597 WT1  2454 TIP3 H2   HT     0.417000        1.0080           0
    7598 WT1  2456 TIP3 OH2  OT    -0.834000       15.9994           0
    7599 WT1  2456 TIP3 H1   HT     0.417000        1.0080           0
    7600 WT1  2456 TIP3 H2   HT     0.417000        1.0080           0
    7601 WT1  2457 TIP3 OH2  OT    -0.834000       15.9994           0
    7602 WT1  2457 TIP3 H1   HT     0.417000        1.0080           0
    7603 WT1  2457 TIP3 H2   HT     0.417000        1.0080           0
    7604 WT1  2458 TIP3 OH2  OT    -0.834000       15.9994           0
    7605 WT1  2458 TIP3 H1   HT     0.417000        1.0080           0
    7606 WT1  2458 TIP3 H2   HT     0.417000        1.0080           0
    7607 WT1  2459 TIP3 OH2  OT    -0.834000       15.9994           0
    7608 WT1  2459 TIP3 H1   HT     0.417000        1.0080           0
    7609 WT1  2459 TIP3 H2   HT     0.417000        1.0080           0
    7610 WT1  2460 TIP3 OH2  OT    -0.834000       15.9994           0
    7611 WT1  2460 TIP3 H1   HT     0.417000        1.0080           0
    7612 WT1  2460 TIP3 H2   HT     0.417000        1.0080           0
    7613 WT1  2461 TIP3 OH2  OT    -0.834000       15.9994           0
    7614 WT1  2461 TIP3 H1   HT     0.417000        1.0080           0
    7615 WT1  2461 TIP3 H2   HT     0.417000        1.0080           0
    7616 WT1  2463 TIP3 OH2  OT    -0.834000       15.9994           0
    7617 WT1  2463 TIP3 H1   HT     0.417000        1.0080           0
    7618 WT1  2463 TIP3 H2   HT     0.417000        1.0080           0
    7619 WT1  2464 TIP3 OH2  OT    -0.834000       15.9994           0
    7620 WT1  2464 TIP3 H1   HT     0.417000        1.0080           0
    7621 WT1  2464 TIP3 H2   HT     0.417000        1.0080           0
    7622 WT1  2465 TIP3 OH2  OT    -0.834000       15.9994           0
    7623 WT1  2465 TIP3 H1   HT     0.417000        1.0080           0
    7624 WT1  2465 TIP3 H2   HT     0.417000        1.0080           0
    7625 WT1  2467 TIP3 OH2  OT    -0.834000       15.9994           0
    7626 WT1  2467 TIP3 H1   HT     0.417000        1.0080           0
    7627 WT1  2467 TIP3 H2   HT     0.417000        1.0080           0
    7628 WT1  2468 TIP3 OH2  OT    -0.834000       15.9994           0
    7629 WT1  2468 TIP3 H1   HT     0.417000        1.0080           0
    7630 WT1  2468 TIP3 H2   HT     0.417000        1.0080           0
    7631 WT1  2469 TIP3 OH2  OT    -0.834000       15.9994           0
    7632 WT1  2469 TIP3 H1   HT     0.417000        1.0080           0
    7633 WT1  2469 TIP3 H2   HT     0.417000        1.0080           0
    7634 WT1  2471 TIP3 OH2  OT    -0.834000       15.9994           0
    7635 WT1  2471 TIP3 H1   HT     0.417000        1.0080           0
    7636 WT1  2471 TIP3 H2   HT     0.417000        1.0080           0
    7637 WT1  2472 TIP3 OH2  OT    -0.834000       15.9994           0
    7638 WT1  2472 TIP3 H1   HT     0.417000        1.0080           0
    7639 WT1  2472 TIP3 H2   HT     0.417000        1.0080           0
    7640 WT1  2473 TIP3 OH2  OT    -0.834000       15.9994           0
    7641 WT1  2473 TIP3 H1   HT     0.417000        1.0080           0
    7642 WT1  2473 TIP3 H2   HT     0.417000        1.0080           0
    7643 WT1  2475 TIP3 OH2  OT    -0.834000       15.9994           0
    7644 WT1  2475 TIP3 H1   HT     0.417000        1.0080           0
    7645 WT1  2475 TIP3 H2   HT     0.417000        1.0080           0
    7646 WT1  2476 TIP3 OH2  OT    -0.834000       15.9994           0
    7647 WT1  2476 TIP3 H1   HT     0.417000        1.0080           0
    7648 WT1  2476 TIP3 H2   HT     0.417000        1.0080           0
    7649 WT1  2478 TIP3 OH2  OT    -0.834000       15.9994           0
    7650 WT1  2478 TIP3 H1   HT     0.417000        1.0080           0
    7651 WT1  2478 TIP3 H2   HT     0.417000        1.0080           0
    7652 WT1  2479 TIP3 OH2  OT    -0.834000       15.9994           0
    7653 WT1  2479 TIP3 H1   HT     0.417000        1.0080           0
    7654 WT1  2479 TIP3 H2   HT     0.417000        1.0080           0
    7655 WT1  2480 TIP3 OH2  OT    -0.834000       15.9994           0
    7656 WT1  2480 TIP3 H1   HT     0.417000        1.0080           0
    7657 WT1  2480 TIP3 H2   HT     0.417000        1.0080           0
    7658 WT1  2481 TIP3 OH2  OT    -0.834000       15.9994           0
    7659 WT1  2481 TIP3 H1   HT     0.417000        1.0080           0
    7660 WT1  2481 TIP3 H2   HT     0.417000        1.0080           0
    7661 WT1  2483 TIP3 OH2  OT    -0.834000       15.9994           0
    7662 WT1  2483 TIP3 H1   HT     0.417000        1.0080           0
    7663 WT1  2483 TIP3 H2   HT     0.417000        1.0080           0
    7664 WT1  2484 TIP3 OH2  OT    -0.834000       15.9994           0
    7665 WT1  2484 TIP3 H1   HT     0.417000        1.0080           0
    7666 WT1  2484 TIP3 H2   HT     0.417000        1.0080           0
    7667 WT1  2485 TIP3 OH2  OT    -0.834000       15.9994           0
    7668 WT1  2485 TIP3 H1   HT     0.417000        1.0080           0
    7669 WT1  2485 TIP3 H2   HT     0.417000        1.0080           0
    7670 WT1  2486 TIP3 OH2  OT    -0.834000       15.9994           0
    7671 WT1  2486 TIP3 H1   HT     0.417000        1.0080           0
    7672 WT1  2486 TIP3 H2   HT     0.417000        1.0080           0
    7673 WT1  2488 TIP3 OH2  OT    -0.834000       15.9994           0
    7674 WT1  2488 TIP3 H1   HT     0.417000        1.0080           0
    7675 WT1  2488 TIP3 H2   HT     0.417000        1.0080           0
    7676 WT1  2489 TIP3 OH2  OT    -0.834000       15.9994           0
    7677 WT1  2489 TIP3 H1   HT     0.417000        1.0080           0
    7678 WT1  2489 TIP3 H2   HT     0.417000        1.0080           0
    7679 WT1  2490 TIP3 OH2  OT    -0.834000       15.9994           0
    7680 WT1  2490 TIP3 H1   HT     0.417000        1.0080           0
    7681 WT1  2490 TIP3 H2   HT     0.417000        1.0080           0
    7682 WT1  2491 TIP3 OH2  OT    -0.834000       15.9994           0
    7683 WT1  2491 TIP3 H1   HT     0.417000        1.0080           0
    7684 WT1  2491 TIP3 H2   HT     0.417000        1.0080           0
    7685 WT1  2492 TIP3 OH2  OT    -0.834000       15.9994           0
    7686 WT1  2492 TIP3 H1   HT     0.417000        1.0080           0
    7687 WT1  2492 TIP3 H2   HT     0.417000        1.0080           0
    7688 WT1  2493 TIP3 OH2  OT    -0.834000       15.9994           0
    7689 WT1  2493 TIP3 H1   HT     0.417000        1.0080           0
    7690 WT1  2493 TIP3 H2   HT     0.417000        1.0080           0
    7691 WT1  2494 TIP3 OH2  OT    -0.834000       15.9994           0
    7692 WT1  2494 TIP3 H1   HT     0.417000        1.0080           0
    7693 WT1  2494 TIP3 H2   HT     0.417000        1.0080           0
    7694 WT1  2495 TIP3 OH2  OT    -0.834000       15.9994           0
    7695 WT1  2495 TIP3 H1   HT     0.417000        1.0080           0
    7696 WT1  2495 TIP3 H2   HT     0.417000        1.0080           0
    7697 WT1  2496 TIP3 OH2  OT    -0.834000       15.9994           0
    7698 WT1  2496 TIP3 H1   HT     0.417000        1.0080           0
    7699 WT1  2496 TIP3 H2   HT     0.417000        1.0080           0
    7700 WT1  2497 TIP3 OH2  OT    -0.834000       15.9994           0
    7701 WT1  2497 TIP3 H1   HT     0.417000        1.0080           0
    7702 WT1  2497 TIP3 H2   HT     0.417000        1.0080           0
    7703 WT1  2500 TIP3 OH2  OT    -0.834000       15.9994           0
    7704 WT1  2500 TIP3 H1   HT     0.417000        1.0080           0
    7705 WT1  2500 TIP3 H2   HT     0.417000        1.0080           0
    7706 WT1  2501 TIP3 OH2  OT    -0.834000       15.9994           0
    7707 WT1  2501 TIP3 H1   HT     0.417000        1.0080           0
    7708 WT1  2501 TIP3 H2   HT     0.417000        1.0080           0
    7709 WT1  2502 TIP3 OH2  OT    -0.834000       15.9994           0
    7710 WT1  2502 TIP3 H1   HT     0.417000        1.0080           0
    7711 WT1  2502 TIP3 H2   HT     0.417000        1.0080           0
    7712 WT1  2503 TIP3 OH2  OT    -0.834000       15.9994           0
    7713 WT1  2503 TIP3 H1   HT     0.417000        1.0080           0
    7714 WT1  2503 TIP3 H2   HT     0.417000        1.0080           0
    7715 WT1  2504 TIP3 OH2  OT    -0.834000       15.9994           0
    7716 WT1  2504 TIP3 H1   HT     0.417000        1.0080           0
    7717 WT1  2504 TIP3 H2   HT     0.417000        1.0080           0
    7718 WT1  2505 TIP3 OH2  OT    -0.834000       15.9994           0
    7719 WT1  2505 TIP3 H1   HT     0.417000        1.0080           0
    7720 WT1  2505 TIP3 H2   HT     0.417000        1.0080           0
    7721 WT1  2506 TIP3 OH2  OT    -0.834000       15.9994           0
    7722 WT1  2506 TIP3 H1   HT     0.417000        1.0080           0
    7723 WT1  2506 TIP3 H2   HT     0.417000        1.0080           0
    7724 WT1  2508 TIP3 OH2  OT    -0.834000       15.9994           0
    7725 WT1  2508 TIP3 H1   HT     0.417000        1.0080           0
    7726 WT1  2508 TIP3 H2   HT     0.417000        1.0080           0
    7727 WT1  2509 TIP3 OH2  OT    -0.834000       15.9994           0
    7728 WT1  2509 TIP3 H1   HT     0.417000        1.0080           0
    7729 WT1  2509 TIP3 H2   HT     0.417000        1.0080           0
    7730 WT1  2510 TIP3 OH2  OT    -0.834000       15.9994           0
    7731 WT1  2510 TIP3 H1   HT     0.417000        1.0080           0
    7732 WT1  2510 TIP3 H2   HT     0.417000        1.0080           0
    7733 WT1  2511 TIP3 OH2  OT    -0.834000       15.9994           0
    7734 WT1  2511 TIP3 H1   HT     0.417000        1.0080           0
    7735 WT1  2511 TIP3 H2   HT     0.417000        1.0080           0
    7736 WT1  2512 TIP3 OH2  OT    -0.834000       15.9994           0
    7737 WT1  2512 TIP3 H1   HT     0.417000        1.0080           0
    7738 WT1  2512 TIP3 H2   HT     0.417000        1.0080           0
    7739 WT1  2513 TIP3 OH2  OT    -0.834000       15.9994           0
    7740 WT1  2513 TIP3 H1   HT     0.417000        1.0080           0
    7741 WT1  2513 TIP3 H2   HT     0.417000        1.0080           0
    7742 WT1  2514 TIP3 OH2  OT    -0.834000       15.9994           0
    7743 WT1  2514 TIP3 H1   HT     0.417000        1.0080           0
    7744 WT1  2514 TIP3 H2   HT     0.417000        1.0080           0
    7745 WT1  2515 TIP3 OH2  OT    -0.834000       15.9994           0
    7746 WT1  2515 TIP3 H1   HT     0.417000        1.0080           0
    7747 WT1  2515 TIP3 H2   HT     0.417000        1.0080           0
    7748 WT1  2516 TIP3 OH2  OT    -0.834000       15.9994           0
    7749 WT1  2516 TIP3 H1   HT     0.417000        1.0080           0
    7750 WT1  2516 TIP3 H2   HT     0.417000        1.0080           0
    7751 WT1  2517 TIP3 OH2  OT    -0.834000       15.9994           0
    7752 WT1  2517 TIP3 H1   HT     0.417000        1.0080           0
    7753 WT1  2517 TIP3 H2   HT     0.417000        1.0080           0
    7754 WT1  2518 TIP3 OH2  OT    -0.834000       15.9994           0
    7755 WT1  2518 TIP3 H1   HT     0.417000        1.0080           0
    7756 WT1  2518 TIP3 H2   HT     0.417000        1.0080           0
    7757 WT1  2519 TIP3 OH2  OT    -0.834000       15.9994           0
    7758 WT1  2519 TIP3 H1   HT     0.417000        1.0080           0
    7759 WT1  2519 TIP3 H2   HT     0.417000        1.0080           0
    7760 WT1  2520 TIP3 OH2  OT    -0.834000       15.9994           0
    7761 WT1  2520 TIP3 H1   HT     0.417000        1.0080           0
    7762 WT1  2520 TIP3 H2   HT     0.417000        1.0080           0
    7763 WT1  2522 TIP3 OH2  OT    -0.834000       15.9994           0
    7764 WT1  2522 TIP3 H1   HT     0.417000        1.0080           0
    7765 WT1  2522 TIP3 H2   HT     0.417000        1.0080           0
    7766 WT1  2523 TIP3 OH2  OT    -0.834000       15.9994           0
    7767 WT1  2523 TIP3 H1   HT     0.417000        1.0080           0
    7768 WT1  2523 TIP3 H2   HT     0.417000        1.0080           0
    7769 WT1  2525 TIP3 OH2  OT    -0.834000       15.9994           0
    7770 WT1  2525 TIP3 H1   HT     0.417000        1.0080           0
    7771 WT1  2525 TIP3 H2   HT     0.417000        1.0080           0
    7772 WT1  2526 TIP3 OH2  OT    -0.834000       15.9994           0
    7773 WT1  2526 TIP3 H1   HT     0.417000        1.0080           0
    7774 WT1  2526 TIP3 H2   HT     0.417000        1.0080           0
    7775 WT1  2527 TIP3 OH2  OT    -0.834000       15.9994           0
    7776 WT1  2527 TIP3 H1   HT     0.417000        1.0080           0
    7777 WT1  2527 TIP3 H2   HT     0.417000        1.0080           0
    7778 WT1  2529 TIP3 OH2  OT    -0.834000       15.9994           0
    7779 WT1  2529 TIP3 H1   HT     0.417000        1.0080           0
    7780 WT1  2529 TIP3 H2   HT     0.417000        1.0080           0
    7781 WT1  2530 TIP3 OH2  OT    -0.834000       15.9994           0
    7782 WT1  2530 TIP3 H1   HT     0.417000        1.0080           0
    7783 WT1  2530 TIP3 H2   HT     0.417000        1.0080           0
    7784 WT1  2531 TIP3 OH2  OT    -0.834000       15.9994           0
    7785 WT1  2531 TIP3 H1   HT     0.417000        1.0080           0
    7786 WT1  2531 TIP3 H2   HT     0.417000        1.0080           0
    7787 WT1  2532 TIP3 OH2  OT    -0.834000       15.9994           0
    7788 WT1  2532 TIP3 H1   HT     0.417000        1.0080           0
    7789 WT1  2532 TIP3 H2   HT     0.417000        1.0080           0
    7790 WT1  2533 TIP3 OH2  OT    -0.834000       15.9994           0
    7791 WT1  2533 TIP3 H1   HT     0.417000        1.0080           0
    7792 WT1  2533 TIP3 H2   HT     0.417000        1.0080           0
    7793 WT1  2534 TIP3 OH2  OT    -0.834000       15.9994           0
    7794 WT1  2534 TIP3 H1   HT     0.417000        1.0080           0
    7795 WT1  2534 TIP3 H2   HT     0.417000        1.0080           0
    7796 WT1  2535 TIP3 OH2  OT    -0.834000       15.9994           0
    7797 WT1  2535 TIP3 H1   HT     0.417000        1.0080           0
    7798 WT1  2535 TIP3 H2   HT     0.417000        1.0080           0
    7799 WT1  2537 TIP3 OH2  OT    -0.834000       15.9994           0
    7800 WT1  2537 TIP3 H1   HT     0.417000        1.0080           0
    7801 WT1  2537 TIP3 H2   HT     0.417000        1.0080           0
    7802 WT1  2538 TIP3 OH2  OT    -0.834000       15.9994           0
    7803 WT1  2538 TIP3 H1   HT     0.417000        1.0080           0
    7804 WT1  2538 TIP3 H2   HT     0.417000        1.0080           0
    7805 WT1  2539 TIP3 OH2  OT    -0.834000       15.9994           0
    7806 WT1  2539 TIP3 H1   HT     0.417000        1.0080           0
    7807 WT1  2539 TIP3 H2   HT     0.417000        1.0080           0
    7808 WT1  2540 TIP3 OH2  OT    -0.834000       15.9994           0
    7809 WT1  2540 TIP3 H1   HT     0.417000        1.0080           0
    7810 WT1  2540 TIP3 H2   HT     0.417000        1.0080           0
    7811 WT1  2541 TIP3 OH2  OT    -0.834000       15.9994           0
    7812 WT1  2541 TIP3 H1   HT     0.417000        1.0080           0
    7813 WT1  2541 TIP3 H2   HT     0.417000        1.0080           0
    7814 WT1  2542 TIP3 OH2  OT    -0.834000       15.9994           0
    7815 WT1  2542 TIP3 H1   HT     0.417000        1.0080           0
    7816 WT1  2542 TIP3 H2   HT     0.417000        1.0080           0
    7817 WT1  2543 TIP3 OH2  OT    -0.834000       15.9994           0
    7818 WT1  2543 TIP3 H1   HT     0.417000        1.0080           0
    7819 WT1  2543 TIP3 H2   HT     0.417000        1.0080           0
    7820 WT1  2545 TIP3 OH2  OT    -0.834000       15.9994           0
    7821 WT1  2545 TIP3 H1   HT     0.417000        1.0080           0
    7822 WT1  2545 TIP3 H2   HT     0.417000        1.0080           0
    7823 WT1  2546 TIP3 OH2  OT    -0.834000       15.9994           0
    7824 WT1  2546 TIP3 H1   HT     0.417000        1.0080           0
    7825 WT1  2546 TIP3 H2   HT     0.417000        1.0080           0
    7826 WT1  2547 TIP3 OH2  OT    -0.834000       15.9994           0
    7827 WT1  2547 TIP3 H1   HT     0.417000        1.0080           0
    7828 WT1  2547 TIP3 H2   HT     0.417000        1.0080           0
    7829 WT1  2548 TIP3 OH2  OT    -0.834000       15.9994           0
    7830 WT1  2548 TIP3 H1   HT     0.417000        1.0080           0
    7831 WT1  2548 TIP3 H2   HT     0.417000        1.0080           0
    7832 WT1  2549 TIP3 OH2  OT    -0.834000       15.9994           0
    7833 WT1  2549 TIP3 H1   HT     0.417000        1.0080           0
    7834 WT1  2549 TIP3 H2   HT     0.417000        1.0080           0
    7835 WT1  2550 TIP3 OH2  OT    -0.834000       15.9994           0
    7836 WT1  2550 TIP3 H1   HT     0.417000        1.0080           0
    7837 WT1  2550 TIP3 H2   HT     0.417000        1.0080           0
    7838 WT1  2551 TIP3 OH2  OT    -0.834000       15.9994           0
    7839 WT1  2551 TIP3 H1   HT     0.417000        1.0080           0
    7840 WT1  2551 TIP3 H2   HT     0.417000        1.0080           0
    7841 WT1  2552 TIP3 OH2  OT    -0.834000       15.9994           0
    7842 WT1  2552 TIP3 H1   HT     0.417000        1.0080           0
    7843 WT1  2552 TIP3 H2   HT     0.417000        1.0080           0
    7844 WT1  2553 TIP3 OH2  OT    -0.834000       15.9994           0
    7845 WT1  2553 TIP3 H1   HT     0.417000        1.0080           0
    7846 WT1  2553 TIP3 H2   HT     0.417000        1.0080           0
    7847 WT1  2554 TIP3 OH2  OT    -0.834000       15.9994           0
    7848 WT1  2554 TIP3 H1   HT     0.417000        1.0080           0
    7849 WT1  2554 TIP3 H2   HT     0.417000        1.0080           0
    7850 WT1  2555 TIP3 OH2  OT    -0.834000       15.9994           0
    7851 WT1  2555 TIP3 H1   HT     0.417000        1.0080           0
    7852 WT1  2555 TIP3 H2   HT     0.417000        1.0080           0
    7853 WT1  2556 TIP3 OH2  OT    -0.834000       15.9994           0
    7854 WT1  2556 TIP3 H1   HT     0.417000        1.0080           0
    7855 WT1  2556 TIP3 H2   HT     0.417000        1.0080           0
    7856 WT1  2557 TIP3 OH2  OT    -0.834000       15.9994           0
    7857 WT1  2557 TIP3 H1   HT     0.417000        1.0080           0
    7858 WT1  2557 TIP3 H2   HT     0.417000        1.0080           0
    7859 WT1  2558 TIP3 OH2  OT    -0.834000       15.9994           0
    7860 WT1  2558 TIP3 H1   HT     0.417000        1.0080           0
    7861 WT1  2558 TIP3 H2   HT     0.417000        1.0080           0
    7862 WT1  2559 TIP3 OH2  OT    -0.834000       15.9994           0
    7863 WT1  2559 TIP3 H1   HT     0.417000        1.0080           0
    7864 WT1  2559 TIP3 H2   HT     0.417000        1.0080           0
    7865 WT1  2560 TIP3 OH2  OT    -0.834000       15.9994           0
    7866 WT1  2560 TIP3 H1   HT     0.417000        1.0080           0
    7867 WT1  2560 TIP3 H2   HT     0.417000        1.0080           0
    7868 WT1  2561 TIP3 OH2  OT    -0.834000       15.9994           0
    7869 WT1  2561 TIP3 H1   HT     0.417000        1.0080           0
    7870 WT1  2561 TIP3 H2   HT     0.417000        1.0080           0
    7871 WT1  2562 TIP3 OH2  OT    -0.834000       15.9994           0
    7872 WT1  2562 TIP3 H1   HT     0.417000        1.0080           0
    7873 WT1  2562 TIP3 H2   HT     0.417000        1.0080           0
    7874 WT1  2563 TIP3 OH2  OT    -0.834000       15.9994           0
    7875 WT1  2563 TIP3 H1   HT     0.417000        1.0080           0
    7876 WT1  2563 TIP3 H2   HT     0.417000        1.0080           0
    7877 WT1  2565 TIP3 OH2  OT    -0.834000       15.9994           0
    7878 WT1  2565 TIP3 H1   HT     0.417000        1.0080           0
    7879 WT1  2565 TIP3 H2   HT     0.417000        1.0080           0
    7880 WT1  2567 TIP3 OH2  OT    -0.834000       15.9994           0
    7881 WT1  2567 TIP3 H1   HT     0.417000        1.0080           0
    7882 WT1  2567 TIP3 H2   HT     0.417000        1.0080           0
    7883 WT1  2568 TIP3 OH2  OT    -0.834000       15.9994           0
    7884 WT1  2568 TIP3 H1   HT     0.417000        1.0080           0
    7885 WT1  2568 TIP3 H2   HT     0.417000        1.0080           0
    7886 WT1  2569 TIP3 OH2  OT    -0.834000       15.9994           0
    7887 WT1  2569 TIP3 H1   HT     0.417000        1.0080           0
    7888 WT1  2569 TIP3 H2   HT     0.417000        1.0080           0
    7889 WT1  2570 TIP3 OH2  OT    -0.834000       15.9994           0
    7890 WT1  2570 TIP3 H1   HT     0.417000        1.0080           0
    7891 WT1  2570 TIP3 H2   HT     0.417000        1.0080           0
    7892 WT1  2571 TIP3 OH2  OT    -0.834000       15.9994           0
    7893 WT1  2571 TIP3 H1   HT     0.417000        1.0080           0
    7894 WT1  2571 TIP3 H2   HT     0.417000        1.0080           0
    7895 WT1  2572 TIP3 OH2  OT    -0.834000       15.9994           0
    7896 WT1  2572 TIP3 H1   HT     0.417000        1.0080           0
    7897 WT1  2572 TIP3 H2   HT     0.417000        1.0080           0
    7898 WT1  2573 TIP3 OH2  OT    -0.834000       15.9994           0
    7899 WT1  2573 TIP3 H1   HT     0.417000        1.0080           0
    7900 WT1  2573 TIP3 H2   HT     0.417000        1.0080           0
    7901 WT1  2574 TIP3 OH2  OT    -0.834000       15.9994           0
    7902 WT1  2574 TIP3 H1   HT     0.417000        1.0080           0
    7903 WT1  2574 TIP3 H2   HT     0.417000        1.0080           0
    7904 WT1  2575 TIP3 OH2  OT    -0.834000       15.9994           0
    7905 WT1  2575 TIP3 H1   HT     0.417000        1.0080           0
    7906 WT1  2575 TIP3 H2   HT     0.417000        1.0080           0
    7907 WT1  2576 TIP3 OH2  OT    -0.834000       15.9994           0
    7908 WT1  2576 TIP3 H1   HT     0.417000        1.0080           0
    7909 WT1  2576 TIP3 H2   HT     0.417000        1.0080           0
    7910 WT1  2577 TIP3 OH2  OT    -0.834000       15.9994           0
    7911 WT1  2577 TIP3 H1   HT     0.417000        1.0080           0
    7912 WT1  2577 TIP3 H2   HT     0.417000        1.0080           0
    7913 WT1  2578 TIP3 OH2  OT    -0.834000       15.9994           0
    7914 WT1  2578 TIP3 H1   HT     0.417000        1.0080           0
    7915 WT1  2578 TIP3 H2   HT     0.417000        1.0080           0
    7916 WT1  2579 TIP3 OH2  OT    -0.834000       15.9994           0
    7917 WT1  2579 TIP3 H1   HT     0.417000        1.0080           0
    7918 WT1  2579 TIP3 H2   HT     0.417000        1.0080           0
    7919 WT1  2580 TIP3 OH2  OT    -0.834000       15.9994           0
    7920 WT1  2580 TIP3 H1   HT     0.417000        1.0080           0
    7921 WT1  2580 TIP3 H2   HT     0.417000        1.0080           0
    7922 WT1  2581 TIP3 OH2  OT    -0.834000       15.9994           0
    7923 WT1  2581 TIP3 H1   HT     0.417000        1.0080           0
    7924 WT1  2581 TIP3 H2   HT     0.417000        1.0080           0
    7925 WT1  2582 TIP3 OH2  OT    -0.834000       15.9994           0
    7926 WT1  2582 TIP3 H1   HT     0.417000        1.0080           0
    7927 WT1  2582 TIP3 H2   HT     0.417000        1.0080           0
    7928 WT1  2584 TIP3 OH2  OT    -0.834000       15.9994           0
    7929 WT1  2584 TIP3 H1   HT     0.417000        1.0080           0
    7930 WT1  2584 TIP3 H2   HT     0.417000        1.0080           0
    7931 WT1  2585 TIP3 OH2  OT    -0.834000       15.9994           0
    7932 WT1  2585 TIP3 H1   HT     0.417000        1.0080           0
    7933 WT1  2585 TIP3 H2   HT     0.417000        1.0080           0
    7934 WT1  2586 TIP3 OH2  OT    -0.834000       15.9994           0
    7935 WT1  2586 TIP3 H1   HT     0.417000        1.0080           0
    7936 WT1  2586 TIP3 H2   HT     0.417000        1.0080           0
    7937 WT1  2587 TIP3 OH2  OT    -0.834000       15.9994           0
    7938 WT1  2587 TIP3 H1   HT     0.417000        1.0080           0
    7939 WT1  2587 TIP3 H2   HT     0.417000        1.0080           0
    7940 WT1  2588 TIP3 OH2  OT    -0.834000       15.9994           0
    7941 WT1  2588 TIP3 H1   HT     0.417000        1.0080           0
    7942 WT1  2588 TIP3 H2   HT     0.417000        1.0080           0
    7943 WT1  2590 TIP3 OH2  OT    -0.834000       15.9994           0
    7944 WT1  2590 TIP3 H1   HT     0.417000        1.0080           0
    7945 WT1  2590 TIP3 H2   HT     0.417000        1.0080           0
    7946 WT1  2591 TIP3 OH2  OT    -0.834000       15.9994           0
    7947 WT1  2591 TIP3 H1   HT     0.417000        1.0080           0
    7948 WT1  2591 TIP3 H2   HT     0.417000        1.0080           0
    7949 WT1  2592 TIP3 OH2  OT    -0.834000       15.9994           0
    7950 WT1  2592 TIP3 H1   HT     0.417000        1.0080           0
    7951 WT1  2592 TIP3 H2   HT     0.417000        1.0080           0
    7952 WT1  2593 TIP3 OH2  OT    -0.834000       15.9994           0
    7953 WT1  2593 TIP3 H1   HT     0.417000        1.0080           0
    7954 WT1  2593 TIP3 H2   HT     0.417000        1.0080           0
    7955 WT1  2594 TIP3 OH2  OT    -0.834000       15.9994           0
    7956 WT1  2594 TIP3 H1   HT     0.417000        1.0080           0
    7957 WT1  2594 TIP3 H2   HT     0.417000        1.0080           0
    7958 WT1  2595 TIP3 OH2  OT    -0.834000       15.9994           0
    7959 WT1  2595 TIP3 H1   HT     0.417000        1.0080           0
    7960 WT1  2595 TIP3 H2   HT     0.417000        1.0080           0
    7961 WT1  2596 TIP3 OH2  OT    -0.834000       15.9994           0
    7962 WT1  2596 TIP3 H1   HT     0.417000        1.0080           0
    7963 WT1  2596 TIP3 H2   HT     0.417000        1.0080           0
    7964 WT1  2597 TIP3 OH2  OT    -0.834000       15.9994           0
    7965 WT1  2597 TIP3 H1   HT     0.417000        1.0080           0
    7966 WT1  2597 TIP3 H2   HT     0.417000        1.0080           0
    7967 WT1  2598 TIP3 OH2  OT    -0.834000       15.9994           0
    7968 WT1  2598 TIP3 H1   HT     0.417000        1.0080           0
    7969 WT1  2598 TIP3 H2   HT     0.417000        1.0080           0
    7970 WT1  2599 TIP3 OH2  OT    -0.834000       15.9994           0
    7971 WT1  2599 TIP3 H1   HT     0.417000        1.0080           0
    7972 WT1  2599 TIP3 H2   HT     0.417000        1.0080           0
    7973 WT1  2600 TIP3 OH2  OT    -0.834000       15.9994           0
    7974 WT1  2600 TIP3 H1   HT     0.417000        1.0080           0
    7975 WT1  2600 TIP3 H2   HT     0.417000        1.0080           0
    7976 WT1  2601 TIP3 OH2  OT    -0.834000       15.9994           0
    7977 WT1  2601 TIP3 H1   HT     0.417000        1.0080           0
    7978 WT1  2601 TIP3 H2   HT     0.417000        1.0080           0
    7979 WT1  2602 TIP3 OH2  OT    -0.834000       15.9994           0
    7980 WT1  2602 TIP3 H1   HT     0.417000        1.0080           0
    7981 WT1  2602 TIP3 H2   HT     0.417000        1.0080           0
    7982 WT1  2603 TIP3 OH2  OT    -0.834000       15.9994           0
    7983 WT1  2603 TIP3 H1   HT     0.417000        1.0080           0
    7984 WT1  2603 TIP3 H2   HT     0.417000        1.0080           0
    7985 WT1  2604 TIP3 OH2  OT    -0.834000       15.9994           0
    7986 WT1  2604 TIP3 H1   HT     0.417000        1.0080           0
    7987 WT1  2604 TIP3 H2   HT     0.417000        1.0080           0
    7988 WT1  2606 TIP3 OH2  OT    -0.834000       15.9994           0
    7989 WT1  2606 TIP3 H1   HT     0.417000        1.0080           0
    7990 WT1  2606 TIP3 H2   HT     0.417000        1.0080           0
    7991 WT1  2608 TIP3 OH2  OT    -0.834000       15.9994           0
    7992 WT1  2608 TIP3 H1   HT     0.417000        1.0080           0
    7993 WT1  2608 TIP3 H2   HT     0.417000        1.0080           0
    7994 WT1  2609 TIP3 OH2  OT    -0.834000       15.9994           0
    7995 WT1  2609 TIP3 H1   HT     0.417000        1.0080           0
    7996 WT1  2609 TIP3 H2   HT     0.417000        1.0080           0
    7997 WT1  2610 TIP3 OH2  OT    -0.834000       15.9994           0
    7998 WT1  2610 TIP3 H1   HT     0.417000        1.0080           0
    7999 WT1  2610 TIP3 H2   HT     0.417000        1.0080           0
    8000 WT1  2611 TIP3 OH2  OT    -0.834000       15.9994           0
    8001 WT1  2611 TIP3 H1   HT     0.417000        1.0080           0
    8002 WT1  2611 TIP3 H2   HT     0.417000        1.0080           0
    8003 WT1  2612 TIP3 OH2  OT    -0.834000       15.9994           0
    8004 WT1  2612 TIP3 H1   HT     0.417000        1.0080           0
    8005 WT1  2612 TIP3 H2   HT     0.417000        1.0080           0
    8006 WT1  2613 TIP3 OH2  OT    -0.834000       15.9994           0
    8007 WT1  2613 TIP3 H1   HT     0.417000        1.0080           0
    8008 WT1  2613 TIP3 H2   HT     0.417000        1.0080           0
    8009 WT1  2614 TIP3 OH2  OT    -0.834000       15.9994           0
    8010 WT1  2614 TIP3 H1   HT     0.417000        1.0080           0
    8011 WT1  2614 TIP3 H2   HT     0.417000        1.0080           0
    8012 WT1  2615 TIP3 OH2  OT    -0.834000       15.9994           0
    8013 WT1  2615 TIP3 H1   HT     0.417000        1.0080           0
    8014 WT1  2615 TIP3 H2   HT     0.417000        1.0080           0
    8015 WT1  2616 TIP3 OH2  OT    -0.834000       15.9994           0
    8016 WT1  2616 TIP3 H1   HT     0.417000        1.0080           0
    8017 WT1  2616 TIP3 H2   HT     0.417000        1.0080           0
    8018 WT1  2617 TIP3 OH2  OT    -0.834000       15.9994           0
    8019 WT1  2617 TIP3 H1   HT     0.417000        1.0080           0
    8020 WT1  2617 TIP3 H2   HT     0.417000        1.0080           0
    8021 WT1  2618 TIP3 OH2  OT    -0.834000       15.9994           0
    8022 WT1  2618 TIP3 H1   HT     0.417000        1.0080           0
    8023 WT1  2618 TIP3 H2   HT     0.417000        1.0080           0
    8024 WT1  2619 TIP3 OH2  OT    -0.834000       15.9994           0
    8025 WT1  2619 TIP3 H1   HT     0.417000        1.0080           0
    8026 WT1  2619 TIP3 H2   HT     0.417000        1.0080           0
    8027 WT1  2620 TIP3 OH2  OT    -0.834000       15.9994           0
    8028 WT1  2620 TIP3 H1   HT     0.417000        1.0080           0
    8029 WT1  2620 TIP3 H2   HT     0.417000        1.0080           0
    8030 WT1  2621 TIP3 OH2  OT    -0.834000       15.9994           0
    8031 WT1  2621 TIP3 H1   HT     0.417000        1.0080           0
    8032 WT1  2621 TIP3 H2   HT     0.417000        1.0080           0
    8033 WT1  2622 TIP3 OH2  OT    -0.834000       15.9994           0
    8034 WT1  2622 TIP3 H1   HT     0.417000        1.0080           0
    8035 WT1  2622 TIP3 H2   HT     0.417000        1.0080           0
    8036 WT1  2623 TIP3 OH2  OT    -0.834000       15.9994           0
    8037 WT1  2623 TIP3 H1   HT     0.417000        1.0080           0
    8038 WT1  2623 TIP3 H2   HT     0.417000        1.0080           0
    8039 WT1  2625 TIP3 OH2  OT    -0.834000       15.9994           0
    8040 WT1  2625 TIP3 H1   HT     0.417000        1.0080           0
    8041 WT1  2625 TIP3 H2   HT     0.417000        1.0080           0
    8042 WT1  2626 TIP3 OH2  OT    -0.834000       15.9994           0
    8043 WT1  2626 TIP3 H1   HT     0.417000        1.0080           0
    8044 WT1  2626 TIP3 H2   HT     0.417000        1.0080           0
    8045 WT1  2627 TIP3 OH2  OT    -0.834000       15.9994           0
    8046 WT1  2627 TIP3 H1   HT     0.417000        1.0080           0
    8047 WT1  2627 TIP3 H2   HT     0.417000        1.0080           0
    8048 WT1  2628 TIP3 OH2  OT    -0.834000       15.9994           0
    8049 WT1  2628 TIP3 H1   HT     0.417000        1.0080           0
    8050 WT1  2628 TIP3 H2   HT     0.417000        1.0080           0
    8051 WT1  2629 TIP3 OH2  OT    -0.834000       15.9994           0
    8052 WT1  2629 TIP3 H1   HT     0.417000        1.0080           0
    8053 WT1  2629 TIP3 H2   HT     0.417000        1.0080           0
    8054 WT1  2633 TIP3 OH2  OT    -0.834000       15.9994           0
    8055 WT1  2633 TIP3 H1   HT     0.417000        1.0080           0
    8056 WT1  2633 TIP3 H2   HT     0.417000        1.0080           0
    8057 WT1  2634 TIP3 OH2  OT    -0.834000       15.9994           0
    8058 WT1  2634 TIP3 H1   HT     0.417000        1.0080           0
    8059 WT1  2634 TIP3 H2   HT     0.417000        1.0080           0
    8060 WT1  2635 TIP3 OH2  OT    -0.834000       15.9994           0
    8061 WT1  2635 TIP3 H1   HT     0.417000        1.0080           0
    8062 WT1  2635 TIP3 H2   HT     0.417000        1.0080           0
    8063 WT1  2636 TIP3 OH2  OT    -0.834000       15.9994           0
    8064 WT1  2636 TIP3 H1   HT     0.417000        1.0080           0
    8065 WT1  2636 TIP3 H2   HT     0.417000        1.0080           0
    8066 WT1  2637 TIP3 OH2  OT    -0.834000       15.9994           0
    8067 WT1  2637 TIP3 H1   HT     0.417000        1.0080           0
    8068 WT1  2637 TIP3 H2   HT     0.417000        1.0080           0
    8069 WT1  2638 TIP3 OH2  OT    -0.834000       15.9994           0
    8070 WT1  2638 TIP3 H1   HT     0.417000        1.0080           0
    8071 WT1  2638 TIP3 H2   HT     0.417000        1.0080           0
    8072 WT1  2639 TIP3 OH2  OT    -0.834000       15.9994           0
    8073 WT1  2639 TIP3 H1   HT     0.417000        1.0080           0
    8074 WT1  2639 TIP3 H2   HT     0.417000        1.0080           0
    8075 WT1  2641 TIP3 OH2  OT    -0.834000       15.9994           0
    8076 WT1  2641 TIP3 H1   HT     0.417000        1.0080           0
    8077 WT1  2641 TIP3 H2   HT     0.417000        1.0080           0
    8078 WT1  2642 TIP3 OH2  OT    -0.834000       15.9994           0
    8079 WT1  2642 TIP3 H1   HT     0.417000        1.0080           0
    8080 WT1  2642 TIP3 H2   HT     0.417000        1.0080           0
    8081 WT1  2644 TIP3 OH2  OT    -0.834000       15.9994           0
    8082 WT1  2644 TIP3 H1   HT     0.417000        1.0080           0
    8083 WT1  2644 TIP3 H2   HT     0.417000        1.0080           0
    8084 WT1  2645 TIP3 OH2  OT    -0.834000       15.9994           0
    8085 WT1  2645 TIP3 H1   HT     0.417000        1.0080           0
    8086 WT1  2645 TIP3 H2   HT     0.417000        1.0080           0
    8087 WT1  2646 TIP3 OH2  OT    -0.834000       15.9994           0
    8088 WT1  2646 TIP3 H1   HT     0.417000        1.0080           0
    8089 WT1  2646 TIP3 H2   HT     0.417000        1.0080           0
    8090 WT1  2647 TIP3 OH2  OT    -0.834000       15.9994           0
    8091 WT1  2647 TIP3 H1   HT     0.417000        1.0080           0
    8092 WT1  2647 TIP3 H2   HT     0.417000        1.0080           0
    8093 WT1  2648 TIP3 OH2  OT    -0.834000       15.9994           0
    8094 WT1  2648 TIP3 H1   HT     0.417000        1.0080           0
    8095 WT1  2648 TIP3 H2   HT     0.417000        1.0080           0
    8096 WT1  2649 TIP3 OH2  OT    -0.834000       15.9994           0
    8097 WT1  2649 TIP3 H1   HT     0.417000        1.0080           0
    8098 WT1  2649 TIP3 H2   HT     0.417000        1.0080           0
    8099 WT1  2650 TIP3 OH2  OT    -0.834000       15.9994           0
    8100 WT1  2650 TIP3 H1   HT     0.417000        1.0080           0
    8101 WT1  2650 TIP3 H2   HT     0.417000        1.0080           0
    8102 WT1  2651 TIP3 OH2  OT    -0.834000       15.9994           0
    8103 WT1  2651 TIP3 H1   HT     0.417000        1.0080           0
    8104 WT1  2651 TIP3 H2   HT     0.417000        1.0080           0
    8105 WT1  2653 TIP3 OH2  OT    -0.834000       15.9994           0
    8106 WT1  2653 TIP3 H1   HT     0.417000        1.0080           0
    8107 WT1  2653 TIP3 H2   HT     0.417000        1.0080           0
    8108 WT1  2654 TIP3 OH2  OT    -0.834000       15.9994           0
    8109 WT1  2654 TIP3 H1   HT     0.417000        1.0080           0
    8110 WT1  2654 TIP3 H2   HT     0.417000        1.0080           0
    8111 WT1  2655 TIP3 OH2  OT    -0.834000       15.9994           0
    8112 WT1  2655 TIP3 H1   HT     0.417000        1.0080           0
    8113 WT1  2655 TIP3 H2   HT     0.417000        1.0080           0
    8114 WT1  2656 TIP3 OH2  OT    -0.834000       15.9994           0
    8115 WT1  2656 TIP3 H1   HT     0.417000        1.0080           0
    8116 WT1  2656 TIP3 H2   HT     0.417000        1.0080           0
    8117 WT1  2659 TIP3 OH2  OT    -0.834000       15.9994           0
    8118 WT1  2659 TIP3 H1   HT     0.417000        1.0080           0
    8119 WT1  2659 TIP3 H2   HT     0.417000        1.0080           0
    8120 WT1  2661 TIP3 OH2  OT    -0.834000       15.9994           0
    8121 WT1  2661 TIP3 H1   HT     0.417000        1.0080           0
    8122 WT1  2661 TIP3 H2   HT     0.417000        1.0080           0
    8123 WT1  2663 TIP3 OH2  OT    -0.834000       15.9994           0
    8124 WT1  2663 TIP3 H1   HT     0.417000        1.0080           0
    8125 WT1  2663 TIP3 H2   HT     0.417000        1.0080           0
    8126 WT1  2664 TIP3 OH2  OT    -0.834000       15.9994           0
    8127 WT1  2664 TIP3 H1   HT     0.417000        1.0080           0
    8128 WT1  2664 TIP3 H2   HT     0.417000        1.0080           0
    8129 WT1  2666 TIP3 OH2  OT    -0.834000       15.9994           0
    8130 WT1  2666 TIP3 H1   HT     0.417000        1.0080           0
    8131 WT1  2666 TIP3 H2   HT     0.417000        1.0080           0
    8132 WT1  2667 TIP3 OH2  OT    -0.834000       15.9994           0
    8133 WT1  2667 TIP3 H1   HT     0.417000        1.0080           0
    8134 WT1  2667 TIP3 H2   HT     0.417000        1.0080           0
    8135 WT1  2668 TIP3 OH2  OT    -0.834000       15.9994           0
    8136 WT1  2668 TIP3 H1   HT     0.417000        1.0080           0
    8137 WT1  2668 TIP3 H2   HT     0.417000        1.0080           0
    8138 WT1  2669 TIP3 OH2  OT    -0.834000       15.9994           0
    8139 WT1  2669 TIP3 H1   HT     0.417000        1.0080           0
    8140 WT1  2669 TIP3 H2   HT     0.417000        1.0080           0
    8141 WT1  2671 TIP3 OH2  OT    -0.834000       15.9994           0
    8142 WT1  2671 TIP3 H1   HT     0.417000        1.0080           0
    8143 WT1  2671 TIP3 H2   HT     0.417000        1.0080           0
    8144 WT1  2672 TIP3 OH2  OT    -0.834000       15.9994           0
    8145 WT1  2672 TIP3 H1   HT     0.417000        1.0080           0
    8146 WT1  2672 TIP3 H2   HT     0.417000        1.0080           0
    8147 WT1  2673 TIP3 OH2  OT    -0.834000       15.9994           0
    8148 WT1  2673 TIP3 H1   HT     0.417000        1.0080           0
    8149 WT1  2673 TIP3 H2   HT     0.417000        1.0080           0
    8150 WT1  2674 TIP3 OH2  OT    -0.834000       15.9994           0
    8151 WT1  2674 TIP3 H1   HT     0.417000        1.0080           0
    8152 WT1  2674 TIP3 H2   HT     0.417000        1.0080           0
    8153 WT1  2675 TIP3 OH2  OT    -0.834000       15.9994           0
    8154 WT1  2675 TIP3 H1   HT     0.417000        1.0080           0
    8155 WT1  2675 TIP3 H2   HT     0.417000        1.0080           0
    8156 WT1  2676 TIP3 OH2  OT    -0.834000       15.9994           0
    8157 WT1  2676 TIP3 H1   HT     0.417000        1.0080           0
    8158 WT1  2676 TIP3 H2   HT     0.417000        1.0080           0
    8159 WT1  2677 TIP3 OH2  OT    -0.834000       15.9994           0
    8160 WT1  2677 TIP3 H1   HT     0.417000        1.0080           0
    8161 WT1  2677 TIP3 H2   HT     0.417000        1.0080           0
    8162 WT1  2678 TIP3 OH2  OT    -0.834000       15.9994           0
    8163 WT1  2678 TIP3 H1   HT     0.417000        1.0080           0
    8164 WT1  2678 TIP3 H2   HT     0.417000        1.0080           0
    8165 WT1  2679 TIP3 OH2  OT    -0.834000       15.9994           0
    8166 WT1  2679 TIP3 H1   HT     0.417000        1.0080           0
    8167 WT1  2679 TIP3 H2   HT     0.417000        1.0080           0
    8168 WT1  2680 TIP3 OH2  OT    -0.834000       15.9994           0
    8169 WT1  2680 TIP3 H1   HT     0.417000        1.0080           0
    8170 WT1  2680 TIP3 H2   HT     0.417000        1.0080           0
    8171 WT1  2681 TIP3 OH2  OT    -0.834000       15.9994           0
    8172 WT1  2681 TIP3 H1   HT     0.417000        1.0080           0
    8173 WT1  2681 TIP3 H2   HT     0.417000        1.0080           0
    8174 WT1  2682 TIP3 OH2  OT    -0.834000       15.9994           0
    8175 WT1  2682 TIP3 H1   HT     0.417000        1.0080           0
    8176 WT1  2682 TIP3 H2   HT     0.417000        1.0080           0
    8177 WT1  2683 TIP3 OH2  OT    -0.834000       15.9994           0
    8178 WT1  2683 TIP3 H1   HT     0.417000        1.0080           0
    8179 WT1  2683 TIP3 H2   HT     0.417000        1.0080           0
    8180 WT1  2684 TIP3 OH2  OT    -0.834000       15.9994           0
    8181 WT1  2684 TIP3 H1   HT     0.417000        1.0080           0
    8182 WT1  2684 TIP3 H2   HT     0.417000        1.0080           0
    8183 WT1  2686 TIP3 OH2  OT    -0.834000       15.9994           0
    8184 WT1  2686 TIP3 H1   HT     0.417000        1.0080           0
    8185 WT1  2686 TIP3 H2   HT     0.417000        1.0080           0
    8186 WT1  2687 TIP3 OH2  OT    -0.834000       15.9994           0
    8187 WT1  2687 TIP3 H1   HT     0.417000        1.0080           0
    8188 WT1  2687 TIP3 H2   HT     0.417000        1.0080           0
    8189 WT1  2688 TIP3 OH2  OT    -0.834000       15.9994           0
    8190 WT1  2688 TIP3 H1   HT     0.417000        1.0080           0
    8191 WT1  2688 TIP3 H2   HT     0.417000        1.0080           0
    8192 WT1  2689 TIP3 OH2  OT    -0.834000       15.9994           0
    8193 WT1  2689 TIP3 H1   HT     0.417000        1.0080           0
    8194 WT1  2689 TIP3 H2   HT     0.417000        1.0080           0
    8195 WT1  2690 TIP3 OH2  OT    -0.834000       15.9994           0
    8196 WT1  2690 TIP3 H1   HT     0.417000        1.0080           0
    8197 WT1  2690 TIP3 H2   HT     0.417000        1.0080           0
    8198 WT1  2693 TIP3 OH2  OT    -0.834000       15.9994           0
    8199 WT1  2693 TIP3 H1   HT     0.417000        1.0080           0
    8200 WT1  2693 TIP3 H2   HT     0.417000        1.0080           0
    8201 WT1  2694 TIP3 OH2  OT    -0.834000       15.9994           0
    8202 WT1  2694 TIP3 H1   HT     0.417000        1.0080           0
    8203 WT1  2694 TIP3 H2   HT     0.417000        1.0080           0
    8204 WT1  2695 TIP3 OH2  OT    -0.834000       15.9994           0
    8205 WT1  2695 TIP3 H1   HT     0.417000        1.0080           0
    8206 WT1  2695 TIP3 H2   HT     0.417000        1.0080           0
    8207 WT1  2696 TIP3 OH2  OT    -0.834000       15.9994           0
    8208 WT1  2696 TIP3 H1   HT     0.417000        1.0080           0
    8209 WT1  2696 TIP3 H2   HT     0.417000        1.0080           0
    8210 WT1  2697 TIP3 OH2  OT    -0.834000       15.9994           0
    8211 WT1  2697 TIP3 H1   HT     0.417000        1.0080           0
    8212 WT1  2697 TIP3 H2   HT     0.417000        1.0080           0
    8213 WT1  2698 TIP3 OH2  OT    -0.834000       15.9994           0
    8214 WT1  2698 TIP3 H1   HT     0.417000        1.0080           0
    8215 WT1  2698 TIP3 H2   HT     0.417000        1.0080           0
    8216 WT1  2699 TIP3 OH2  OT    -0.834000       15.9994           0
    8217 WT1  2699 TIP3 H1   HT     0.417000        1.0080           0
    8218 WT1  2699 TIP3 H2   HT     0.417000        1.0080           0
    8219 WT1  2700 TIP3 OH2  OT    -0.834000       15.9994           0
    8220 WT1  2700 TIP3 H1   HT     0.417000        1.0080           0
    8221 WT1  2700 TIP3 H2   HT     0.417000        1.0080           0
    8222 WT1  2702 TIP3 OH2  OT    -0.834000       15.9994           0
    8223 WT1  2702 TIP3 H1   HT     0.417000        1.0080           0
    8224 WT1  2702 TIP3 H2   HT     0.417000        1.0080           0
    8225 WT1  2703 TIP3 OH2  OT    -0.834000       15.9994           0
    8226 WT1  2703 TIP3 H1   HT     0.417000        1.0080           0
    8227 WT1  2703 TIP3 H2   HT     0.417000        1.0080           0
    8228 WT1  2704 TIP3 OH2  OT    -0.834000       15.9994           0
    8229 WT1  2704 TIP3 H1   HT     0.417000        1.0080           0
    8230 WT1  2704 TIP3 H2   HT     0.417000        1.0080           0
    8231 WT1  2705 TIP3 OH2  OT    -0.834000       15.9994           0
    8232 WT1  2705 TIP3 H1   HT     0.417000        1.0080           0
    8233 WT1  2705 TIP3 H2   HT     0.417000        1.0080           0
    8234 WT1  2706 TIP3 OH2  OT    -0.834000       15.9994           0
    8235 WT1  2706 TIP3 H1   HT     0.417000        1.0080           0
    8236 WT1  2706 TIP3 H2   HT     0.417000        1.0080           0
    8237 WT1  2707 TIP3 OH2  OT    -0.834000       15.9994           0
    8238 WT1  2707 TIP3 H1   HT     0.417000        1.0080           0
    8239 WT1  2707 TIP3 H2   HT     0.417000        1.0080           0
    8240 WT1  2709 TIP3 OH2  OT    -0.834000       15.9994           0
    8241 WT1  2709 TIP3 H1   HT     0.417000        1.0080           0
    8242 WT1  2709 TIP3 H2   HT     0.417000        1.0080           0
    8243 WT1  2710 TIP3 OH2  OT    -0.834000       15.9994           0
    8244 WT1  2710 TIP3 H1   HT     0.417000        1.0080           0
    8245 WT1  2710 TIP3 H2   HT     0.417000        1.0080           0
    8246 WT1  2711 TIP3 OH2  OT    -0.834000       15.9994           0
    8247 WT1  2711 TIP3 H1   HT     0.417000        1.0080           0
    8248 WT1  2711 TIP3 H2   HT     0.417000        1.0080           0
    8249 WT1  2712 TIP3 OH2  OT    -0.834000       15.9994           0
    8250 WT1  2712 TIP3 H1   HT     0.417000        1.0080           0
    8251 WT1  2712 TIP3 H2   HT     0.417000        1.0080           0
    8252 WT1  2713 TIP3 OH2  OT    -0.834000       15.9994           0
    8253 WT1  2713 TIP3 H1   HT     0.417000        1.0080           0
    8254 WT1  2713 TIP3 H2   HT     0.417000        1.0080           0
    8255 WT1  2714 TIP3 OH2  OT    -0.834000       15.9994           0
    8256 WT1  2714 TIP3 H1   HT     0.417000        1.0080           0
    8257 WT1  2714 TIP3 H2   HT     0.417000        1.0080           0
    8258 WT1  2715 TIP3 OH2  OT    -0.834000       15.9994           0
    8259 WT1  2715 TIP3 H1   HT     0.417000        1.0080           0
    8260 WT1  2715 TIP3 H2   HT     0.417000        1.0080           0
    8261 WT1  2716 TIP3 OH2  OT    -0.834000       15.9994           0
    8262 WT1  2716 TIP3 H1   HT     0.417000        1.0080           0
    8263 WT1  2716 TIP3 H2   HT     0.417000        1.0080           0
    8264 WT1  2717 TIP3 OH2  OT    -0.834000       15.9994           0
    8265 WT1  2717 TIP3 H1   HT     0.417000        1.0080           0
    8266 WT1  2717 TIP3 H2   HT     0.417000        1.0080           0
    8267 WT1  2718 TIP3 OH2  OT    -0.834000       15.9994           0
    8268 WT1  2718 TIP3 H1   HT     0.417000        1.0080           0
    8269 WT1  2718 TIP3 H2   HT     0.417000        1.0080           0
    8270 WT1  2719 TIP3 OH2  OT    -0.834000       15.9994           0
    8271 WT1  2719 TIP3 H1   HT     0.417000        1.0080           0
    8272 WT1  2719 TIP3 H2   HT     0.417000        1.0080           0
    8273 WT1  2720 TIP3 OH2  OT    -0.834000       15.9994           0
    8274 WT1  2720 TIP3 H1   HT     0.417000        1.0080           0
    8275 WT1  2720 TIP3 H2   HT     0.417000        1.0080           0
    8276 WT1  2721 TIP3 OH2  OT    -0.834000       15.9994           0
    8277 WT1  2721 TIP3 H1   HT     0.417000        1.0080           0
    8278 WT1  2721 TIP3 H2   HT     0.417000        1.0080           0
    8279 WT1  2723 TIP3 OH2  OT    -0.834000       15.9994           0
    8280 WT1  2723 TIP3 H1   HT     0.417000        1.0080           0
    8281 WT1  2723 TIP3 H2   HT     0.417000        1.0080           0
    8282 WT1  2724 TIP3 OH2  OT    -0.834000       15.9994           0
    8283 WT1  2724 TIP3 H1   HT     0.417000        1.0080           0
    8284 WT1  2724 TIP3 H2   HT     0.417000        1.0080           0
    8285 WT1  2725 TIP3 OH2  OT    -0.834000       15.9994           0
    8286 WT1  2725 TIP3 H1   HT     0.417000        1.0080           0
    8287 WT1  2725 TIP3 H2   HT     0.417000        1.0080           0
    8288 WT1  2726 TIP3 OH2  OT    -0.834000       15.9994           0
    8289 WT1  2726 TIP3 H1   HT     0.417000        1.0080           0
    8290 WT1  2726 TIP3 H2   HT     0.417000        1.0080           0
    8291 WT1  2727 TIP3 OH2  OT    -0.834000       15.9994           0
    8292 WT1  2727 TIP3 H1   HT     0.417000        1.0080           0
    8293 WT1  2727 TIP3 H2   HT     0.417000        1.0080           0
    8294 WT1  2728 TIP3 OH2  OT    -0.834000       15.9994           0
    8295 WT1  2728 TIP3 H1   HT     0.417000        1.0080           0
    8296 WT1  2728 TIP3 H2   HT     0.417000        1.0080           0
    8297 WT1  2729 TIP3 OH2  OT    -0.834000       15.9994           0
    8298 WT1  2729 TIP3 H1   HT     0.417000        1.0080           0
    8299 WT1  2729 TIP3 H2   HT     0.417000        1.0080           0
    8300 WT1  2730 TIP3 OH2  OT    -0.834000       15.9994           0
    8301 WT1  2730 TIP3 H1   HT     0.417000        1.0080           0
    8302 WT1  2730 TIP3 H2   HT     0.417000        1.0080           0
    8303 WT1  2731 TIP3 OH2  OT    -0.834000       15.9994           0
    8304 WT1  2731 TIP3 H1   HT     0.417000        1.0080           0
    8305 WT1  2731 TIP3 H2   HT     0.417000        1.0080           0
    8306 WT1  2732 TIP3 OH2  OT    -0.834000       15.9994           0
    8307 WT1  2732 TIP3 H1   HT     0.417000        1.0080           0
    8308 WT1  2732 TIP3 H2   HT     0.417000        1.0080           0
    8309 WT1  2733 TIP3 OH2  OT    -0.834000       15.9994           0
    8310 WT1  2733 TIP3 H1   HT     0.417000        1.0080           0
    8311 WT1  2733 TIP3 H2   HT     0.417000        1.0080           0
    8312 WT1  2734 TIP3 OH2  OT    -0.834000       15.9994           0
    8313 WT1  2734 TIP3 H1   HT     0.417000        1.0080           0
    8314 WT1  2734 TIP3 H2   HT     0.417000        1.0080           0
    8315 WT1  2736 TIP3 OH2  OT    -0.834000       15.9994           0
    8316 WT1  2736 TIP3 H1   HT     0.417000        1.0080           0
    8317 WT1  2736 TIP3 H2   HT     0.417000        1.0080           0
    8318 WT1  2737 TIP3 OH2  OT    -0.834000       15.9994           0
    8319 WT1  2737 TIP3 H1   HT     0.417000        1.0080           0
    8320 WT1  2737 TIP3 H2   HT     0.417000        1.0080           0
    8321 WT1  2738 TIP3 OH2  OT    -0.834000       15.9994           0
    8322 WT1  2738 TIP3 H1   HT     0.417000        1.0080           0
    8323 WT1  2738 TIP3 H2   HT     0.417000        1.0080           0
    8324 WT1  2740 TIP3 OH2  OT    -0.834000       15.9994           0
    8325 WT1  2740 TIP3 H1   HT     0.417000        1.0080           0
    8326 WT1  2740 TIP3 H2   HT     0.417000        1.0080           0
    8327 WT1  2741 TIP3 OH2  OT    -0.834000       15.9994           0
    8328 WT1  2741 TIP3 H1   HT     0.417000        1.0080           0
    8329 WT1  2741 TIP3 H2   HT     0.417000        1.0080           0
    8330 WT1  2742 TIP3 OH2  OT    -0.834000       15.9994           0
    8331 WT1  2742 TIP3 H1   HT     0.417000        1.0080           0
    8332 WT1  2742 TIP3 H2   HT     0.417000        1.0080           0
    8333 WT1  2743 TIP3 OH2  OT    -0.834000       15.9994           0
    8334 WT1  2743 TIP3 H1   HT     0.417000        1.0080           0
    8335 WT1  2743 TIP3 H2   HT     0.417000        1.0080           0
    8336 WT1  2745 TIP3 OH2  OT    -0.834000       15.9994           0
    8337 WT1  2745 TIP3 H1   HT     0.417000        1.0080           0
    8338 WT1  2745 TIP3 H2   HT     0.417000        1.0080           0
    8339 WT1  2746 TIP3 OH2  OT    -0.834000       15.9994           0
    8340 WT1  2746 TIP3 H1   HT     0.417000        1.0080           0
    8341 WT1  2746 TIP3 H2   HT     0.417000        1.0080           0
    8342 WT1  2747 TIP3 OH2  OT    -0.834000       15.9994           0
    8343 WT1  2747 TIP3 H1   HT     0.417000        1.0080           0
    8344 WT1  2747 TIP3 H2   HT     0.417000        1.0080           0
    8345 WT1  2748 TIP3 OH2  OT    -0.834000       15.9994           0
    8346 WT1  2748 TIP3 H1   HT     0.417000        1.0080           0
    8347 WT1  2748 TIP3 H2   HT     0.417000        1.0080           0
    8348 WT1  2749 TIP3 OH2  OT    -0.834000       15.9994           0
    8349 WT1  2749 TIP3 H1   HT     0.417000        1.0080           0
    8350 WT1  2749 TIP3 H2   HT     0.417000        1.0080           0
    8351 WT1  2750 TIP3 OH2  OT    -0.834000       15.9994           0
    8352 WT1  2750 TIP3 H1   HT     0.417000        1.0080           0
    8353 WT1  2750 TIP3 H2   HT     0.417000        1.0080           0
    8354 WT1  2752 TIP3 OH2  OT    -0.834000       15.9994           0
    8355 WT1  2752 TIP3 H1   HT     0.417000        1.0080           0
    8356 WT1  2752 TIP3 H2   HT     0.417000        1.0080           0
    8357 WT1  2753 TIP3 OH2  OT    -0.834000       15.9994           0
    8358 WT1  2753 TIP3 H1   HT     0.417000        1.0080           0
    8359 WT1  2753 TIP3 H2   HT     0.417000        1.0080           0
    8360 WT1  2754 TIP3 OH2  OT    -0.834000       15.9994           0
    8361 WT1  2754 TIP3 H1   HT     0.417000        1.0080           0
    8362 WT1  2754 TIP3 H2   HT     0.417000        1.0080           0
    8363 WT1  2755 TIP3 OH2  OT    -0.834000       15.9994           0
    8364 WT1  2755 TIP3 H1   HT     0.417000        1.0080           0
    8365 WT1  2755 TIP3 H2   HT     0.417000        1.0080           0
    8366 WT1  2756 TIP3 OH2  OT    -0.834000       15.9994           0
    8367 WT1  2756 TIP3 H1   HT     0.417000        1.0080           0
    8368 WT1  2756 TIP3 H2   HT     0.417000        1.0080           0
    8369 WT1  2757 TIP3 OH2  OT    -0.834000       15.9994           0
    8370 WT1  2757 TIP3 H1   HT     0.417000        1.0080           0
    8371 WT1  2757 TIP3 H2   HT     0.417000        1.0080           0
    8372 WT1  2758 TIP3 OH2  OT    -0.834000       15.9994           0
    8373 WT1  2758 TIP3 H1   HT     0.417000        1.0080           0
    8374 WT1  2758 TIP3 H2   HT     0.417000        1.0080           0
    8375 WT1  2760 TIP3 OH2  OT    -0.834000       15.9994           0
    8376 WT1  2760 TIP3 H1   HT     0.417000        1.0080           0
    8377 WT1  2760 TIP3 H2   HT     0.417000        1.0080           0
    8378 WT1  2761 TIP3 OH2  OT    -0.834000       15.9994           0
    8379 WT1  2761 TIP3 H1   HT     0.417000        1.0080           0
    8380 WT1  2761 TIP3 H2   HT     0.417000        1.0080           0
    8381 WT1  2762 TIP3 OH2  OT    -0.834000       15.9994           0
    8382 WT1  2762 TIP3 H1   HT     0.417000        1.0080           0
    8383 WT1  2762 TIP3 H2   HT     0.417000        1.0080           0
    8384 WT1  2763 TIP3 OH2  OT    -0.834000       15.9994           0
    8385 WT1  2763 TIP3 H1   HT     0.417000        1.0080           0
    8386 WT1  2763 TIP3 H2   HT     0.417000        1.0080           0
    8387 WT1  2764 TIP3 OH2  OT    -0.834000       15.9994           0
    8388 WT1  2764 TIP3 H1   HT     0.417000        1.0080           0
    8389 WT1  2764 TIP3 H2   HT     0.417000        1.0080           0
    8390 WT1  2765 TIP3 OH2  OT    -0.834000       15.9994           0
    8391 WT1  2765 TIP3 H1   HT     0.417000        1.0080           0
    8392 WT1  2765 TIP3 H2   HT     0.417000        1.0080           0
    8393 WT1  2766 TIP3 OH2  OT    -0.834000       15.9994           0
    8394 WT1  2766 TIP3 H1   HT     0.417000        1.0080           0
    8395 WT1  2766 TIP3 H2   HT     0.417000        1.0080           0
    8396 WT1  2767 TIP3 OH2  OT    -0.834000       15.9994           0
    8397 WT1  2767 TIP3 H1   HT     0.417000        1.0080           0
    8398 WT1  2767 TIP3 H2   HT     0.417000        1.0080           0
    8399 WT1  2768 TIP3 OH2  OT    -0.834000       15.9994           0
    8400 WT1  2768 TIP3 H1   HT     0.417000        1.0080           0
    8401 WT1  2768 TIP3 H2   HT     0.417000        1.0080           0
    8402 WT1  2769 TIP3 OH2  OT    -0.834000       15.9994           0
    8403 WT1  2769 TIP3 H1   HT     0.417000        1.0080           0
    8404 WT1  2769 TIP3 H2   HT     0.417000        1.0080           0
    8405 WT1  2770 TIP3 OH2  OT    -0.834000       15.9994           0
    8406 WT1  2770 TIP3 H1   HT     0.417000        1.0080           0
    8407 WT1  2770 TIP3 H2   HT     0.417000        1.0080           0
    8408 WT1  2771 TIP3 OH2  OT    -0.834000       15.9994           0
    8409 WT1  2771 TIP3 H1   HT     0.417000        1.0080           0
    8410 WT1  2771 TIP3 H2   HT     0.417000        1.0080           0
    8411 WT1  2772 TIP3 OH2  OT    -0.834000       15.9994           0
    8412 WT1  2772 TIP3 H1   HT     0.417000        1.0080           0
    8413 WT1  2772 TIP3 H2   HT     0.417000        1.0080           0
    8414 WT1  2774 TIP3 OH2  OT    -0.834000       15.9994           0
    8415 WT1  2774 TIP3 H1   HT     0.417000        1.0080           0
    8416 WT1  2774 TIP3 H2   HT     0.417000        1.0080           0
    8417 WT1  2775 TIP3 OH2  OT    -0.834000       15.9994           0
    8418 WT1  2775 TIP3 H1   HT     0.417000        1.0080           0
    8419 WT1  2775 TIP3 H2   HT     0.417000        1.0080           0
    8420 WT1  2776 TIP3 OH2  OT    -0.834000       15.9994           0
    8421 WT1  2776 TIP3 H1   HT     0.417000        1.0080           0
    8422 WT1  2776 TIP3 H2   HT     0.417000        1.0080           0
    8423 WT1  2777 TIP3 OH2  OT    -0.834000       15.9994           0
    8424 WT1  2777 TIP3 H1   HT     0.417000        1.0080           0
    8425 WT1  2777 TIP3 H2   HT     0.417000        1.0080           0
    8426 WT1  2778 TIP3 OH2  OT    -0.834000       15.9994           0
    8427 WT1  2778 TIP3 H1   HT     0.417000        1.0080           0
    8428 WT1  2778 TIP3 H2   HT     0.417000        1.0080           0
    8429 WT1  2779 TIP3 OH2  OT    -0.834000       15.9994           0
    8430 WT1  2779 TIP3 H1   HT     0.417000        1.0080           0
    8431 WT1  2779 TIP3 H2   HT     0.417000        1.0080           0
    8432 WT1  2780 TIP3 OH2  OT    -0.834000       15.9994           0
    8433 WT1  2780 TIP3 H1   HT     0.417000        1.0080           0
    8434 WT1  2780 TIP3 H2   HT     0.417000        1.0080           0
    8435 WT1  2781 TIP3 OH2  OT    -0.834000       15.9994           0
    8436 WT1  2781 TIP3 H1   HT     0.417000        1.0080           0
    8437 WT1  2781 TIP3 H2   HT     0.417000        1.0080           0
    8438 WT1  2783 TIP3 OH2  OT    -0.834000       15.9994           0
    8439 WT1  2783 TIP3 H1   HT     0.417000        1.0080           0
    8440 WT1  2783 TIP3 H2   HT     0.417000        1.0080           0
    8441 WT1  2784 TIP3 OH2  OT    -0.834000       15.9994           0
    8442 WT1  2784 TIP3 H1   HT     0.417000        1.0080           0
    8443 WT1  2784 TIP3 H2   HT     0.417000        1.0080           0
    8444 WT1  2785 TIP3 OH2  OT    -0.834000       15.9994           0
    8445 WT1  2785 TIP3 H1   HT     0.417000        1.0080           0
    8446 WT1  2785 TIP3 H2   HT     0.417000        1.0080           0
    8447 WT1  2786 TIP3 OH2  OT    -0.834000       15.9994           0
    8448 WT1  2786 TIP3 H1   HT     0.417000        1.0080           0
    8449 WT1  2786 TIP3 H2   HT     0.417000        1.0080           0
    8450 WT1  2788 TIP3 OH2  OT    -0.834000       15.9994           0
    8451 WT1  2788 TIP3 H1   HT     0.417000        1.0080           0
    8452 WT1  2788 TIP3 H2   HT     0.417000        1.0080           0
    8453 WT1  2790 TIP3 OH2  OT    -0.834000       15.9994           0
    8454 WT1  2790 TIP3 H1   HT     0.417000        1.0080           0
    8455 WT1  2790 TIP3 H2   HT     0.417000        1.0080           0
    8456 WT1  2791 TIP3 OH2  OT    -0.834000       15.9994           0
    8457 WT1  2791 TIP3 H1   HT     0.417000        1.0080           0
    8458 WT1  2791 TIP3 H2   HT     0.417000        1.0080           0
    8459 WT1  2792 TIP3 OH2  OT    -0.834000       15.9994           0
    8460 WT1  2792 TIP3 H1   HT     0.417000        1.0080           0
    8461 WT1  2792 TIP3 H2   HT     0.417000        1.0080           0
    8462 WT1  2795 TIP3 OH2  OT    -0.834000       15.9994           0
    8463 WT1  2795 TIP3 H1   HT     0.417000        1.0080           0
    8464 WT1  2795 TIP3 H2   HT     0.417000        1.0080           0
    8465 WT1  2796 TIP3 OH2  OT    -0.834000       15.9994           0
    8466 WT1  2796 TIP3 H1   HT     0.417000        1.0080           0
    8467 WT1  2796 TIP3 H2   HT     0.417000        1.0080           0
    8468 WT1  2797 TIP3 OH2  OT    -0.834000       15.9994           0
    8469 WT1  2797 TIP3 H1   HT     0.417000        1.0080           0
    8470 WT1  2797 TIP3 H2   HT     0.417000        1.0080           0
    8471 WT1  2798 TIP3 OH2  OT    -0.834000       15.9994           0
    8472 WT1  2798 TIP3 H1   HT     0.417000        1.0080           0
    8473 WT1  2798 TIP3 H2   HT     0.417000        1.0080           0
    8474 WT1  2800 TIP3 OH2  OT    -0.834000       15.9994           0
    8475 WT1  2800 TIP3 H1   HT     0.417000        1.0080           0
    8476 WT1  2800 TIP3 H2   HT     0.417000        1.0080           0
    8477 WT1  2801 TIP3 OH2  OT    -0.834000       15.9994           0
    8478 WT1  2801 TIP3 H1   HT     0.417000        1.0080           0
    8479 WT1  2801 TIP3 H2   HT     0.417000        1.0080           0
    8480 WT1  2802 TIP3 OH2  OT    -0.834000       15.9994           0
    8481 WT1  2802 TIP3 H1   HT     0.417000        1.0080           0
    8482 WT1  2802 TIP3 H2   HT     0.417000        1.0080           0
    8483 WT1  2804 TIP3 OH2  OT    -0.834000       15.9994           0
    8484 WT1  2804 TIP3 H1   HT     0.417000        1.0080           0
    8485 WT1  2804 TIP3 H2   HT     0.417000        1.0080           0
    8486 WT1  2805 TIP3 OH2  OT    -0.834000       15.9994           0
    8487 WT1  2805 TIP3 H1   HT     0.417000        1.0080           0
    8488 WT1  2805 TIP3 H2   HT     0.417000        1.0080           0
    8489 WT1  2806 TIP3 OH2  OT    -0.834000       15.9994           0
    8490 WT1  2806 TIP3 H1   HT     0.417000        1.0080           0
    8491 WT1  2806 TIP3 H2   HT     0.417000        1.0080           0
    8492 WT1  2808 TIP3 OH2  OT    -0.834000       15.9994           0
    8493 WT1  2808 TIP3 H1   HT     0.417000        1.0080           0
    8494 WT1  2808 TIP3 H2   HT     0.417000        1.0080           0
    8495 WT1  2809 TIP3 OH2  OT    -0.834000       15.9994           0
    8496 WT1  2809 TIP3 H1   HT     0.417000        1.0080           0
    8497 WT1  2809 TIP3 H2   HT     0.417000        1.0080           0
    8498 WT1  2811 TIP3 OH2  OT    -0.834000       15.9994           0
    8499 WT1  2811 TIP3 H1   HT     0.417000        1.0080           0
    8500 WT1  2811 TIP3 H2   HT     0.417000        1.0080           0
    8501 WT1  2812 TIP3 OH2  OT    -0.834000       15.9994           0
    8502 WT1  2812 TIP3 H1   HT     0.417000        1.0080           0
    8503 WT1  2812 TIP3 H2   HT     0.417000        1.0080           0
    8504 WT1  2813 TIP3 OH2  OT    -0.834000       15.9994           0
    8505 WT1  2813 TIP3 H1   HT     0.417000        1.0080           0
    8506 WT1  2813 TIP3 H2   HT     0.417000        1.0080           0
    8507 WT1  2814 TIP3 OH2  OT    -0.834000       15.9994           0
    8508 WT1  2814 TIP3 H1   HT     0.417000        1.0080           0
    8509 WT1  2814 TIP3 H2   HT     0.417000        1.0080           0
    8510 WT1  2816 TIP3 OH2  OT    -0.834000       15.9994           0
    8511 WT1  2816 TIP3 H1   HT     0.417000        1.0080           0
    8512 WT1  2816 TIP3 H2   HT     0.417000        1.0080           0
    8513 WT1  2817 TIP3 OH2  OT    -0.834000       15.9994           0
    8514 WT1  2817 TIP3 H1   HT     0.417000        1.0080           0
    8515 WT1  2817 TIP3 H2   HT     0.417000        1.0080           0
    8516 WT1  2818 TIP3 OH2  OT    -0.834000       15.9994           0
    8517 WT1  2818 TIP3 H1   HT     0.417000        1.0080           0
    8518 WT1  2818 TIP3 H2   HT     0.417000        1.0080           0
    8519 WT1  2819 TIP3 OH2  OT    -0.834000       15.9994           0
    8520 WT1  2819 TIP3 H1   HT     0.417000        1.0080           0
    8521 WT1  2819 TIP3 H2   HT     0.417000        1.0080           0
    8522 WT1  2820 TIP3 OH2  OT    -0.834000       15.9994           0
    8523 WT1  2820 TIP3 H1   HT     0.417000        1.0080           0
    8524 WT1  2820 TIP3 H2   HT     0.417000        1.0080           0
    8525 WT1  2821 TIP3 OH2  OT    -0.834000       15.9994           0
    8526 WT1  2821 TIP3 H1   HT     0.417000        1.0080           0
    8527 WT1  2821 TIP3 H2   HT     0.417000        1.0080           0
    8528 WT1  2822 TIP3 OH2  OT    -0.834000       15.9994           0
    8529 WT1  2822 TIP3 H1   HT     0.417000        1.0080           0
    8530 WT1  2822 TIP3 H2   HT     0.417000        1.0080           0
    8531 WT1  2823 TIP3 OH2  OT    -0.834000       15.9994           0
    8532 WT1  2823 TIP3 H1   HT     0.417000        1.0080           0
    8533 WT1  2823 TIP3 H2   HT     0.417000        1.0080           0
    8534 WT1  2824 TIP3 OH2  OT    -0.834000       15.9994           0
    8535 WT1  2824 TIP3 H1   HT     0.417000        1.0080           0
    8536 WT1  2824 TIP3 H2   HT     0.417000        1.0080           0
    8537 WT1  2826 TIP3 OH2  OT    -0.834000       15.9994           0
    8538 WT1  2826 TIP3 H1   HT     0.417000        1.0080           0
    8539 WT1  2826 TIP3 H2   HT     0.417000        1.0080           0
    8540 WT1  2827 TIP3 OH2  OT    -0.834000       15.9994           0
    8541 WT1  2827 TIP3 H1   HT     0.417000        1.0080           0
    8542 WT1  2827 TIP3 H2   HT     0.417000        1.0080           0
    8543 WT1  2828 TIP3 OH2  OT    -0.834000       15.9994           0
    8544 WT1  2828 TIP3 H1   HT     0.417000        1.0080           0
    8545 WT1  2828 TIP3 H2   HT     0.417000        1.0080           0
    8546 WT1  2829 TIP3 OH2  OT    -0.834000       15.9994           0
    8547 WT1  2829 TIP3 H1   HT     0.417000        1.0080           0
    8548 WT1  2829 TIP3 H2   HT     0.417000        1.0080           0
    8549 WT1  2830 TIP3 OH2  OT    -0.834000       15.9994           0
    8550 WT1  2830 TIP3 H1   HT     0.417000        1.0080           0
    8551 WT1  2830 TIP3 H2   HT     0.417000        1.0080           0
    8552 WT1  2832 TIP3 OH2  OT    -0.834000       15.9994           0
    8553 WT1  2832 TIP3 H1   HT     0.417000        1.0080           0
    8554 WT1  2832 TIP3 H2   HT     0.417000        1.0080           0
    8555 WT1  2833 TIP3 OH2  OT    -0.834000       15.9994           0
    8556 WT1  2833 TIP3 H1   HT     0.417000        1.0080           0
    8557 WT1  2833 TIP3 H2   HT     0.417000        1.0080           0
    8558 WT1  2834 TIP3 OH2  OT    -0.834000       15.9994           0
    8559 WT1  2834 TIP3 H1   HT     0.417000        1.0080           0
    8560 WT1  2834 TIP3 H2   HT     0.417000        1.0080           0
    8561 WT1  2835 TIP3 OH2  OT    -0.834000       15.9994           0
    8562 WT1  2835 TIP3 H1   HT     0.417000        1.0080           0
    8563 WT1  2835 TIP3 H2   HT     0.417000        1.0080           0
    8564 WT1  2836 TIP3 OH2  OT    -0.834000       15.9994           0
    8565 WT1  2836 TIP3 H1   HT     0.417000        1.0080           0
    8566 WT1  2836 TIP3 H2   HT     0.417000        1.0080           0
    8567 WT1  2837 TIP3 OH2  OT    -0.834000       15.9994           0
    8568 WT1  2837 TIP3 H1   HT     0.417000        1.0080           0
    8569 WT1  2837 TIP3 H2   HT     0.417000        1.0080           0
    8570 WT1  2838 TIP3 OH2  OT    -0.834000       15.9994           0
    8571 WT1  2838 TIP3 H1   HT     0.417000        1.0080           0
    8572 WT1  2838 TIP3 H2   HT     0.417000        1.0080           0
    8573 WT1  2839 TIP3 OH2  OT    -0.834000       15.9994           0
    8574 WT1  2839 TIP3 H1   HT     0.417000        1.0080           0
    8575 WT1  2839 TIP3 H2   HT     0.417000        1.0080           0
    8576 WT1  2840 TIP3 OH2  OT    -0.834000       15.9994           0
    8577 WT1  2840 TIP3 H1   HT     0.417000        1.0080           0
    8578 WT1  2840 TIP3 H2   HT     0.417000        1.0080           0
    8579 WT1  2841 TIP3 OH2  OT    -0.834000       15.9994           0
    8580 WT1  2841 TIP3 H1   HT     0.417000        1.0080           0
    8581 WT1  2841 TIP3 H2   HT     0.417000        1.0080           0
    8582 WT1  2842 TIP3 OH2  OT    -0.834000       15.9994           0
    8583 WT1  2842 TIP3 H1   HT     0.417000        1.0080           0
    8584 WT1  2842 TIP3 H2   HT     0.417000        1.0080           0
    8585 WT1  2843 TIP3 OH2  OT    -0.834000       15.9994           0
    8586 WT1  2843 TIP3 H1   HT     0.417000        1.0080           0
    8587 WT1  2843 TIP3 H2   HT     0.417000        1.0080           0
    8588 WT1  2844 TIP3 OH2  OT    -0.834000       15.9994           0
    8589 WT1  2844 TIP3 H1   HT     0.417000        1.0080           0
    8590 WT1  2844 TIP3 H2   HT     0.417000        1.0080           0
    8591 WT1  2845 TIP3 OH2  OT    -0.834000       15.9994           0
    8592 WT1  2845 TIP3 H1   HT     0.417000        1.0080           0
    8593 WT1  2845 TIP3 H2   HT     0.417000        1.0080           0
    8594 WT1  2846 TIP3 OH2  OT    -0.834000       15.9994           0
    8595 WT1  2846 TIP3 H1   HT     0.417000        1.0080           0
    8596 WT1  2846 TIP3 H2   HT     0.417000        1.0080           0
    8597 WT1  2847 TIP3 OH2  OT    -0.834000       15.9994           0
    8598 WT1  2847 TIP3 H1   HT     0.417000        1.0080           0
    8599 WT1  2847 TIP3 H2   HT     0.417000        1.0080           0
    8600 WT1  2849 TIP3 OH2  OT    -0.834000       15.9994           0
    8601 WT1  2849 TIP3 H1   HT     0.417000        1.0080           0
    8602 WT1  2849 TIP3 H2   HT     0.417000        1.0080           0
    8603 WT1  2851 TIP3 OH2  OT    -0.834000       15.9994           0
    8604 WT1  2851 TIP3 H1   HT     0.417000        1.0080           0
    8605 WT1  2851 TIP3 H2   HT     0.417000        1.0080           0
    8606 WT1  2852 TIP3 OH2  OT    -0.834000       15.9994           0
    8607 WT1  2852 TIP3 H1   HT     0.417000        1.0080           0
    8608 WT1  2852 TIP3 H2   HT     0.417000        1.0080           0
    8609 WT1  2853 TIP3 OH2  OT    -0.834000       15.9994           0
    8610 WT1  2853 TIP3 H1   HT     0.417000        1.0080           0
    8611 WT1  2853 TIP3 H2   HT     0.417000        1.0080           0
    8612 WT1  2854 TIP3 OH2  OT    -0.834000       15.9994           0
    8613 WT1  2854 TIP3 H1   HT     0.417000        1.0080           0
    8614 WT1  2854 TIP3 H2   HT     0.417000        1.0080           0
    8615 WT1  2855 TIP3 OH2  OT    -0.834000       15.9994           0
    8616 WT1  2855 TIP3 H1   HT     0.417000        1.0080           0
    8617 WT1  2855 TIP3 H2   HT     0.417000        1.0080           0
    8618 WT1  2856 TIP3 OH2  OT    -0.834000       15.9994           0
    8619 WT1  2856 TIP3 H1   HT     0.417000        1.0080           0
    8620 WT1  2856 TIP3 H2   HT     0.417000        1.0080           0
    8621 WT1  2857 TIP3 OH2  OT    -0.834000       15.9994           0
    8622 WT1  2857 TIP3 H1   HT     0.417000        1.0080           0
    8623 WT1  2857 TIP3 H2   HT     0.417000        1.0080           0
    8624 WT1  2859 TIP3 OH2  OT    -0.834000       15.9994           0
    8625 WT1  2859 TIP3 H1   HT     0.417000        1.0080           0
    8626 WT1  2859 TIP3 H2   HT     0.417000        1.0080           0
    8627 WT1  2860 TIP3 OH2  OT    -0.834000       15.9994           0
    8628 WT1  2860 TIP3 H1   HT     0.417000        1.0080           0
    8629 WT1  2860 TIP3 H2   HT     0.417000        1.0080           0
    8630 WT1  2861 TIP3 OH2  OT    -0.834000       15.9994           0
    8631 WT1  2861 TIP3 H1   HT     0.417000        1.0080           0
    8632 WT1  2861 TIP3 H2   HT     0.417000        1.0080           0
    8633 WT1  2862 TIP3 OH2  OT    -0.834000       15.9994           0
    8634 WT1  2862 TIP3 H1   HT     0.417000        1.0080           0
    8635 WT1  2862 TIP3 H2   HT     0.417000        1.0080           0
    8636 WT1  2863 TIP3 OH2  OT    -0.834000       15.9994           0
    8637 WT1  2863 TIP3 H1   HT     0.417000        1.0080           0
    8638 WT1  2863 TIP3 H2   HT     0.417000        1.0080           0
    8639 WT1  2864 TIP3 OH2  OT    -0.834000       15.9994           0
    8640 WT1  2864 TIP3 H1   HT     0.417000        1.0080           0
    8641 WT1  2864 TIP3 H2   HT     0.417000        1.0080           0
    8642 WT1  2865 TIP3 OH2  OT    -0.834000       15.9994           0
    8643 WT1  2865 TIP3 H1   HT     0.417000        1.0080           0
    8644 WT1  2865 TIP3 H2   HT     0.417000        1.0080           0
    8645 WT1  2866 TIP3 OH2  OT    -0.834000       15.9994           0
    8646 WT1  2866 TIP3 H1   HT     0.417000        1.0080           0
    8647 WT1  2866 TIP3 H2   HT     0.417000        1.0080           0
    8648 WT1  2868 TIP3 OH2  OT    -0.834000       15.9994           0
    8649 WT1  2868 TIP3 H1   HT     0.417000        1.0080           0
    8650 WT1  2868 TIP3 H2   HT     0.417000        1.0080           0
    8651 WT1  2869 TIP3 OH2  OT    -0.834000       15.9994           0
    8652 WT1  2869 TIP3 H1   HT     0.417000        1.0080           0
    8653 WT1  2869 TIP3 H2   HT     0.417000        1.0080           0
    8654 WT1  2871 TIP3 OH2  OT    -0.834000       15.9994           0
    8655 WT1  2871 TIP3 H1   HT     0.417000        1.0080           0
    8656 WT1  2871 TIP3 H2   HT     0.417000        1.0080           0
    8657 WT1  2872 TIP3 OH2  OT    -0.834000       15.9994           0
    8658 WT1  2872 TIP3 H1   HT     0.417000        1.0080           0
    8659 WT1  2872 TIP3 H2   HT     0.417000        1.0080           0
    8660 WT1  2873 TIP3 OH2  OT    -0.834000       15.9994           0
    8661 WT1  2873 TIP3 H1   HT     0.417000        1.0080           0
    8662 WT1  2873 TIP3 H2   HT     0.417000        1.0080           0
    8663 WT1  2874 TIP3 OH2  OT    -0.834000       15.9994           0
    8664 WT1  2874 TIP3 H1   HT     0.417000        1.0080           0
    8665 WT1  2874 TIP3 H2   HT     0.417000        1.0080           0
    8666 WT1  2875 TIP3 OH2  OT    -0.834000       15.9994           0
    8667 WT1  2875 TIP3 H1   HT     0.417000        1.0080           0
    8668 WT1  2875 TIP3 H2   HT     0.417000        1.0080           0
    8669 WT1  2876 TIP3 OH2  OT    -0.834000       15.9994           0
    8670 WT1  2876 TIP3 H1   HT     0.417000        1.0080           0
    8671 WT1  2876 TIP3 H2   HT     0.417000        1.0080           0
    8672 WT1  2877 TIP3 OH2  OT    -0.834000       15.9994           0
    8673 WT1  2877 TIP3 H1   HT     0.417000        1.0080           0
    8674 WT1  2877 TIP3 H2   HT     0.417000        1.0080           0
    8675 WT1  2879 TIP3 OH2  OT    -0.834000       15.9994           0
    8676 WT1  2879 TIP3 H1   HT     0.417000        1.0080           0
    8677 WT1  2879 TIP3 H2   HT     0.417000        1.0080           0
    8678 WT1  2880 TIP3 OH2  OT    -0.834000       15.9994           0
    8679 WT1  2880 TIP3 H1   HT     0.417000        1.0080           0
    8680 WT1  2880 TIP3 H2   HT     0.417000        1.0080           0
    8681 WT1  2881 TIP3 OH2  OT    -0.834000       15.9994           0
    8682 WT1  2881 TIP3 H1   HT     0.417000        1.0080           0
    8683 WT1  2881 TIP3 H2   HT     0.417000        1.0080           0
    8684 WT1  2882 TIP3 OH2  OT    -0.834000       15.9994           0
    8685 WT1  2882 TIP3 H1   HT     0.417000        1.0080           0
    8686 WT1  2882 TIP3 H2   HT     0.417000        1.0080           0
    8687 WT1  2883 TIP3 OH2  OT    -0.834000       15.9994           0
    8688 WT1  2883 TIP3 H1   HT     0.417000        1.0080           0
    8689 WT1  2883 TIP3 H2   HT     0.417000        1.0080           0
    8690 WT1  2885 TIP3 OH2  OT    -0.834000       15.9994           0
    8691 WT1  2885 TIP3 H1   HT     0.417000        1.0080           0
    8692 WT1  2885 TIP3 H2   HT     0.417000        1.0080           0
    8693 WT1  2886 TIP3 OH2  OT    -0.834000       15.9994           0
    8694 WT1  2886 TIP3 H1   HT     0.417000        1.0080           0
    8695 WT1  2886 TIP3 H2   HT     0.417000        1.0080           0
    8696 WT1  2887 TIP3 OH2  OT    -0.834000       15.9994           0
    8697 WT1  2887 TIP3 H1   HT     0.417000        1.0080           0
    8698 WT1  2887 TIP3 H2   HT     0.417000        1.0080           0
    8699 WT1  2889 TIP3 OH2  OT    -0.834000       15.9994           0
    8700 WT1  2889 TIP3 H1   HT     0.417000        1.0080           0
    8701 WT1  2889 TIP3 H2   HT     0.417000        1.0080           0
    8702 WT1  2890 TIP3 OH2  OT    -0.834000       15.9994           0
    8703 WT1  2890 TIP3 H1   HT     0.417000        1.0080           0
    8704 WT1  2890 TIP3 H2   HT     0.417000        1.0080           0
    8705 WT1  2891 TIP3 OH2  OT    -0.834000       15.9994           0
    8706 WT1  2891 TIP3 H1   HT     0.417000        1.0080           0
    8707 WT1  2891 TIP3 H2   HT     0.417000        1.0080           0
    8708 WT1  2892 TIP3 OH2  OT    -0.834000       15.9994           0
    8709 WT1  2892 TIP3 H1   HT     0.417000        1.0080           0
    8710 WT1  2892 TIP3 H2   HT     0.417000        1.0080           0
    8711 WT1  2893 TIP3 OH2  OT    -0.834000       15.9994           0
    8712 WT1  2893 TIP3 H1   HT     0.417000        1.0080           0
    8713 WT1  2893 TIP3 H2   HT     0.417000        1.0080           0
    8714 WT1  2894 TIP3 OH2  OT    -0.834000       15.9994           0
    8715 WT1  2894 TIP3 H1   HT     0.417000        1.0080           0
    8716 WT1  2894 TIP3 H2   HT     0.417000        1.0080           0
    8717 WT1  2895 TIP3 OH2  OT    -0.834000       15.9994           0
    8718 WT1  2895 TIP3 H1   HT     0.417000        1.0080           0
    8719 WT1  2895 TIP3 H2   HT     0.417000        1.0080           0
    8720 WT1  2897 TIP3 OH2  OT    -0.834000       15.9994           0
    8721 WT1  2897 TIP3 H1   HT     0.417000        1.0080           0
    8722 WT1  2897 TIP3 H2   HT     0.417000        1.0080           0
    8723 WT1  2898 TIP3 OH2  OT    -0.834000       15.9994           0
    8724 WT1  2898 TIP3 H1   HT     0.417000        1.0080           0
    8725 WT1  2898 TIP3 H2   HT     0.417000        1.0080           0
    8726 WT1  2899 TIP3 OH2  OT    -0.834000       15.9994           0
    8727 WT1  2899 TIP3 H1   HT     0.417000        1.0080           0
    8728 WT1  2899 TIP3 H2   HT     0.417000        1.0080           0
    8729 WT1  2900 TIP3 OH2  OT    -0.834000       15.9994           0
    8730 WT1  2900 TIP3 H1   HT     0.417000        1.0080           0
    8731 WT1  2900 TIP3 H2   HT     0.417000        1.0080           0
    8732 WT1  2901 TIP3 OH2  OT    -0.834000       15.9994           0
    8733 WT1  2901 TIP3 H1   HT     0.417000        1.0080           0
    8734 WT1  2901 TIP3 H2   HT     0.417000        1.0080           0
    8735 WT1  2903 TIP3 OH2  OT    -0.834000       15.9994           0
    8736 WT1  2903 TIP3 H1   HT     0.417000        1.0080           0
    8737 WT1  2903 TIP3 H2   HT     0.417000        1.0080           0
    8738 WT1  2904 TIP3 OH2  OT    -0.834000       15.9994           0
    8739 WT1  2904 TIP3 H1   HT     0.417000        1.0080           0
    8740 WT1  2904 TIP3 H2   HT     0.417000        1.0080           0
    8741 WT1  2905 TIP3 OH2  OT    -0.834000       15.9994           0
    8742 WT1  2905 TIP3 H1   HT     0.417000        1.0080           0
    8743 WT1  2905 TIP3 H2   HT     0.417000        1.0080           0
    8744 WT1  2906 TIP3 OH2  OT    -0.834000       15.9994           0
    8745 WT1  2906 TIP3 H1   HT     0.417000        1.0080           0
    8746 WT1  2906 TIP3 H2   HT     0.417000        1.0080           0
    8747 WT1  2908 TIP3 OH2  OT    -0.834000       15.9994           0
    8748 WT1  2908 TIP3 H1   HT     0.417000        1.0080           0
    8749 WT1  2908 TIP3 H2   HT     0.417000        1.0080           0
    8750 WT1  2909 TIP3 OH2  OT    -0.834000       15.9994           0
    8751 WT1  2909 TIP3 H1   HT     0.417000        1.0080           0
    8752 WT1  2909 TIP3 H2   HT     0.417000        1.0080           0
    8753 WT1  2910 TIP3 OH2  OT    -0.834000       15.9994           0
    8754 WT1  2910 TIP3 H1   HT     0.417000        1.0080           0
    8755 WT1  2910 TIP3 H2   HT     0.417000        1.0080           0
    8756 WT1  2912 TIP3 OH2  OT    -0.834000       15.9994           0
    8757 WT1  2912 TIP3 H1   HT     0.417000        1.0080           0
    8758 WT1  2912 TIP3 H2   HT     0.417000        1.0080           0
    8759 WT1  2914 TIP3 OH2  OT    -0.834000       15.9994           0
    8760 WT1  2914 TIP3 H1   HT     0.417000        1.0080           0
    8761 WT1  2914 TIP3 H2   HT     0.417000        1.0080           0
    8762 WT1  2915 TIP3 OH2  OT    -0.834000       15.9994           0
    8763 WT1  2915 TIP3 H1   HT     0.417000        1.0080           0
    8764 WT1  2915 TIP3 H2   HT     0.417000        1.0080           0
    8765 WT1  2917 TIP3 OH2  OT    -0.834000       15.9994           0
    8766 WT1  2917 TIP3 H1   HT     0.417000        1.0080           0
    8767 WT1  2917 TIP3 H2   HT     0.417000        1.0080           0
    8768 WT1  2918 TIP3 OH2  OT    -0.834000       15.9994           0
    8769 WT1  2918 TIP3 H1   HT     0.417000        1.0080           0
    8770 WT1  2918 TIP3 H2   HT     0.417000        1.0080           0
    8771 WT1  2921 TIP3 OH2  OT    -0.834000       15.9994           0
    8772 WT1  2921 TIP3 H1   HT     0.417000        1.0080           0
    8773 WT1  2921 TIP3 H2   HT     0.417000        1.0080           0
    8774 WT1  2922 TIP3 OH2  OT    -0.834000       15.9994           0
    8775 WT1  2922 TIP3 H1   HT     0.417000        1.0080           0
    8776 WT1  2922 TIP3 H2   HT     0.417000        1.0080           0
    8777 WT1  2923 TIP3 OH2  OT    -0.834000       15.9994           0
    8778 WT1  2923 TIP3 H1   HT     0.417000        1.0080           0
    8779 WT1  2923 TIP3 H2   HT     0.417000        1.0080           0
    8780 WT1  2924 TIP3 OH2  OT    -0.834000       15.9994           0
    8781 WT1  2924 TIP3 H1   HT     0.417000        1.0080           0
    8782 WT1  2924 TIP3 H2   HT     0.417000        1.0080           0
    8783 WT1  2925 TIP3 OH2  OT    -0.834000       15.9994           0
    8784 WT1  2925 TIP3 H1   HT     0.417000        1.0080           0
    8785 WT1  2925 TIP3 H2   HT     0.417000        1.0080           0
    8786 WT1  2926 TIP3 OH2  OT    -0.834000       15.9994           0
    8787 WT1  2926 TIP3 H1   HT     0.417000        1.0080           0
    8788 WT1  2926 TIP3 H2   HT     0.417000        1.0080           0
    8789 WT1  2928 TIP3 OH2  OT    -0.834000       15.9994           0
    8790 WT1  2928 TIP3 H1   HT     0.417000        1.0080           0
    8791 WT1  2928 TIP3 H2   HT     0.417000        1.0080           0
    8792 WT1  2929 TIP3 OH2  OT    -0.834000       15.9994           0
    8793 WT1  2929 TIP3 H1   HT     0.417000        1.0080           0
    8794 WT1  2929 TIP3 H2   HT     0.417000        1.0080           0
    8795 WT1  2931 TIP3 OH2  OT    -0.834000       15.9994           0
    8796 WT1  2931 TIP3 H1   HT     0.417000        1.0080           0
    8797 WT1  2931 TIP3 H2   HT     0.417000        1.0080           0
    8798 WT1  2932 TIP3 OH2  OT    -0.834000       15.9994           0
    8799 WT1  2932 TIP3 H1   HT     0.417000        1.0080           0
    8800 WT1  2932 TIP3 H2   HT     0.417000        1.0080           0
    8801 WT1  2933 TIP3 OH2  OT    -0.834000       15.9994           0
    8802 WT1  2933 TIP3 H1   HT     0.417000        1.0080           0
    8803 WT1  2933 TIP3 H2   HT     0.417000        1.0080           0
    8804 WT1  2934 TIP3 OH2  OT    -0.834000       15.9994           0
    8805 WT1  2934 TIP3 H1   HT     0.417000        1.0080           0
    8806 WT1  2934 TIP3 H2   HT     0.417000        1.0080           0
    8807 WT1  2936 TIP3 OH2  OT    -0.834000       15.9994           0
    8808 WT1  2936 TIP3 H1   HT     0.417000        1.0080           0
    8809 WT1  2936 TIP3 H2   HT     0.417000        1.0080           0
    8810 WT1  2937 TIP3 OH2  OT    -0.834000       15.9994           0
    8811 WT1  2937 TIP3 H1   HT     0.417000        1.0080           0
    8812 WT1  2937 TIP3 H2   HT     0.417000        1.0080           0
    8813 WT1  2938 TIP3 OH2  OT    -0.834000       15.9994           0
    8814 WT1  2938 TIP3 H1   HT     0.417000        1.0080           0
    8815 WT1  2938 TIP3 H2   HT     0.417000        1.0080           0
    8816 WT1  2939 TIP3 OH2  OT    -0.834000       15.9994           0
    8817 WT1  2939 TIP3 H1   HT     0.417000        1.0080           0
    8818 WT1  2939 TIP3 H2   HT     0.417000        1.0080           0
    8819 WT1  2940 TIP3 OH2  OT    -0.834000       15.9994           0
    8820 WT1  2940 TIP3 H1   HT     0.417000        1.0080           0
    8821 WT1  2940 TIP3 H2   HT     0.417000        1.0080           0
    8822 WT1  2943 TIP3 OH2  OT    -0.834000       15.9994           0
    8823 WT1  2943 TIP3 H1   HT     0.417000        1.0080           0
    8824 WT1  2943 TIP3 H2   HT     0.417000        1.0080           0
    8825 WT1  2944 TIP3 OH2  OT    -0.834000       15.9994           0
    8826 WT1  2944 TIP3 H1   HT     0.417000        1.0080           0
    8827 WT1  2944 TIP3 H2   HT     0.417000        1.0080           0
    8828 WT1  2945 TIP3 OH2  OT    -0.834000       15.9994           0
    8829 WT1  2945 TIP3 H1   HT     0.417000        1.0080           0
    8830 WT1  2945 TIP3 H2   HT     0.417000        1.0080           0
    8831 WT1  2946 TIP3 OH2  OT    -0.834000       15.9994           0
    8832 WT1  2946 TIP3 H1   HT     0.417000        1.0080           0
    8833 WT1  2946 TIP3 H2   HT     0.417000        1.0080           0
    8834 WT1  2948 TIP3 OH2  OT    -0.834000       15.9994           0
    8835 WT1  2948 TIP3 H1   HT     0.417000        1.0080           0
    8836 WT1  2948 TIP3 H2   HT     0.417000        1.0080           0
    8837 WT1  2949 TIP3 OH2  OT    -0.834000       15.9994           0
    8838 WT1  2949 TIP3 H1   HT     0.417000        1.0080           0
    8839 WT1  2949 TIP3 H2   HT     0.417000        1.0080           0
    8840 WT1  2951 TIP3 OH2  OT    -0.834000       15.9994           0
    8841 WT1  2951 TIP3 H1   HT     0.417000        1.0080           0
    8842 WT1  2951 TIP3 H2   HT     0.417000        1.0080           0
    8843 WT1  2952 TIP3 OH2  OT    -0.834000       15.9994           0
    8844 WT1  2952 TIP3 H1   HT     0.417000        1.0080           0
    8845 WT1  2952 TIP3 H2   HT     0.417000        1.0080           0
    8846 WT1  2955 TIP3 OH2  OT    -0.834000       15.9994           0
    8847 WT1  2955 TIP3 H1   HT     0.417000        1.0080           0
    8848 WT1  2955 TIP3 H2   HT     0.417000        1.0080           0
    8849 WT1  2956 TIP3 OH2  OT    -0.834000       15.9994           0
    8850 WT1  2956 TIP3 H1   HT     0.417000        1.0080           0
    8851 WT1  2956 TIP3 H2   HT     0.417000        1.0080           0
    8852 WT1  2959 TIP3 OH2  OT    -0.834000       15.9994           0
    8853 WT1  2959 TIP3 H1   HT     0.417000        1.0080           0
    8854 WT1  2959 TIP3 H2   HT     0.417000        1.0080           0
    8855 WT1  2960 TIP3 OH2  OT    -0.834000       15.9994           0
    8856 WT1  2960 TIP3 H1   HT     0.417000        1.0080           0
    8857 WT1  2960 TIP3 H2   HT     0.417000        1.0080           0
    8858 WT1  2961 TIP3 OH2  OT    -0.834000       15.9994           0
    8859 WT1  2961 TIP3 H1   HT     0.417000        1.0080           0
    8860 WT1  2961 TIP3 H2   HT     0.417000        1.0080           0
    8861 WT1  2962 TIP3 OH2  OT    -0.834000       15.9994           0
    8862 WT1  2962 TIP3 H1   HT     0.417000        1.0080           0
    8863 WT1  2962 TIP3 H2   HT     0.417000        1.0080           0
    8864 WT1  2963 TIP3 OH2  OT    -0.834000       15.9994           0
    8865 WT1  2963 TIP3 H1   HT     0.417000        1.0080           0
    8866 WT1  2963 TIP3 H2   HT     0.417000        1.0080           0
    8867 WT1  2964 TIP3 OH2  OT    -0.834000       15.9994           0
    8868 WT1  2964 TIP3 H1   HT     0.417000        1.0080           0
    8869 WT1  2964 TIP3 H2   HT     0.417000        1.0080           0
    8870 WT1  2966 TIP3 OH2  OT    -0.834000       15.9994           0
    8871 WT1  2966 TIP3 H1   HT     0.417000        1.0080           0
    8872 WT1  2966 TIP3 H2   HT     0.417000        1.0080           0
    8873 WT1  2967 TIP3 OH2  OT    -0.834000       15.9994           0
    8874 WT1  2967 TIP3 H1   HT     0.417000        1.0080           0
    8875 WT1  2967 TIP3 H2   HT     0.417000        1.0080           0
    8876 WT1  2968 TIP3 OH2  OT    -0.834000       15.9994           0
    8877 WT1  2968 TIP3 H1   HT     0.417000        1.0080           0
    8878 WT1  2968 TIP3 H2   HT     0.417000        1.0080           0
    8879 WT1  2970 TIP3 OH2  OT    -0.834000       15.9994           0
    8880 WT1  2970 TIP3 H1   HT     0.417000        1.0080           0
    8881 WT1  2970 TIP3 H2   HT     0.417000        1.0080           0
    8882 WT1  2971 TIP3 OH2  OT    -0.834000       15.9994           0
    8883 WT1  2971 TIP3 H1   HT     0.417000        1.0080           0
    8884 WT1  2971 TIP3 H2   HT     0.417000        1.0080           0
    8885 WT1  2972 TIP3 OH2  OT    -0.834000       15.9994           0
    8886 WT1  2972 TIP3 H1   HT     0.417000        1.0080           0
    8887 WT1  2972 TIP3 H2   HT     0.417000        1.0080           0
    8888 WT1  2973 TIP3 OH2  OT    -0.834000       15.9994           0
    8889 WT1  2973 TIP3 H1   HT     0.417000        1.0080           0
    8890 WT1  2973 TIP3 H2   HT     0.417000        1.0080           0
    8891 WT1  2974 TIP3 OH2  OT    -0.834000       15.9994           0
    8892 WT1  2974 TIP3 H1   HT     0.417000        1.0080           0
    8893 WT1  2974 TIP3 H2   HT     0.417000        1.0080           0
    8894 WT1  2975 TIP3 OH2  OT    -0.834000       15.9994           0
    8895 WT1  2975 TIP3 H1   HT     0.417000        1.0080           0
    8896 WT1  2975 TIP3 H2   HT     0.417000        1.0080           0
    8897 WT1  2976 TIP3 OH2  OT    -0.834000       15.9994           0
    8898 WT1  2976 TIP3 H1   HT     0.417000        1.0080           0
    8899 WT1  2976 TIP3 H2   HT     0.417000        1.0080           0
    8900 WT1  2977 TIP3 OH2  OT    -0.834000       15.9994           0
    8901 WT1  2977 TIP3 H1   HT     0.417000        1.0080           0
    8902 WT1  2977 TIP3 H2   HT     0.417000        1.0080           0
    8903 WT1  2978 TIP3 OH2  OT    -0.834000       15.9994           0
    8904 WT1  2978 TIP3 H1   HT     0.417000        1.0080           0
    8905 WT1  2978 TIP3 H2   HT     0.417000        1.0080           0
    8906 WT1  2979 TIP3 OH2  OT    -0.834000       15.9994           0
    8907 WT1  2979 TIP3 H1   HT     0.417000        1.0080           0
    8908 WT1  2979 TIP3 H2   HT     0.417000        1.0080           0
    8909 WT1  2981 TIP3 OH2  OT    -0.834000       15.9994           0
    8910 WT1  2981 TIP3 H1   HT     0.417000        1.0080           0
    8911 WT1  2981 TIP3 H2   HT     0.417000        1.0080           0
    8912 WT1  2982 TIP3 OH2  OT    -0.834000       15.9994           0
    8913 WT1  2982 TIP3 H1   HT     0.417000        1.0080           0
    8914 WT1  2982 TIP3 H2   HT     0.417000        1.0080           0
    8915 WT1  2983 TIP3 OH2  OT    -0.834000       15.9994           0
    8916 WT1  2983 TIP3 H1   HT     0.417000        1.0080           0
    8917 WT1  2983 TIP3 H2   HT     0.417000        1.0080           0
    8918 WT1  2984 TIP3 OH2  OT    -0.834000       15.9994           0
    8919 WT1  2984 TIP3 H1   HT     0.417000        1.0080           0
    8920 WT1  2984 TIP3 H2   HT     0.417000        1.0080           0
    8921 WT1  2985 TIP3 OH2  OT    -0.834000       15.9994           0
    8922 WT1  2985 TIP3 H1   HT     0.417000        1.0080           0
    8923 WT1  2985 TIP3 H2   HT     0.417000        1.0080           0
    8924 WT1  2986 TIP3 OH2  OT    -0.834000       15.9994           0
    8925 WT1  2986 TIP3 H1   HT     0.417000        1.0080           0
    8926 WT1  2986 TIP3 H2   HT     0.417000        1.0080           0
    8927 WT1  2987 TIP3 OH2  OT    -0.834000       15.9994           0
    8928 WT1  2987 TIP3 H1   HT     0.417000        1.0080           0
    8929 WT1  2987 TIP3 H2   HT     0.417000        1.0080           0
    8930 WT1  2988 TIP3 OH2  OT    -0.834000       15.9994           0
    8931 WT1  2988 TIP3 H1   HT     0.417000        1.0080           0
    8932 WT1  2988 TIP3 H2   HT     0.417000        1.0080           0
    8933 WT1  2990 TIP3 OH2  OT    -0.834000       15.9994           0
    8934 WT1  2990 TIP3 H1   HT     0.417000        1.0080           0
    8935 WT1  2990 TIP3 H2   HT     0.417000        1.0080           0
    8936 WT1  2991 TIP3 OH2  OT    -0.834000       15.9994           0
    8937 WT1  2991 TIP3 H1   HT     0.417000        1.0080           0
    8938 WT1  2991 TIP3 H2   HT     0.417000        1.0080           0
    8939 WT1  2992 TIP3 OH2  OT    -0.834000       15.9994           0
    8940 WT1  2992 TIP3 H1   HT     0.417000        1.0080           0
    8941 WT1  2992 TIP3 H2   HT     0.417000        1.0080           0
    8942 WT1  2993 TIP3 OH2  OT    -0.834000       15.9994           0
    8943 WT1  2993 TIP3 H1   HT     0.417000        1.0080           0
    8944 WT1  2993 TIP3 H2   HT     0.417000        1.0080           0
    8945 WT1  2994 TIP3 OH2  OT    -0.834000       15.9994           0
    8946 WT1  2994 TIP3 H1   HT     0.417000        1.0080           0
    8947 WT1  2994 TIP3 H2   HT     0.417000        1.0080           0
    8948 WT1  2995 TIP3 OH2  OT    -0.834000       15.9994           0
    8949 WT1  2995 TIP3 H1   HT     0.417000        1.0080           0
    8950 WT1  2995 TIP3 H2   HT     0.417000        1.0080           0
    8951 WT1  2996 TIP3 OH2  OT    -0.834000       15.9994           0
    8952 WT1  2996 TIP3 H1   HT     0.417000        1.0080           0
    8953 WT1  2996 TIP3 H2   HT     0.417000        1.0080           0
    8954 WT1  2997 TIP3 OH2  OT    -0.834000       15.9994           0
    8955 WT1  2997 TIP3 H1   HT     0.417000        1.0080           0
    8956 WT1  2997 TIP3 H2   HT     0.417000        1.0080           0
    8957 WT1  2998 TIP3 OH2  OT    -0.834000       15.9994           0
    8958 WT1  2998 TIP3 H1   HT     0.417000        1.0080           0
    8959 WT1  2998 TIP3 H2   HT     0.417000        1.0080           0
    8960 WT1  2999 TIP3 OH2  OT    -0.834000       15.9994           0
    8961 WT1  2999 TIP3 H1   HT     0.417000        1.0080           0
    8962 WT1  2999 TIP3 H2   HT     0.417000        1.0080           0
    8963 WT1  3000 TIP3 OH2  OT    -0.834000       15.9994           0
    8964 WT1  3000 TIP3 H1   HT     0.417000        1.0080           0
    8965 WT1  3000 TIP3 H2   HT     0.417000        1.0080           0
    8966 WT1  3001 TIP3 OH2  OT    -0.834000       15.9994           0
    8967 WT1  3001 TIP3 H1   HT     0.417000        1.0080           0
    8968 WT1  3001 TIP3 H2   HT     0.417000        1.0080           0
    8969 WT1  3002 TIP3 OH2  OT    -0.834000       15.9994           0
    8970 WT1  3002 TIP3 H1   HT     0.417000        1.0080           0
    8971 WT1  3002 TIP3 H2   HT     0.417000        1.0080           0
    8972 WT1  3003 TIP3 OH2  OT    -0.834000       15.9994           0
    8973 WT1  3003 TIP3 H1   HT     0.417000        1.0080           0
    8974 WT1  3003 TIP3 H2   HT     0.417000        1.0080           0
    8975 WT1  3004 TIP3 OH2  OT    -0.834000       15.9994           0
    8976 WT1  3004 TIP3 H1   HT     0.417000        1.0080           0
    8977 WT1  3004 TIP3 H2   HT     0.417000        1.0080           0
    8978 WT1  3005 TIP3 OH2  OT    -0.834000       15.9994           0
    8979 WT1  3005 TIP3 H1   HT     0.417000        1.0080           0
    8980 WT1  3005 TIP3 H2   HT     0.417000        1.0080           0
    8981 WT1  3006 TIP3 OH2  OT    -0.834000       15.9994           0
    8982 WT1  3006 TIP3 H1   HT     0.417000        1.0080           0
    8983 WT1  3006 TIP3 H2   HT     0.417000        1.0080           0
    8984 WT1  3007 TIP3 OH2  OT    -0.834000       15.9994           0
    8985 WT1  3007 TIP3 H1   HT     0.417000        1.0080           0
    8986 WT1  3007 TIP3 H2   HT     0.417000        1.0080           0
    8987 WT1  3008 TIP3 OH2  OT    -0.834000       15.9994           0
    8988 WT1  3008 TIP3 H1   HT     0.417000        1.0080           0
    8989 WT1  3008 TIP3 H2   HT     0.417000        1.0080           0
    8990 WT1  3009 TIP3 OH2  OT    -0.834000       15.9994           0
    8991 WT1  3009 TIP3 H1   HT     0.417000        1.0080           0
    8992 WT1  3009 TIP3 H2   HT     0.417000        1.0080           0
    8993 WT1  3011 TIP3 OH2  OT    -0.834000       15.9994           0
    8994 WT1  3011 TIP3 H1   HT     0.417000        1.0080           0
    8995 WT1  3011 TIP3 H2   HT     0.417000        1.0080           0
    8996 WT1  3012 TIP3 OH2  OT    -0.834000       15.9994           0
    8997 WT1  3012 TIP3 H1   HT     0.417000        1.0080           0
    8998 WT1  3012 TIP3 H2   HT     0.417000        1.0080           0
    8999 WT1  3014 TIP3 OH2  OT    -0.834000       15.9994           0
    9000 WT1  3014 TIP3 H1   HT     0.417000        1.0080           0
    9001 WT1  3014 TIP3 H2   HT     0.417000        1.0080           0
    9002 WT1  3015 TIP3 OH2  OT    -0.834000       15.9994           0
    9003 WT1  3015 TIP3 H1   HT     0.417000        1.0080           0
    9004 WT1  3015 TIP3 H2   HT     0.417000        1.0080           0
    9005 WT1  3017 TIP3 OH2  OT    -0.834000       15.9994           0
    9006 WT1  3017 TIP3 H1   HT     0.417000        1.0080           0
    9007 WT1  3017 TIP3 H2   HT     0.417000        1.0080           0
    9008 WT1  3018 TIP3 OH2  OT    -0.834000       15.9994           0
    9009 WT1  3018 TIP3 H1   HT     0.417000        1.0080           0
    9010 WT1  3018 TIP3 H2   HT     0.417000        1.0080           0
    9011 WT1  3019 TIP3 OH2  OT    -0.834000       15.9994           0
    9012 WT1  3019 TIP3 H1   HT     0.417000        1.0080           0
    9013 WT1  3019 TIP3 H2   HT     0.417000        1.0080           0
    9014 WT1  3021 TIP3 OH2  OT    -0.834000       15.9994           0
    9015 WT1  3021 TIP3 H1   HT     0.417000        1.0080           0
    9016 WT1  3021 TIP3 H2   HT     0.417000        1.0080           0
    9017 WT1  3022 TIP3 OH2  OT    -0.834000       15.9994           0
    9018 WT1  3022 TIP3 H1   HT     0.417000        1.0080           0
    9019 WT1  3022 TIP3 H2   HT     0.417000        1.0080           0
    9020 WT1  3023 TIP3 OH2  OT    -0.834000       15.9994           0
    9021 WT1  3023 TIP3 H1   HT     0.417000        1.0080           0
    9022 WT1  3023 TIP3 H2   HT     0.417000        1.0080           0
    9023 WT1  3025 TIP3 OH2  OT    -0.834000       15.9994           0
    9024 WT1  3025 TIP3 H1   HT     0.417000        1.0080           0
    9025 WT1  3025 TIP3 H2   HT     0.417000        1.0080           0
    9026 WT1  3026 TIP3 OH2  OT    -0.834000       15.9994           0
    9027 WT1  3026 TIP3 H1   HT     0.417000        1.0080           0
    9028 WT1  3026 TIP3 H2   HT     0.417000        1.0080           0
    9029 WT1  3027 TIP3 OH2  OT    -0.834000       15.9994           0
    9030 WT1  3027 TIP3 H1   HT     0.417000        1.0080           0
    9031 WT1  3027 TIP3 H2   HT     0.417000        1.0080           0
    9032 WT1  3028 TIP3 OH2  OT    -0.834000       15.9994           0
    9033 WT1  3028 TIP3 H1   HT     0.417000        1.0080           0
    9034 WT1  3028 TIP3 H2   HT     0.417000        1.0080           0
    9035 WT1  3029 TIP3 OH2  OT    -0.834000       15.9994           0
    9036 WT1  3029 TIP3 H1   HT     0.417000        1.0080           0
    9037 WT1  3029 TIP3 H2   HT     0.417000        1.0080           0
    9038 WT1  3030 TIP3 OH2  OT    -0.834000       15.9994           0
    9039 WT1  3030 TIP3 H1   HT     0.417000        1.0080           0
    9040 WT1  3030 TIP3 H2   HT     0.417000        1.0080           0
    9041 WT1  3031 TIP3 OH2  OT    -0.834000       15.9994           0
    9042 WT1  3031 TIP3 H1   HT     0.417000        1.0080           0
    9043 WT1  3031 TIP3 H2   HT     0.417000        1.0080           0
    9044 WT1  3032 TIP3 OH2  OT    -0.834000       15.9994           0
    9045 WT1  3032 TIP3 H1   HT     0.417000        1.0080           0
    9046 WT1  3032 TIP3 H2   HT     0.417000        1.0080           0
    9047 WT1  3033 TIP3 OH2  OT    -0.834000       15.9994           0
    9048 WT1  3033 TIP3 H1   HT     0.417000        1.0080           0
    9049 WT1  3033 TIP3 H2   HT     0.417000        1.0080           0
    9050 WT1  3034 TIP3 OH2  OT    -0.834000       15.9994           0
    9051 WT1  3034 TIP3 H1   HT     0.417000        1.0080           0
    9052 WT1  3034 TIP3 H2   HT     0.417000        1.0080           0
    9053 WT1  3035 TIP3 OH2  OT    -0.834000       15.9994           0
    9054 WT1  3035 TIP3 H1   HT     0.417000        1.0080           0
    9055 WT1  3035 TIP3 H2   HT     0.417000        1.0080           0
    9056 WT1  3037 TIP3 OH2  OT    -0.834000       15.9994           0
    9057 WT1  3037 TIP3 H1   HT     0.417000        1.0080           0
    9058 WT1  3037 TIP3 H2   HT     0.417000        1.0080           0
    9059 WT1  3038 TIP3 OH2  OT    -0.834000       15.9994           0
    9060 WT1  3038 TIP3 H1   HT     0.417000        1.0080           0
    9061 WT1  3038 TIP3 H2   HT     0.417000        1.0080           0
    9062 WT1  3039 TIP3 OH2  OT    -0.834000       15.9994           0
    9063 WT1  3039 TIP3 H1   HT     0.417000        1.0080           0
    9064 WT1  3039 TIP3 H2   HT     0.417000        1.0080           0
    9065 WT1  3040 TIP3 OH2  OT    -0.834000       15.9994           0
    9066 WT1  3040 TIP3 H1   HT     0.417000        1.0080           0
    9067 WT1  3040 TIP3 H2   HT     0.417000        1.0080           0
    9068 WT1  3041 TIP3 OH2  OT    -0.834000       15.9994           0
    9069 WT1  3041 TIP3 H1   HT     0.417000        1.0080           0
    9070 WT1  3041 TIP3 H2   HT     0.417000        1.0080           0
    9071 WT1  3042 TIP3 OH2  OT    -0.834000       15.9994           0
    9072 WT1  3042 TIP3 H1   HT     0.417000        1.0080           0
    9073 WT1  3042 TIP3 H2   HT     0.417000        1.0080           0
    9074 WT1  3043 TIP3 OH2  OT    -0.834000       15.9994           0
    9075 WT1  3043 TIP3 H1   HT     0.417000        1.0080           0
    9076 WT1  3043 TIP3 H2   HT     0.417000        1.0080           0
    9077 WT1  3044 TIP3 OH2  OT    -0.834000       15.9994           0
    9078 WT1  3044 TIP3 H1   HT     0.417000        1.0080           0
    9079 WT1  3044 TIP3 H2   HT     0.417000        1.0080           0
    9080 WT1  3045 TIP3 OH2  OT    -0.834000       15.9994           0
    9081 WT1  3045 TIP3 H1   HT     0.417000        1.0080           0
    9082 WT1  3045 TIP3 H2   HT     0.417000        1.0080           0
    9083 WT1  3046 TIP3 OH2  OT    -0.834000       15.9994           0
    9084 WT1  3046 TIP3 H1   HT     0.417000        1.0080           0
    9085 WT1  3046 TIP3 H2   HT     0.417000        1.0080           0
    9086 WT1  3047 TIP3 OH2  OT    -0.834000       15.9994           0
    9087 WT1  3047 TIP3 H1   HT     0.417000        1.0080           0
    9088 WT1  3047 TIP3 H2   HT     0.417000        1.0080           0
    9089 WT1  3048 TIP3 OH2  OT    -0.834000       15.9994           0
    9090 WT1  3048 TIP3 H1   HT     0.417000        1.0080           0
    9091 WT1  3048 TIP3 H2   HT     0.417000        1.0080           0
    9092 WT1  3049 TIP3 OH2  OT    -0.834000       15.9994           0
    9093 WT1  3049 TIP3 H1   HT     0.417000        1.0080           0
    9094 WT1  3049 TIP3 H2   HT     0.417000        1.0080           0
    9095 WT1  3050 TIP3 OH2  OT    -0.834000       15.9994           0
    9096 WT1  3050 TIP3 H1   HT     0.417000        1.0080           0
    9097 WT1  3050 TIP3 H2   HT     0.417000        1.0080           0
    9098 WT1  3051 TIP3 OH2  OT    -0.834000       15.9994           0
    9099 WT1  3051 TIP3 H1   HT     0.417000        1.0080           0
    9100 WT1  3051 TIP3 H2   HT     0.417000        1.0080           0
    9101 WT1  3052 TIP3 OH2  OT    -0.834000       15.9994           0
    9102 WT1  3052 TIP3 H1   HT     0.417000        1.0080           0
    9103 WT1  3052 TIP3 H2   HT     0.417000        1.0080           0
    9104 WT1  3053 TIP3 OH2  OT    -0.834000       15.9994           0
    9105 WT1  3053 TIP3 H1   HT     0.417000        1.0080           0
    9106 WT1  3053 TIP3 H2   HT     0.417000        1.0080           0
    9107 WT1  3054 TIP3 OH2  OT    -0.834000       15.9994           0
    9108 WT1  3054 TIP3 H1   HT     0.417000        1.0080           0
    9109 WT1  3054 TIP3 H2   HT     0.417000        1.0080           0
    9110 WT1  3055 TIP3 OH2  OT    -0.834000       15.9994           0
    9111 WT1  3055 TIP3 H1   HT     0.417000        1.0080           0
    9112 WT1  3055 TIP3 H2   HT     0.417000        1.0080           0
    9113 WT1  3056 TIP3 OH2  OT    -0.834000       15.9994           0
    9114 WT1  3056 TIP3 H1   HT     0.417000        1.0080           0
    9115 WT1  3056 TIP3 H2   HT     0.417000        1.0080           0
    9116 WT1  3057 TIP3 OH2  OT    -0.834000       15.9994           0
    9117 WT1  3057 TIP3 H1   HT     0.417000        1.0080           0
    9118 WT1  3057 TIP3 H2   HT     0.417000        1.0080           0
    9119 WT1  3059 TIP3 OH2  OT    -0.834000       15.9994           0
    9120 WT1  3059 TIP3 H1   HT     0.417000        1.0080           0
    9121 WT1  3059 TIP3 H2   HT     0.417000        1.0080           0
    9122 WT1  3060 TIP3 OH2  OT    -0.834000       15.9994           0
    9123 WT1  3060 TIP3 H1   HT     0.417000        1.0080           0
    9124 WT1  3060 TIP3 H2   HT     0.417000        1.0080           0
    9125 WT1  3061 TIP3 OH2  OT    -0.834000       15.9994           0
    9126 WT1  3061 TIP3 H1   HT     0.417000        1.0080           0
    9127 WT1  3061 TIP3 H2   HT     0.417000        1.0080           0
    9128 WT1  3062 TIP3 OH2  OT    -0.834000       15.9994           0
    9129 WT1  3062 TIP3 H1   HT     0.417000        1.0080           0
    9130 WT1  3062 TIP3 H2   HT     0.417000        1.0080           0
    9131 WT1  3063 TIP3 OH2  OT    -0.834000       15.9994           0
    9132 WT1  3063 TIP3 H1   HT     0.417000        1.0080           0
    9133 WT1  3063 TIP3 H2   HT     0.417000        1.0080           0
    9134 WT1  3064 TIP3 OH2  OT    -0.834000       15.9994           0
    9135 WT1  3064 TIP3 H1   HT     0.417000        1.0080           0
    9136 WT1  3064 TIP3 H2   HT     0.417000        1.0080           0
    9137 WT1  3066 TIP3 OH2  OT    -0.834000       15.9994           0
    9138 WT1  3066 TIP3 H1   HT     0.417000        1.0080           0
    9139 WT1  3066 TIP3 H2   HT     0.417000        1.0080           0
    9140 WT1  3067 TIP3 OH2  OT    -0.834000       15.9994           0
    9141 WT1  3067 TIP3 H1   HT     0.417000        1.0080           0
    9142 WT1  3067 TIP3 H2   HT     0.417000        1.0080           0
    9143 WT1  3069 TIP3 OH2  OT    -0.834000       15.9994           0
    9144 WT1  3069 TIP3 H1   HT     0.417000        1.0080           0
    9145 WT1  3069 TIP3 H2   HT     0.417000        1.0080           0
    9146 WT1  3071 TIP3 OH2  OT    -0.834000       15.9994           0
    9147 WT1  3071 TIP3 H1   HT     0.417000        1.0080           0
    9148 WT1  3071 TIP3 H2   HT     0.417000        1.0080           0
    9149 WT1  3072 TIP3 OH2  OT    -0.834000       15.9994           0
    9150 WT1  3072 TIP3 H1   HT     0.417000        1.0080           0
    9151 WT1  3072 TIP3 H2   HT     0.417000        1.0080           0
    9152 WT1  3073 TIP3 OH2  OT    -0.834000       15.9994           0
    9153 WT1  3073 TIP3 H1   HT     0.417000        1.0080           0
    9154 WT1  3073 TIP3 H2   HT     0.417000        1.0080           0
    9155 WT1  3075 TIP3 OH2  OT    -0.834000       15.9994           0
    9156 WT1  3075 TIP3 H1   HT     0.417000        1.0080           0
    9157 WT1  3075 TIP3 H2   HT     0.417000        1.0080           0
    9158 WT1  3076 TIP3 OH2  OT    -0.834000       15.9994           0
    9159 WT1  3076 TIP3 H1   HT     0.417000        1.0080           0
    9160 WT1  3076 TIP3 H2   HT     0.417000        1.0080           0
    9161 WT1  3077 TIP3 OH2  OT    -0.834000       15.9994           0
    9162 WT1  3077 TIP3 H1   HT     0.417000        1.0080           0
    9163 WT1  3077 TIP3 H2   HT     0.417000        1.0080           0
    9164 WT1  3078 TIP3 OH2  OT    -0.834000       15.9994           0
    9165 WT1  3078 TIP3 H1   HT     0.417000        1.0080           0
    9166 WT1  3078 TIP3 H2   HT     0.417000        1.0080           0
    9167 WT1  3079 TIP3 OH2  OT    -0.834000       15.9994           0
    9168 WT1  3079 TIP3 H1   HT     0.417000        1.0080           0
    9169 WT1  3079 TIP3 H2   HT     0.417000        1.0080           0
    9170 WT1  3080 TIP3 OH2  OT    -0.834000       15.9994           0
    9171 WT1  3080 TIP3 H1   HT     0.417000        1.0080           0
    9172 WT1  3080 TIP3 H2   HT     0.417000        1.0080           0
    9173 WT1  3082 TIP3 OH2  OT    -0.834000       15.9994           0
    9174 WT1  3082 TIP3 H1   HT     0.417000        1.0080           0
    9175 WT1  3082 TIP3 H2   HT     0.417000        1.0080           0
    9176 WT1  3083 TIP3 OH2  OT    -0.834000       15.9994           0
    9177 WT1  3083 TIP3 H1   HT     0.417000        1.0080           0
    9178 WT1  3083 TIP3 H2   HT     0.417000        1.0080           0
    9179 WT1  3084 TIP3 OH2  OT    -0.834000       15.9994           0
    9180 WT1  3084 TIP3 H1   HT     0.417000        1.0080           0
    9181 WT1  3084 TIP3 H2   HT     0.417000        1.0080           0
    9182 WT1  3087 TIP3 OH2  OT    -0.834000       15.9994           0
    9183 WT1  3087 TIP3 H1   HT     0.417000        1.0080           0
    9184 WT1  3087 TIP3 H2   HT     0.417000        1.0080           0
    9185 WT1  3088 TIP3 OH2  OT    -0.834000       15.9994           0
    9186 WT1  3088 TIP3 H1   HT     0.417000        1.0080           0
    9187 WT1  3088 TIP3 H2   HT     0.417000        1.0080           0
    9188 WT1  3089 TIP3 OH2  OT    -0.834000       15.9994           0
    9189 WT1  3089 TIP3 H1   HT     0.417000        1.0080           0
    9190 WT1  3089 TIP3 H2   HT     0.417000        1.0080           0
    9191 WT1  3090 TIP3 OH2  OT    -0.834000       15.9994           0
    9192 WT1  3090 TIP3 H1   HT     0.417000        1.0080           0
    9193 WT1  3090 TIP3 H2   HT     0.417000        1.0080           0
    9194 WT1  3091 TIP3 OH2  OT    -0.834000       15.9994           0
    9195 WT1  3091 TIP3 H1   HT     0.417000        1.0080           0
    9196 WT1  3091 TIP3 H2   HT     0.417000        1.0080           0
    9197 WT1  3092 TIP3 OH2  OT    -0.834000       15.9994           0
    9198 WT1  3092 TIP3 H1   HT     0.417000        1.0080           0
    9199 WT1  3092 TIP3 H2   HT     0.417000        1.0080           0
    9200 WT1  3093 TIP3 OH2  OT    -0.834000       15.9994           0
    9201 WT1  3093 TIP3 H1   HT     0.417000        1.0080           0
    9202 WT1  3093 TIP3 H2   HT     0.417000        1.0080           0
    9203 WT1  3094 TIP3 OH2  OT    -0.834000       15.9994           0
    9204 WT1  3094 TIP3 H1   HT     0.417000        1.0080           0
    9205 WT1  3094 TIP3 H2   HT     0.417000        1.0080           0
    9206 WT1  3095 TIP3 OH2  OT    -0.834000       15.9994           0
    9207 WT1  3095 TIP3 H1   HT     0.417000        1.0080           0
    9208 WT1  3095 TIP3 H2   HT     0.417000        1.0080           0
    9209 WT1  3096 TIP3 OH2  OT    -0.834000       15.9994           0
    9210 WT1  3096 TIP3 H1   HT     0.417000        1.0080           0
    9211 WT1  3096 TIP3 H2   HT     0.417000        1.0080           0
    9212 WT1  3097 TIP3 OH2  OT    -0.834000       15.9994           0
    9213 WT1  3097 TIP3 H1   HT     0.417000        1.0080           0
    9214 WT1  3097 TIP3 H2   HT     0.417000        1.0080           0
    9215 WT1  3098 TIP3 OH2  OT    -0.834000       15.9994           0
    9216 WT1  3098 TIP3 H1   HT     0.417000        1.0080           0
    9217 WT1  3098 TIP3 H2   HT     0.417000        1.0080           0
    9218 WT1  3100 TIP3 OH2  OT    -0.834000       15.9994           0
    9219 WT1  3100 TIP3 H1   HT     0.417000        1.0080           0
    9220 WT1  3100 TIP3 H2   HT     0.417000        1.0080           0
    9221 WT1  3102 TIP3 OH2  OT    -0.834000       15.9994           0
    9222 WT1  3102 TIP3 H1   HT     0.417000        1.0080           0
    9223 WT1  3102 TIP3 H2   HT     0.417000        1.0080           0
    9224 WT1  3103 TIP3 OH2  OT    -0.834000       15.9994           0
    9225 WT1  3103 TIP3 H1   HT     0.417000        1.0080           0
    9226 WT1  3103 TIP3 H2   HT     0.417000        1.0080           0
    9227 WT1  3105 TIP3 OH2  OT    -0.834000       15.9994           0
    9228 WT1  3105 TIP3 H1   HT     0.417000        1.0080           0
    9229 WT1  3105 TIP3 H2   HT     0.417000        1.0080           0
    9230 WT1  3106 TIP3 OH2  OT    -0.834000       15.9994           0
    9231 WT1  3106 TIP3 H1   HT     0.417000        1.0080           0
    9232 WT1  3106 TIP3 H2   HT     0.417000        1.0080           0
    9233 WT1  3107 TIP3 OH2  OT    -0.834000       15.9994           0
    9234 WT1  3107 TIP3 H1   HT     0.417000        1.0080           0
    9235 WT1  3107 TIP3 H2   HT     0.417000        1.0080           0
    9236 WT1  3108 TIP3 OH2  OT    -0.834000       15.9994           0
    9237 WT1  3108 TIP3 H1   HT     0.417000        1.0080           0
    9238 WT1  3108 TIP3 H2   HT     0.417000        1.0080           0
    9239 WT1  3109 TIP3 OH2  OT    -0.834000       15.9994           0
    9240 WT1  3109 TIP3 H1   HT     0.417000        1.0080           0
    9241 WT1  3109 TIP3 H2   HT     0.417000        1.0080           0
    9242 WT1  3110 TIP3 OH2  OT    -0.834000       15.9994           0
    9243 WT1  3110 TIP3 H1   HT     0.417000        1.0080           0
    9244 WT1  3110 TIP3 H2   HT     0.417000        1.0080           0
    9245 WT1  3111 TIP3 OH2  OT    -0.834000       15.9994           0
    9246 WT1  3111 TIP3 H1   HT     0.417000        1.0080           0
    9247 WT1  3111 TIP3 H2   HT     0.417000        1.0080           0
    9248 WT1  3112 TIP3 OH2  OT    -0.834000       15.9994           0
    9249 WT1  3112 TIP3 H1   HT     0.417000        1.0080           0
    9250 WT1  3112 TIP3 H2   HT     0.417000        1.0080           0
    9251 WT1  3113 TIP3 OH2  OT    -0.834000       15.9994           0
    9252 WT1  3113 TIP3 H1   HT     0.417000        1.0080           0
    9253 WT1  3113 TIP3 H2   HT     0.417000        1.0080           0
    9254 WT1  3114 TIP3 OH2  OT    -0.834000       15.9994           0
    9255 WT1  3114 TIP3 H1   HT     0.417000        1.0080           0
    9256 WT1  3114 TIP3 H2   HT     0.417000        1.0080           0
    9257 WT1  3115 TIP3 OH2  OT    -0.834000       15.9994           0
    9258 WT1  3115 TIP3 H1   HT     0.417000        1.0080           0
    9259 WT1  3115 TIP3 H2   HT     0.417000        1.0080           0
    9260 WT1  3116 TIP3 OH2  OT    -0.834000       15.9994           0
    9261 WT1  3116 TIP3 H1   HT     0.417000        1.0080           0
    9262 WT1  3116 TIP3 H2   HT     0.417000        1.0080           0
    9263 WT1  3118 TIP3 OH2  OT    -0.834000       15.9994           0
    9264 WT1  3118 TIP3 H1   HT     0.417000        1.0080           0
    9265 WT1  3118 TIP3 H2   HT     0.417000        1.0080           0
    9266 WT1  3119 TIP3 OH2  OT    -0.834000       15.9994           0
    9267 WT1  3119 TIP3 H1   HT     0.417000        1.0080           0
    9268 WT1  3119 TIP3 H2   HT     0.417000        1.0080           0
    9269 WT1  3120 TIP3 OH2  OT    -0.834000       15.9994           0
    9270 WT1  3120 TIP3 H1   HT     0.417000        1.0080           0
    9271 WT1  3120 TIP3 H2   HT     0.417000        1.0080           0
    9272 WT1  3121 TIP3 OH2  OT    -0.834000       15.9994           0
    9273 WT1  3121 TIP3 H1   HT     0.417000        1.0080           0
    9274 WT1  3121 TIP3 H2   HT     0.417000        1.0080           0
    9275 WT1  3122 TIP3 OH2  OT    -0.834000       15.9994           0
    9276 WT1  3122 TIP3 H1   HT     0.417000        1.0080           0
    9277 WT1  3122 TIP3 H2   HT     0.417000        1.0080           0
    9278 WT1  3123 TIP3 OH2  OT    -0.834000       15.9994           0
    9279 WT1  3123 TIP3 H1   HT     0.417000        1.0080           0
    9280 WT1  3123 TIP3 H2   HT     0.417000        1.0080           0
    9281 WT1  3124 TIP3 OH2  OT    -0.834000       15.9994           0
    9282 WT1  3124 TIP3 H1   HT     0.417000        1.0080           0
    9283 WT1  3124 TIP3 H2   HT     0.417000        1.0080           0
    9284 WT1  3126 TIP3 OH2  OT    -0.834000       15.9994           0
    9285 WT1  3126 TIP3 H1   HT     0.417000        1.0080           0
    9286 WT1  3126 TIP3 H2   HT     0.417000        1.0080           0
    9287 WT1  3127 TIP3 OH2  OT    -0.834000       15.9994           0
    9288 WT1  3127 TIP3 H1   HT     0.417000        1.0080           0
    9289 WT1  3127 TIP3 H2   HT     0.417000        1.0080           0
    9290 WT1  3128 TIP3 OH2  OT    -0.834000       15.9994           0
    9291 WT1  3128 TIP3 H1   HT     0.417000        1.0080           0
    9292 WT1  3128 TIP3 H2   HT     0.417000        1.0080           0
    9293 WT1  3129 TIP3 OH2  OT    -0.834000       15.9994           0
    9294 WT1  3129 TIP3 H1   HT     0.417000        1.0080           0
    9295 WT1  3129 TIP3 H2   HT     0.417000        1.0080           0
    9296 WT1  3130 TIP3 OH2  OT    -0.834000       15.9994           0
    9297 WT1  3130 TIP3 H1   HT     0.417000        1.0080           0
    9298 WT1  3130 TIP3 H2   HT     0.417000        1.0080           0
    9299 WT1  3131 TIP3 OH2  OT    -0.834000       15.9994           0
    9300 WT1  3131 TIP3 H1   HT     0.417000        1.0080           0
    9301 WT1  3131 TIP3 H2   HT     0.417000        1.0080           0
    9302 WT1  3132 TIP3 OH2  OT    -0.834000       15.9994           0
    9303 WT1  3132 TIP3 H1   HT     0.417000        1.0080           0
    9304 WT1  3132 TIP3 H2   HT     0.417000        1.0080           0
    9305 WT1  3134 TIP3 OH2  OT    -0.834000       15.9994           0
    9306 WT1  3134 TIP3 H1   HT     0.417000        1.0080           0
    9307 WT1  3134 TIP3 H2   HT     0.417000        1.0080           0
    9308 WT1  3135 TIP3 OH2  OT    -0.834000       15.9994           0
    9309 WT1  3135 TIP3 H1   HT     0.417000        1.0080           0
    9310 WT1  3135 TIP3 H2   HT     0.417000        1.0080           0
    9311 WT1  3136 TIP3 OH2  OT    -0.834000       15.9994           0
    9312 WT1  3136 TIP3 H1   HT     0.417000        1.0080           0
    9313 WT1  3136 TIP3 H2   HT     0.417000        1.0080           0
    9314 WT1  3137 TIP3 OH2  OT    -0.834000       15.9994           0
    9315 WT1  3137 TIP3 H1   HT     0.417000        1.0080           0
    9316 WT1  3137 TIP3 H2   HT     0.417000        1.0080           0
    9317 WT1  3138 TIP3 OH2  OT    -0.834000       15.9994           0
    9318 WT1  3138 TIP3 H1   HT     0.417000        1.0080           0
    9319 WT1  3138 TIP3 H2   HT     0.417000        1.0080           0
    9320 WT1  3139 TIP3 OH2  OT    -0.834000       15.9994           0
    9321 WT1  3139 TIP3 H1   HT     0.417000        1.0080           0
    9322 WT1  3139 TIP3 H2   HT     0.417000        1.0080           0
    9323 WT1  3140 TIP3 OH2  OT    -0.834000       15.9994           0
    9324 WT1  3140 TIP3 H1   HT     0.417000        1.0080           0
    9325 WT1  3140 TIP3 H2   HT     0.417000        1.0080           0
    9326 WT1  3142 TIP3 OH2  OT    -0.834000       15.9994           0
    9327 WT1  3142 TIP3 H1   HT     0.417000        1.0080           0
    9328 WT1  3142 TIP3 H2   HT     0.417000        1.0080           0
    9329 WT1  3143 TIP3 OH2  OT    -0.834000       15.9994           0
    9330 WT1  3143 TIP3 H1   HT     0.417000        1.0080           0
    9331 WT1  3143 TIP3 H2   HT     0.417000        1.0080           0
    9332 WT1  3144 TIP3 OH2  OT    -0.834000       15.9994           0
    9333 WT1  3144 TIP3 H1   HT     0.417000        1.0080           0
    9334 WT1  3144 TIP3 H2   HT     0.417000        1.0080           0
    9335 WT1  3145 TIP3 OH2  OT    -0.834000       15.9994           0
    9336 WT1  3145 TIP3 H1   HT     0.417000        1.0080           0
    9337 WT1  3145 TIP3 H2   HT     0.417000        1.0080           0
    9338 WT1  3146 TIP3 OH2  OT    -0.834000       15.9994           0
    9339 WT1  3146 TIP3 H1   HT     0.417000        1.0080           0
    9340 WT1  3146 TIP3 H2   HT     0.417000        1.0080           0
    9341 WT1  3147 TIP3 OH2  OT    -0.834000       15.9994           0
    9342 WT1  3147 TIP3 H1   HT     0.417000        1.0080           0
    9343 WT1  3147 TIP3 H2   HT     0.417000        1.0080           0
    9344 WT1  3148 TIP3 OH2  OT    -0.834000       15.9994           0
    9345 WT1  3148 TIP3 H1   HT     0.417000        1.0080           0
    9346 WT1  3148 TIP3 H2   HT     0.417000        1.0080           0
    9347 WT1  3149 TIP3 OH2  OT    -0.834000       15.9994           0
    9348 WT1  3149 TIP3 H1   HT     0.417000        1.0080           0
    9349 WT1  3149 TIP3 H2   HT     0.417000        1.0080           0
    9350 WT1  3150 TIP3 OH2  OT    -0.834000       15.9994           0
    9351 WT1  3150 TIP3 H1   HT     0.417000        1.0080           0
    9352 WT1  3150 TIP3 H2   HT     0.417000        1.0080           0
    9353 WT1  3153 TIP3 OH2  OT    -0.834000       15.9994           0
    9354 WT1  3153 TIP3 H1   HT     0.417000        1.0080           0
    9355 WT1  3153 TIP3 H2   HT     0.417000        1.0080           0
    9356 WT1  3154 TIP3 OH2  OT    -0.834000       15.9994           0
    9357 WT1  3154 TIP3 H1   HT     0.417000        1.0080           0
    9358 WT1  3154 TIP3 H2   HT     0.417000        1.0080           0
    9359 WT1  3155 TIP3 OH2  OT    -0.834000       15.9994           0
    9360 WT1  3155 TIP3 H1   HT     0.417000        1.0080           0
    9361 WT1  3155 TIP3 H2   HT     0.417000        1.0080           0
    9362 WT1  3156 TIP3 OH2  OT    -0.834000       15.9994           0
    9363 WT1  3156 TIP3 H1   HT     0.417000        1.0080           0
    9364 WT1  3156 TIP3 H2   HT     0.417000        1.0080           0
    9365 WT1  3157 TIP3 OH2  OT    -0.834000       15.9994           0
    9366 WT1  3157 TIP3 H1   HT     0.417000        1.0080           0
    9367 WT1  3157 TIP3 H2   HT     0.417000        1.0080           0
    9368 WT1  3158 TIP3 OH2  OT    -0.834000       15.9994           0
    9369 WT1  3158 TIP3 H1   HT     0.417000        1.0080           0
    9370 WT1  3158 TIP3 H2   HT     0.417000        1.0080           0
    9371 WT1  3159 TIP3 OH2  OT    -0.834000       15.9994           0
    9372 WT1  3159 TIP3 H1   HT     0.417000        1.0080           0
    9373 WT1  3159 TIP3 H2   HT     0.417000        1.0080           0
    9374 WT1  3160 TIP3 OH2  OT    -0.834000       15.9994           0
    9375 WT1  3160 TIP3 H1   HT     0.417000        1.0080           0
    9376 WT1  3160 TIP3 H2   HT     0.417000        1.0080           0
    9377 WT1  3161 TIP3 OH2  OT    -0.834000       15.9994           0
    9378 WT1  3161 TIP3 H1   HT     0.417000        1.0080           0
    9379 WT1  3161 TIP3 H2   HT     0.417000        1.0080           0
    9380 WT1  3163 TIP3 OH2  OT    -0.834000       15.9994           0
    9381 WT1  3163 TIP3 H1   HT     0.417000        1.0080           0
    9382 WT1  3163 TIP3 H2   HT     0.417000        1.0080           0
    9383 WT1  3164 TIP3 OH2  OT    -0.834000       15.9994           0
    9384 WT1  3164 TIP3 H1   HT     0.417000        1.0080           0
    9385 WT1  3164 TIP3 H2   HT     0.417000        1.0080           0
    9386 WT1  3165 TIP3 OH2  OT    -0.834000       15.9994           0
    9387 WT1  3165 TIP3 H1   HT     0.417000        1.0080           0
    9388 WT1  3165 TIP3 H2   HT     0.417000        1.0080           0
    9389 WT1  3167 TIP3 OH2  OT    -0.834000       15.9994           0
    9390 WT1  3167 TIP3 H1   HT     0.417000        1.0080           0
    9391 WT1  3167 TIP3 H2   HT     0.417000        1.0080           0
    9392 WT1  3168 TIP3 OH2  OT    -0.834000       15.9994           0
    9393 WT1  3168 TIP3 H1   HT     0.417000        1.0080           0
    9394 WT1  3168 TIP3 H2   HT     0.417000        1.0080           0
    9395 WT1  3169 TIP3 OH2  OT    -0.834000       15.9994           0
    9396 WT1  3169 TIP3 H1   HT     0.417000        1.0080           0
    9397 WT1  3169 TIP3 H2   HT     0.417000        1.0080           0
    9398 WT1  3170 TIP3 OH2  OT    -0.834000       15.9994           0
    9399 WT1  3170 TIP3 H1   HT     0.417000        1.0080           0
    9400 WT1  3170 TIP3 H2   HT     0.417000        1.0080           0
    9401 WT1  3171 TIP3 OH2  OT    -0.834000       15.9994           0
    9402 WT1  3171 TIP3 H1   HT     0.417000        1.0080           0
    9403 WT1  3171 TIP3 H2   HT     0.417000        1.0080           0
    9404 WT1  3172 TIP3 OH2  OT    -0.834000       15.9994           0
    9405 WT1  3172 TIP3 H1   HT     0.417000        1.0080           0
    9406 WT1  3172 TIP3 H2   HT     0.417000        1.0080           0
    9407 WT1  3173 TIP3 OH2  OT    -0.834000       15.9994           0
    9408 WT1  3173 TIP3 H1   HT     0.417000        1.0080           0
    9409 WT1  3173 TIP3 H2   HT     0.417000        1.0080           0
    9410 WT1  3174 TIP3 OH2  OT    -0.834000       15.9994           0
    9411 WT1  3174 TIP3 H1   HT     0.417000        1.0080           0
    9412 WT1  3174 TIP3 H2   HT     0.417000        1.0080           0
    9413 WT1  3175 TIP3 OH2  OT    -0.834000       15.9994           0
    9414 WT1  3175 TIP3 H1   HT     0.417000        1.0080           0
    9415 WT1  3175 TIP3 H2   HT     0.417000        1.0080           0
    9416 WT1  3177 TIP3 OH2  OT    -0.834000       15.9994           0
    9417 WT1  3177 TIP3 H1   HT     0.417000        1.0080           0
    9418 WT1  3177 TIP3 H2   HT     0.417000        1.0080           0
    9419 WT1  3179 TIP3 OH2  OT    -0.834000       15.9994           0
    9420 WT1  3179 TIP3 H1   HT     0.417000        1.0080           0
    9421 WT1  3179 TIP3 H2   HT     0.417000        1.0080           0
    9422 WT1  3180 TIP3 OH2  OT    -0.834000       15.9994           0
    9423 WT1  3180 TIP3 H1   HT     0.417000        1.0080           0
    9424 WT1  3180 TIP3 H2   HT     0.417000        1.0080           0
    9425 WT1  3183 TIP3 OH2  OT    -0.834000       15.9994           0
    9426 WT1  3183 TIP3 H1   HT     0.417000        1.0080           0
    9427 WT1  3183 TIP3 H2   HT     0.417000        1.0080           0
    9428 WT1  3184 TIP3 OH2  OT    -0.834000       15.9994           0
    9429 WT1  3184 TIP3 H1   HT     0.417000        1.0080           0
    9430 WT1  3184 TIP3 H2   HT     0.417000        1.0080           0
    9431 WT1  3185 TIP3 OH2  OT    -0.834000       15.9994           0
    9432 WT1  3185 TIP3 H1   HT     0.417000        1.0080           0
    9433 WT1  3185 TIP3 H2   HT     0.417000        1.0080           0
    9434 WT1  3186 TIP3 OH2  OT    -0.834000       15.9994           0
    9435 WT1  3186 TIP3 H1   HT     0.417000        1.0080           0
    9436 WT1  3186 TIP3 H2   HT     0.417000        1.0080           0
    9437 WT1  3187 TIP3 OH2  OT    -0.834000       15.9994           0
    9438 WT1  3187 TIP3 H1   HT     0.417000        1.0080           0
    9439 WT1  3187 TIP3 H2   HT     0.417000        1.0080           0
    9440 WT1  3188 TIP3 OH2  OT    -0.834000       15.9994           0
    9441 WT1  3188 TIP3 H1   HT     0.417000        1.0080           0
    9442 WT1  3188 TIP3 H2   HT     0.417000        1.0080           0
    9443 WT1  3190 TIP3 OH2  OT    -0.834000       15.9994           0
    9444 WT1  3190 TIP3 H1   HT     0.417000        1.0080           0
    9445 WT1  3190 TIP3 H2   HT     0.417000        1.0080           0
    9446 WT1  3191 TIP3 OH2  OT    -0.834000       15.9994           0
    9447 WT1  3191 TIP3 H1   HT     0.417000        1.0080           0
    9448 WT1  3191 TIP3 H2   HT     0.417000        1.0080           0
    9449 WT1  3192 TIP3 OH2  OT    -0.834000       15.9994           0
    9450 WT1  3192 TIP3 H1   HT     0.417000        1.0080           0
    9451 WT1  3192 TIP3 H2   HT     0.417000        1.0080           0
    9452 WT1  3193 TIP3 OH2  OT    -0.834000       15.9994           0
    9453 WT1  3193 TIP3 H1   HT     0.417000        1.0080           0
    9454 WT1  3193 TIP3 H2   HT     0.417000        1.0080           0
    9455 WT1  3194 TIP3 OH2  OT    -0.834000       15.9994           0
    9456 WT1  3194 TIP3 H1   HT     0.417000        1.0080           0
    9457 WT1  3194 TIP3 H2   HT     0.417000        1.0080           0
    9458 WT1  3195 TIP3 OH2  OT    -0.834000       15.9994           0
    9459 WT1  3195 TIP3 H1   HT     0.417000        1.0080           0
    9460 WT1  3195 TIP3 H2   HT     0.417000        1.0080           0
    9461 WT1  3196 TIP3 OH2  OT    -0.834000       15.9994           0
    9462 WT1  3196 TIP3 H1   HT     0.417000        1.0080           0
    9463 WT1  3196 TIP3 H2   HT     0.417000        1.0080           0
    9464 WT1  3197 TIP3 OH2  OT    -0.834000       15.9994           0
    9465 WT1  3197 TIP3 H1   HT     0.417000        1.0080           0
    9466 WT1  3197 TIP3 H2   HT     0.417000        1.0080           0
    9467 WT1  3198 TIP3 OH2  OT    -0.834000       15.9994           0
    9468 WT1  3198 TIP3 H1   HT     0.417000        1.0080           0
    9469 WT1  3198 TIP3 H2   HT     0.417000        1.0080           0
    9470 WT1  3200 TIP3 OH2  OT    -0.834000       15.9994           0
    9471 WT1  3200 TIP3 H1   HT     0.417000        1.0080           0
    9472 WT1  3200 TIP3 H2   HT     0.417000        1.0080           0
    9473 WT1  3202 TIP3 OH2  OT    -0.834000       15.9994           0
    9474 WT1  3202 TIP3 H1   HT     0.417000        1.0080           0
    9475 WT1  3202 TIP3 H2   HT     0.417000        1.0080           0
    9476 WT1  3205 TIP3 OH2  OT    -0.834000       15.9994           0
    9477 WT1  3205 TIP3 H1   HT     0.417000        1.0080           0
    9478 WT1  3205 TIP3 H2   HT     0.417000        1.0080           0
    9479 WT1  3206 TIP3 OH2  OT    -0.834000       15.9994           0
    9480 WT1  3206 TIP3 H1   HT     0.417000        1.0080           0
    9481 WT1  3206 TIP3 H2   HT     0.417000        1.0080           0
    9482 WT1  3207 TIP3 OH2  OT    -0.834000       15.9994           0
    9483 WT1  3207 TIP3 H1   HT     0.417000        1.0080           0
    9484 WT1  3207 TIP3 H2   HT     0.417000        1.0080           0
    9485 WT1  3208 TIP3 OH2  OT    -0.834000       15.9994           0
    9486 WT1  3208 TIP3 H1   HT     0.417000        1.0080           0
    9487 WT1  3208 TIP3 H2   HT     0.417000        1.0080           0
    9488 WT1  3209 TIP3 OH2  OT    -0.834000       15.9994           0
    9489 WT1  3209 TIP3 H1   HT     0.417000        1.0080           0
    9490 WT1  3209 TIP3 H2   HT     0.417000        1.0080           0
    9491 WT1  3210 TIP3 OH2  OT    -0.834000       15.9994           0
    9492 WT1  3210 TIP3 H1   HT     0.417000        1.0080           0
    9493 WT1  3210 TIP3 H2   HT     0.417000        1.0080           0
    9494 WT1  3211 TIP3 OH2  OT    -0.834000       15.9994           0
    9495 WT1  3211 TIP3 H1   HT     0.417000        1.0080           0
    9496 WT1  3211 TIP3 H2   HT     0.417000        1.0080           0
    9497 WT1  3213 TIP3 OH2  OT    -0.834000       15.9994           0
    9498 WT1  3213 TIP3 H1   HT     0.417000        1.0080           0
    9499 WT1  3213 TIP3 H2   HT     0.417000        1.0080           0
    9500 WT1  3214 TIP3 OH2  OT    -0.834000       15.9994           0
    9501 WT1  3214 TIP3 H1   HT     0.417000        1.0080           0
    9502 WT1  3214 TIP3 H2   HT     0.417000        1.0080           0
    9503 WT1  3215 TIP3 OH2  OT    -0.834000       15.9994           0
    9504 WT1  3215 TIP3 H1   HT     0.417000        1.0080           0
    9505 WT1  3215 TIP3 H2   HT     0.417000        1.0080           0
    9506 WT1  3216 TIP3 OH2  OT    -0.834000       15.9994           0
    9507 WT1  3216 TIP3 H1   HT     0.417000        1.0080           0
    9508 WT1  3216 TIP3 H2   HT     0.417000        1.0080           0
    9509 WT1  3219 TIP3 OH2  OT    -0.834000       15.9994           0
    9510 WT1  3219 TIP3 H1   HT     0.417000        1.0080           0
    9511 WT1  3219 TIP3 H2   HT     0.417000        1.0080           0
    9512 WT1  3220 TIP3 OH2  OT    -0.834000       15.9994           0
    9513 WT1  3220 TIP3 H1   HT     0.417000        1.0080           0
    9514 WT1  3220 TIP3 H2   HT     0.417000        1.0080           0
    9515 WT1  3221 TIP3 OH2  OT    -0.834000       15.9994           0
    9516 WT1  3221 TIP3 H1   HT     0.417000        1.0080           0
    9517 WT1  3221 TIP3 H2   HT     0.417000        1.0080           0
    9518 WT1  3223 TIP3 OH2  OT    -0.834000       15.9994           0
    9519 WT1  3223 TIP3 H1   HT     0.417000        1.0080           0
    9520 WT1  3223 TIP3 H2   HT     0.417000        1.0080           0
    9521 WT1  3225 TIP3 OH2  OT    -0.834000       15.9994           0
    9522 WT1  3225 TIP3 H1   HT     0.417000        1.0080           0
    9523 WT1  3225 TIP3 H2   HT     0.417000        1.0080           0
    9524 WT1  3226 TIP3 OH2  OT    -0.834000       15.9994           0
    9525 WT1  3226 TIP3 H1   HT     0.417000        1.0080           0
    9526 WT1  3226 TIP3 H2   HT     0.417000        1.0080           0
    9527 WT1  3227 TIP3 OH2  OT    -0.834000       15.9994           0
    9528 WT1  3227 TIP3 H1   HT     0.417000        1.0080           0
    9529 WT1  3227 TIP3 H2   HT     0.417000        1.0080           0
    9530 WT1  3228 TIP3 OH2  OT    -0.834000       15.9994           0
    9531 WT1  3228 TIP3 H1   HT     0.417000        1.0080           0
    9532 WT1  3228 TIP3 H2   HT     0.417000        1.0080           0
    9533 WT1  3230 TIP3 OH2  OT    -0.834000       15.9994           0
    9534 WT1  3230 TIP3 H1   HT     0.417000        1.0080           0
    9535 WT1  3230 TIP3 H2   HT     0.417000        1.0080           0
    9536 WT1  3231 TIP3 OH2  OT    -0.834000       15.9994           0
    9537 WT1  3231 TIP3 H1   HT     0.417000        1.0080           0
    9538 WT1  3231 TIP3 H2   HT     0.417000        1.0080           0
    9539 WT1  3232 TIP3 OH2  OT    -0.834000       15.9994           0
    9540 WT1  3232 TIP3 H1   HT     0.417000        1.0080           0
    9541 WT1  3232 TIP3 H2   HT     0.417000        1.0080           0
    9542 WT1  3233 TIP3 OH2  OT    -0.834000       15.9994           0
    9543 WT1  3233 TIP3 H1   HT     0.417000        1.0080           0
    9544 WT1  3233 TIP3 H2   HT     0.417000        1.0080           0
    9545 WT1  3234 TIP3 OH2  OT    -0.834000       15.9994           0
    9546 WT1  3234 TIP3 H1   HT     0.417000        1.0080           0
    9547 WT1  3234 TIP3 H2   HT     0.417000        1.0080           0
    9548 WT1  3235 TIP3 OH2  OT    -0.834000       15.9994           0
    9549 WT1  3235 TIP3 H1   HT     0.417000        1.0080           0
    9550 WT1  3235 TIP3 H2   HT     0.417000        1.0080           0
    9551 WT1  3236 TIP3 OH2  OT    -0.834000       15.9994           0
    9552 WT1  3236 TIP3 H1   HT     0.417000        1.0080           0
    9553 WT1  3236 TIP3 H2   HT     0.417000        1.0080           0
    9554 WT1  3237 TIP3 OH2  OT    -0.834000       15.9994           0
    9555 WT1  3237 TIP3 H1   HT     0.417000        1.0080           0
    9556 WT1  3237 TIP3 H2   HT     0.417000        1.0080           0
    9557 WT1  3238 TIP3 OH2  OT    -0.834000       15.9994           0
    9558 WT1  3238 TIP3 H1   HT     0.417000        1.0080           0
    9559 WT1  3238 TIP3 H2   HT     0.417000        1.0080           0
    9560 WT1  3239 TIP3 OH2  OT    -0.834000       15.9994           0
    9561 WT1  3239 TIP3 H1   HT     0.417000        1.0080           0
    9562 WT1  3239 TIP3 H2   HT     0.417000        1.0080           0
    9563 WT1  3240 TIP3 OH2  OT    -0.834000       15.9994           0
    9564 WT1  3240 TIP3 H1   HT     0.417000        1.0080           0
    9565 WT1  3240 TIP3 H2   HT     0.417000        1.0080           0
    9566 WT1  3241 TIP3 OH2  OT    -0.834000       15.9994           0
    9567 WT1  3241 TIP3 H1   HT     0.417000        1.0080           0
    9568 WT1  3241 TIP3 H2   HT     0.417000        1.0080           0
    9569 WT1  3242 TIP3 OH2  OT    -0.834000       15.9994           0
    9570 WT1  3242 TIP3 H1   HT     0.417000        1.0080           0
    9571 WT1  3242 TIP3 H2   HT     0.417000        1.0080           0
    9572 WT1  3243 TIP3 OH2  OT    -0.834000       15.9994           0
    9573 WT1  3243 TIP3 H1   HT     0.417000        1.0080           0
    9574 WT1  3243 TIP3 H2   HT     0.417000        1.0080           0
    9575 WT1  3244 TIP3 OH2  OT    -0.834000       15.9994           0
    9576 WT1  3244 TIP3 H1   HT     0.417000        1.0080           0
    9577 WT1  3244 TIP3 H2   HT     0.417000        1.0080           0
    9578 WT1  3245 TIP3 OH2  OT    -0.834000       15.9994           0
    9579 WT1  3245 TIP3 H1   HT     0.417000        1.0080           0
    9580 WT1  3245 TIP3 H2   HT     0.417000        1.0080           0
    9581 WT1  3246 TIP3 OH2  OT    -0.834000       15.9994           0
    9582 WT1  3246 TIP3 H1   HT     0.417000        1.0080           0
    9583 WT1  3246 TIP3 H2   HT     0.417000        1.0080           0
    9584 WT1  3248 TIP3 OH2  OT    -0.834000       15.9994           0
    9585 WT1  3248 TIP3 H1   HT     0.417000        1.0080           0
    9586 WT1  3248 TIP3 H2   HT     0.417000        1.0080           0
    9587 WT1  3249 TIP3 OH2  OT    -0.834000       15.9994           0
    9588 WT1  3249 TIP3 H1   HT     0.417000        1.0080           0
    9589 WT1  3249 TIP3 H2   HT     0.417000        1.0080           0
    9590 WT1  3250 TIP3 OH2  OT    -0.834000       15.9994           0
    9591 WT1  3250 TIP3 H1   HT     0.417000        1.0080           0
    9592 WT1  3250 TIP3 H2   HT     0.417000        1.0080           0
    9593 WT1  3251 TIP3 OH2  OT    -0.834000       15.9994           0
    9594 WT1  3251 TIP3 H1   HT     0.417000        1.0080           0
    9595 WT1  3251 TIP3 H2   HT     0.417000        1.0080           0
    9596 WT1  3252 TIP3 OH2  OT    -0.834000       15.9994           0
    9597 WT1  3252 TIP3 H1   HT     0.417000        1.0080           0
    9598 WT1  3252 TIP3 H2   HT     0.417000        1.0080           0
    9599 WT1  3253 TIP3 OH2  OT    -0.834000       15.9994           0
    9600 WT1  3253 TIP3 H1   HT     0.417000        1.0080           0
    9601 WT1  3253 TIP3 H2   HT     0.417000        1.0080           0
    9602 WT1  3254 TIP3 OH2  OT    -0.834000       15.9994           0
    9603 WT1  3254 TIP3 H1   HT     0.417000        1.0080           0
    9604 WT1  3254 TIP3 H2   HT     0.417000        1.0080           0
    9605 WT1  3255 TIP3 OH2  OT    -0.834000       15.9994           0
    9606 WT1  3255 TIP3 H1   HT     0.417000        1.0080           0
    9607 WT1  3255 TIP3 H2   HT     0.417000        1.0080           0
    9608 WT1  3256 TIP3 OH2  OT    -0.834000       15.9994           0
    9609 WT1  3256 TIP3 H1   HT     0.417000        1.0080           0
    9610 WT1  3256 TIP3 H2   HT     0.417000        1.0080           0
    9611 WT1  3257 TIP3 OH2  OT    -0.834000       15.9994           0
    9612 WT1  3257 TIP3 H1   HT     0.417000        1.0080           0
    9613 WT1  3257 TIP3 H2   HT     0.417000        1.0080           0
    9614 WT1  3258 TIP3 OH2  OT    -0.834000       15.9994           0
    9615 WT1  3258 TIP3 H1   HT     0.417000        1.0080           0
    9616 WT1  3258 TIP3 H2   HT     0.417000        1.0080           0
    9617 WT1  3260 TIP3 OH2  OT    -0.834000       15.9994           0
    9618 WT1  3260 TIP3 H1   HT     0.417000        1.0080           0
    9619 WT1  3260 TIP3 H2   HT     0.417000        1.0080           0
    9620 WT1  3261 TIP3 OH2  OT    -0.834000       15.9994           0
    9621 WT1  3261 TIP3 H1   HT     0.417000        1.0080           0
    9622 WT1  3261 TIP3 H2   HT     0.417000        1.0080           0
    9623 WT1  3263 TIP3 OH2  OT    -0.834000       15.9994           0
    9624 WT1  3263 TIP3 H1   HT     0.417000        1.0080           0
    9625 WT1  3263 TIP3 H2   HT     0.417000        1.0080           0
    9626 WT1  3265 TIP3 OH2  OT    -0.834000       15.9994           0
    9627 WT1  3265 TIP3 H1   HT     0.417000        1.0080           0
    9628 WT1  3265 TIP3 H2   HT     0.417000        1.0080           0
    9629 WT1  3266 TIP3 OH2  OT    -0.834000       15.9994           0
    9630 WT1  3266 TIP3 H1   HT     0.417000        1.0080           0
    9631 WT1  3266 TIP3 H2   HT     0.417000        1.0080           0
    9632 WT1  3268 TIP3 OH2  OT    -0.834000       15.9994           0
    9633 WT1  3268 TIP3 H1   HT     0.417000        1.0080           0
    9634 WT1  3268 TIP3 H2   HT     0.417000        1.0080           0
    9635 WT1  3269 TIP3 OH2  OT    -0.834000       15.9994           0
    9636 WT1  3269 TIP3 H1   HT     0.417000        1.0080           0
    9637 WT1  3269 TIP3 H2   HT     0.417000        1.0080           0
    9638 WT1  3271 TIP3 OH2  OT    -0.834000       15.9994           0
    9639 WT1  3271 TIP3 H1   HT     0.417000        1.0080           0
    9640 WT1  3271 TIP3 H2   HT     0.417000        1.0080           0
    9641 WT1  3273 TIP3 OH2  OT    -0.834000       15.9994           0
    9642 WT1  3273 TIP3 H1   HT     0.417000        1.0080           0
    9643 WT1  3273 TIP3 H2   HT     0.417000        1.0080           0
    9644 WT1  3274 TIP3 OH2  OT    -0.834000       15.9994           0
    9645 WT1  3274 TIP3 H1   HT     0.417000        1.0080           0
    9646 WT1  3274 TIP3 H2   HT     0.417000        1.0080           0
    9647 WT1  3276 TIP3 OH2  OT    -0.834000       15.9994           0
    9648 WT1  3276 TIP3 H1   HT     0.417000        1.0080           0
    9649 WT1  3276 TIP3 H2   HT     0.417000        1.0080           0
    9650 WT1  3277 TIP3 OH2  OT    -0.834000       15.9994           0
    9651 WT1  3277 TIP3 H1   HT     0.417000        1.0080           0
    9652 WT1  3277 TIP3 H2   HT     0.417000        1.0080           0
    9653 WT1  3278 TIP3 OH2  OT    -0.834000       15.9994           0
    9654 WT1  3278 TIP3 H1   HT     0.417000        1.0080           0
    9655 WT1  3278 TIP3 H2   HT     0.417000        1.0080           0
    9656 WT1  3280 TIP3 OH2  OT    -0.834000       15.9994           0
    9657 WT1  3280 TIP3 H1   HT     0.417000        1.0080           0
    9658 WT1  3280 TIP3 H2   HT     0.417000        1.0080           0
    9659 WT1  3281 TIP3 OH2  OT    -0.834000       15.9994           0
    9660 WT1  3281 TIP3 H1   HT     0.417000        1.0080           0
    9661 WT1  3281 TIP3 H2   HT     0.417000        1.0080           0
    9662 WT1  3282 TIP3 OH2  OT    -0.834000       15.9994           0
    9663 WT1  3282 TIP3 H1   HT     0.417000        1.0080           0
    9664 WT1  3282 TIP3 H2   HT     0.417000        1.0080           0
    9665 WT1  3283 TIP3 OH2  OT    -0.834000       15.9994           0
    9666 WT1  3283 TIP3 H1   HT     0.417000        1.0080           0
    9667 WT1  3283 TIP3 H2   HT     0.417000        1.0080           0
    9668 WT1  3284 TIP3 OH2  OT    -0.834000       15.9994           0
    9669 WT1  3284 TIP3 H1   HT     0.417000        1.0080           0
    9670 WT1  3284 TIP3 H2   HT     0.417000        1.0080           0
    9671 WT1  3286 TIP3 OH2  OT    -0.834000       15.9994           0
    9672 WT1  3286 TIP3 H1   HT     0.417000        1.0080           0
    9673 WT1  3286 TIP3 H2   HT     0.417000        1.0080           0
    9674 WT1  3287 TIP3 OH2  OT    -0.834000       15.9994           0
    9675 WT1  3287 TIP3 H1   HT     0.417000        1.0080           0
    9676 WT1  3287 TIP3 H2   HT     0.417000        1.0080           0
    9677 WT1  3289 TIP3 OH2  OT    -0.834000       15.9994           0
    9678 WT1  3289 TIP3 H1   HT     0.417000        1.0080           0
    9679 WT1  3289 TIP3 H2   HT     0.417000        1.0080           0
    9680 WT1  3291 TIP3 OH2  OT    -0.834000       15.9994           0
    9681 WT1  3291 TIP3 H1   HT     0.417000        1.0080           0
    9682 WT1  3291 TIP3 H2   HT     0.417000        1.0080           0
    9683 WT1  3292 TIP3 OH2  OT    -0.834000       15.9994           0
    9684 WT1  3292 TIP3 H1   HT     0.417000        1.0080           0
    9685 WT1  3292 TIP3 H2   HT     0.417000        1.0080           0
    9686 WT1  3295 TIP3 OH2  OT    -0.834000       15.9994           0
    9687 WT1  3295 TIP3 H1   HT     0.417000        1.0080           0
    9688 WT1  3295 TIP3 H2   HT     0.417000        1.0080           0
    9689 WT1  3297 TIP3 OH2  OT    -0.834000       15.9994           0
    9690 WT1  3297 TIP3 H1   HT     0.417000        1.0080           0
    9691 WT1  3297 TIP3 H2   HT     0.417000        1.0080           0
    9692 WT1  3298 TIP3 OH2  OT    -0.834000       15.9994           0
    9693 WT1  3298 TIP3 H1   HT     0.417000        1.0080           0
    9694 WT1  3298 TIP3 H2   HT     0.417000        1.0080           0
    9695 WT1  3299 TIP3 OH2  OT    -0.834000       15.9994           0
    9696 WT1  3299 TIP3 H1   HT     0.417000        1.0080           0
    9697 WT1  3299 TIP3 H2   HT     0.417000        1.0080           0
    9698 WT1  3300 TIP3 OH2  OT    -0.834000       15.9994           0
    9699 WT1  3300 TIP3 H1   HT     0.417000        1.0080           0
    9700 WT1  3300 TIP3 H2   HT     0.417000        1.0080           0
    9701 WT1  3301 TIP3 OH2  OT    -0.834000       15.9994           0
    9702 WT1  3301 TIP3 H1   HT     0.417000        1.0080           0
    9703 WT1  3301 TIP3 H2   HT     0.417000        1.0080           0
    9704 WT1  3302 TIP3 OH2  OT    -0.834000       15.9994           0
    9705 WT1  3302 TIP3 H1   HT     0.417000        1.0080           0
    9706 WT1  3302 TIP3 H2   HT     0.417000        1.0080           0
    9707 WT1  3304 TIP3 OH2  OT    -0.834000       15.9994           0
    9708 WT1  3304 TIP3 H1   HT     0.417000        1.0080           0
    9709 WT1  3304 TIP3 H2   HT     0.417000        1.0080           0
    9710 WT1  3305 TIP3 OH2  OT    -0.834000       15.9994           0
    9711 WT1  3305 TIP3 H1   HT     0.417000        1.0080           0
    9712 WT1  3305 TIP3 H2   HT     0.417000        1.0080           0
    9713 WT1  3308 TIP3 OH2  OT    -0.834000       15.9994           0
    9714 WT1  3308 TIP3 H1   HT     0.417000        1.0080           0
    9715 WT1  3308 TIP3 H2   HT     0.417000        1.0080           0
    9716 WT1  3309 TIP3 OH2  OT    -0.834000       15.9994           0
    9717 WT1  3309 TIP3 H1   HT     0.417000        1.0080           0
    9718 WT1  3309 TIP3 H2   HT     0.417000        1.0080           0
    9719 WT1  3310 TIP3 OH2  OT    -0.834000       15.9994           0
    9720 WT1  3310 TIP3 H1   HT     0.417000        1.0080           0
    9721 WT1  3310 TIP3 H2   HT     0.417000        1.0080           0
    9722 WT1  3311 TIP3 OH2  OT    -0.834000       15.9994           0
    9723 WT1  3311 TIP3 H1   HT     0.417000        1.0080           0
    9724 WT1  3311 TIP3 H2   HT     0.417000        1.0080           0
    9725 WT1  3312 TIP3 OH2  OT    -0.834000       15.9994           0
    9726 WT1  3312 TIP3 H1   HT     0.417000        1.0080           0
    9727 WT1  3312 TIP3 H2   HT     0.417000        1.0080           0
    9728 WT1  3315 TIP3 OH2  OT    -0.834000       15.9994           0
    9729 WT1  3315 TIP3 H1   HT     0.417000        1.0080           0
    9730 WT1  3315 TIP3 H2   HT     0.417000        1.0080           0
    9731 WT1  3316 TIP3 OH2  OT    -0.834000       15.9994           0
    9732 WT1  3316 TIP3 H1   HT     0.417000        1.0080           0
    9733 WT1  3316 TIP3 H2   HT     0.417000        1.0080           0
    9734 WT1  3317 TIP3 OH2  OT    -0.834000       15.9994           0
    9735 WT1  3317 TIP3 H1   HT     0.417000        1.0080           0
    9736 WT1  3317 TIP3 H2   HT     0.417000        1.0080           0
    9737 WT1  3318 TIP3 OH2  OT    -0.834000       15.9994           0
    9738 WT1  3318 TIP3 H1   HT     0.417000        1.0080           0
    9739 WT1  3318 TIP3 H2   HT     0.417000        1.0080           0
    9740 WT1  3319 TIP3 OH2  OT    -0.834000       15.9994           0
    9741 WT1  3319 TIP3 H1   HT     0.417000        1.0080           0
    9742 WT1  3319 TIP3 H2   HT     0.417000        1.0080           0
    9743 WT1  3320 TIP3 OH2  OT    -0.834000       15.9994           0
    9744 WT1  3320 TIP3 H1   HT     0.417000        1.0080           0
    9745 WT1  3320 TIP3 H2   HT     0.417000        1.0080           0
    9746 WT1  3323 TIP3 OH2  OT    -0.834000       15.9994           0
    9747 WT1  3323 TIP3 H1   HT     0.417000        1.0080           0
    9748 WT1  3323 TIP3 H2   HT     0.417000        1.0080           0
    9749 WT1  3324 TIP3 OH2  OT    -0.834000       15.9994           0
    9750 WT1  3324 TIP3 H1   HT     0.417000        1.0080           0
    9751 WT1  3324 TIP3 H2   HT     0.417000        1.0080           0
    9752 WT1  3325 TIP3 OH2  OT    -0.834000       15.9994           0
    9753 WT1  3325 TIP3 H1   HT     0.417000        1.0080           0
    9754 WT1  3325 TIP3 H2   HT     0.417000        1.0080           0
    9755 WT1  3326 TIP3 OH2  OT    -0.834000       15.9994           0
    9756 WT1  3326 TIP3 H1   HT     0.417000        1.0080           0
    9757 WT1  3326 TIP3 H2   HT     0.417000        1.0080           0
    9758 WT1  3327 TIP3 OH2  OT    -0.834000       15.9994           0
    9759 WT1  3327 TIP3 H1   HT     0.417000        1.0080           0
    9760 WT1  3327 TIP3 H2   HT     0.417000        1.0080           0
    9761 WT1  3328 TIP3 OH2  OT    -0.834000       15.9994           0
    9762 WT1  3328 TIP3 H1   HT     0.417000        1.0080           0
    9763 WT1  3328 TIP3 H2   HT     0.417000        1.0080           0
    9764 WT1  3329 TIP3 OH2  OT    -0.834000       15.9994           0
    9765 WT1  3329 TIP3 H1   HT     0.417000        1.0080           0
    9766 WT1  3329 TIP3 H2   HT     0.417000        1.0080           0
    9767 WT1  3331 TIP3 OH2  OT    -0.834000       15.9994           0
    9768 WT1  3331 TIP3 H1   HT     0.417000        1.0080           0
    9769 WT1  3331 TIP3 H2   HT     0.417000        1.0080           0
    9770 WT1  3332 TIP3 OH2  OT    -0.834000       15.9994           0
    9771 WT1  3332 TIP3 H1   HT     0.417000        1.0080           0
    9772 WT1  3332 TIP3 H2   HT     0.417000        1.0080           0
    9773 WT1  3333 TIP3 OH2  OT    -0.834000       15.9994           0
    9774 WT1  3333 TIP3 H1   HT     0.417000        1.0080           0
    9775 WT1  3333 TIP3 H2   HT     0.417000        1.0080           0
    9776 WT1  3334 TIP3 OH2  OT    -0.834000       15.9994           0
    9777 WT1  3334 TIP3 H1   HT     0.417000        1.0080           0
    9778 WT1  3334 TIP3 H2   HT     0.417000        1.0080           0
    9779 WT1  3335 TIP3 OH2  OT    -0.834000       15.9994           0
    9780 WT1  3335 TIP3 H1   HT     0.417000        1.0080           0
    9781 WT1  3335 TIP3 H2   HT     0.417000        1.0080           0
    9782 WT1  3336 TIP3 OH2  OT    -0.834000       15.9994           0
    9783 WT1  3336 TIP3 H1   HT     0.417000        1.0080           0
    9784 WT1  3336 TIP3 H2   HT     0.417000        1.0080           0
    9785 WT1  3337 TIP3 OH2  OT    -0.834000       15.9994           0
    9786 WT1  3337 TIP3 H1   HT     0.417000        1.0080           0
    9787 WT1  3337 TIP3 H2   HT     0.417000        1.0080           0
    9788 WT1  3338 TIP3 OH2  OT    -0.834000       15.9994           0
    9789 WT1  3338 TIP3 H1   HT     0.417000        1.0080           0
    9790 WT1  3338 TIP3 H2   HT     0.417000        1.0080           0
    9791 WT1  3339 TIP3 OH2  OT    -0.834000       15.9994           0
    9792 WT1  3339 TIP3 H1   HT     0.417000        1.0080           0
    9793 WT1  3339 TIP3 H2   HT     0.417000        1.0080           0
    9794 WT1  3341 TIP3 OH2  OT    -0.834000       15.9994           0
    9795 WT1  3341 TIP3 H1   HT     0.417000        1.0080           0
    9796 WT1  3341 TIP3 H2   HT     0.417000        1.0080           0
    9797 WT1  3342 TIP3 OH2  OT    -0.834000       15.9994           0
    9798 WT1  3342 TIP3 H1   HT     0.417000        1.0080           0
    9799 WT1  3342 TIP3 H2   HT     0.417000        1.0080           0
    9800 WT1  3343 TIP3 OH2  OT    -0.834000       15.9994           0
    9801 WT1  3343 TIP3 H1   HT     0.417000        1.0080           0
    9802 WT1  3343 TIP3 H2   HT     0.417000        1.0080           0
    9803 WT1  3344 TIP3 OH2  OT    -0.834000       15.9994           0
    9804 WT1  3344 TIP3 H1   HT     0.417000        1.0080           0
    9805 WT1  3344 TIP3 H2   HT     0.417000        1.0080           0
    9806 WT1  3347 TIP3 OH2  OT    -0.834000       15.9994           0
    9807 WT1  3347 TIP3 H1   HT     0.417000        1.0080           0
    9808 WT1  3347 TIP3 H2   HT     0.417000        1.0080           0
    9809 WT1  3349 TIP3 OH2  OT    -0.834000       15.9994           0
    9810 WT1  3349 TIP3 H1   HT     0.417000        1.0080           0
    9811 WT1  3349 TIP3 H2   HT     0.417000        1.0080           0
    9812 WT1  3350 TIP3 OH2  OT    -0.834000       15.9994           0
    9813 WT1  3350 TIP3 H1   HT     0.417000        1.0080           0
    9814 WT1  3350 TIP3 H2   HT     0.417000        1.0080           0
    9815 WT1  3357 TIP3 OH2  OT    -0.834000       15.9994           0
    9816 WT1  3357 TIP3 H1   HT     0.417000        1.0080           0
    9817 WT1  3357 TIP3 H2   HT     0.417000        1.0080           0
    9818 WT1  3359 TIP3 OH2  OT    -0.834000       15.9994           0
    9819 WT1  3359 TIP3 H1   HT     0.417000        1.0080           0
    9820 WT1  3359 TIP3 H2   HT     0.417000        1.0080           0
    9821 WT1  3360 TIP3 OH2  OT    -0.834000       15.9994           0
    9822 WT1  3360 TIP3 H1   HT     0.417000        1.0080           0
    9823 WT1  3360 TIP3 H2   HT     0.417000        1.0080           0
    9824 WT1  3361 TIP3 OH2  OT    -0.834000       15.9994           0
    9825 WT1  3361 TIP3 H1   HT     0.417000        1.0080           0
    9826 WT1  3361 TIP3 H2   HT     0.417000        1.0080           0
    9827 WT1  3362 TIP3 OH2  OT    -0.834000       15.9994           0
    9828 WT1  3362 TIP3 H1   HT     0.417000        1.0080           0
    9829 WT1  3362 TIP3 H2   HT     0.417000        1.0080           0
    9830 WT1  3363 TIP3 OH2  OT    -0.834000       15.9994           0
    9831 WT1  3363 TIP3 H1   HT     0.417000        1.0080           0
    9832 WT1  3363 TIP3 H2   HT     0.417000        1.0080           0
    9833 WT1  3364 TIP3 OH2  OT    -0.834000       15.9994           0
    9834 WT1  3364 TIP3 H1   HT     0.417000        1.0080           0
    9835 WT1  3364 TIP3 H2   HT     0.417000        1.0080           0
    9836 WT1  3365 TIP3 OH2  OT    -0.834000       15.9994           0
    9837 WT1  3365 TIP3 H1   HT     0.417000        1.0080           0
    9838 WT1  3365 TIP3 H2   HT     0.417000        1.0080           0
    9839 WT1  3366 TIP3 OH2  OT    -0.834000       15.9994           0
    9840 WT1  3366 TIP3 H1   HT     0.417000        1.0080           0
    9841 WT1  3366 TIP3 H2   HT     0.417000        1.0080           0
    9842 WT1  3368 TIP3 OH2  OT    -0.834000       15.9994           0
    9843 WT1  3368 TIP3 H1   HT     0.417000        1.0080           0
    9844 WT1  3368 TIP3 H2   HT     0.417000        1.0080           0
    9845 WT1  3370 TIP3 OH2  OT    -0.834000       15.9994           0
    9846 WT1  3370 TIP3 H1   HT     0.417000        1.0080           0
    9847 WT1  3370 TIP3 H2   HT     0.417000        1.0080           0
    9848 WT1  3371 TIP3 OH2  OT    -0.834000       15.9994           0
    9849 WT1  3371 TIP3 H1   HT     0.417000        1.0080           0
    9850 WT1  3371 TIP3 H2   HT     0.417000        1.0080           0
    9851 WT1  3372 TIP3 OH2  OT    -0.834000       15.9994           0
    9852 WT1  3372 TIP3 H1   HT     0.417000        1.0080           0
    9853 WT1  3372 TIP3 H2   HT     0.417000        1.0080           0
    9854 WT1  3373 TIP3 OH2  OT    -0.834000       15.9994           0
    9855 WT1  3373 TIP3 H1   HT     0.417000        1.0080           0
    9856 WT1  3373 TIP3 H2   HT     0.417000        1.0080           0
    9857 WT1  3374 TIP3 OH2  OT    -0.834000       15.9994           0
    9858 WT1  3374 TIP3 H1   HT     0.417000        1.0080           0
    9859 WT1  3374 TIP3 H2   HT     0.417000        1.0080           0
    9860 WT1  3375 TIP3 OH2  OT    -0.834000       15.9994           0
    9861 WT1  3375 TIP3 H1   HT     0.417000        1.0080           0
    9862 WT1  3375 TIP3 H2   HT     0.417000        1.0080           0
    9863 WT1  3376 TIP3 OH2  OT    -0.834000       15.9994           0
    9864 WT1  3376 TIP3 H1   HT     0.417000        1.0080           0
    9865 WT1  3376 TIP3 H2   HT     0.417000        1.0080           0
    9866 WT1  3377 TIP3 OH2  OT    -0.834000       15.9994           0
    9867 WT1  3377 TIP3 H1   HT     0.417000        1.0080           0
    9868 WT1  3377 TIP3 H2   HT     0.417000        1.0080           0
    9869 WT1  3378 TIP3 OH2  OT    -0.834000       15.9994           0
    9870 WT1  3378 TIP3 H1   HT     0.417000        1.0080           0
    9871 WT1  3378 TIP3 H2   HT     0.417000        1.0080           0
    9872 WT1  3379 TIP3 OH2  OT    -0.834000       15.9994           0
    9873 WT1  3379 TIP3 H1   HT     0.417000        1.0080           0
    9874 WT1  3379 TIP3 H2   HT     0.417000        1.0080           0
    9875 WT1  3380 TIP3 OH2  OT    -0.834000       15.9994           0
    9876 WT1  3380 TIP3 H1   HT     0.417000        1.0080           0
    9877 WT1  3380 TIP3 H2   HT     0.417000        1.0080           0
    9878 WT1  3383 TIP3 OH2  OT    -0.834000       15.9994           0
    9879 WT1  3383 TIP3 H1   HT     0.417000        1.0080           0
    9880 WT1  3383 TIP3 H2   HT     0.417000        1.0080           0
    9881 WT1  3384 TIP3 OH2  OT    -0.834000       15.9994           0
    9882 WT1  3384 TIP3 H1   HT     0.417000        1.0080           0
    9883 WT1  3384 TIP3 H2   HT     0.417000        1.0080           0
    9884 WT1  3385 TIP3 OH2  OT    -0.834000       15.9994           0
    9885 WT1  3385 TIP3 H1   HT     0.417000        1.0080           0
    9886 WT1  3385 TIP3 H2   HT     0.417000        1.0080           0
    9887 WT1  3386 TIP3 OH2  OT    -0.834000       15.9994           0
    9888 WT1  3386 TIP3 H1   HT     0.417000        1.0080           0
    9889 WT1  3386 TIP3 H2   HT     0.417000        1.0080           0
    9890 WT1  3387 TIP3 OH2  OT    -0.834000       15.9994           0
    9891 WT1  3387 TIP3 H1   HT     0.417000        1.0080           0
    9892 WT1  3387 TIP3 H2   HT     0.417000        1.0080           0
    9893 WT1  3388 TIP3 OH2  OT    -0.834000       15.9994           0
    9894 WT1  3388 TIP3 H1   HT     0.417000        1.0080           0
    9895 WT1  3388 TIP3 H2   HT     0.417000        1.0080           0
    9896 WT1  3389 TIP3 OH2  OT    -0.834000       15.9994           0
    9897 WT1  3389 TIP3 H1   HT     0.417000        1.0080           0
    9898 WT1  3389 TIP3 H2   HT     0.417000        1.0080           0
    9899 WT1  3390 TIP3 OH2  OT    -0.834000       15.9994           0
    9900 WT1  3390 TIP3 H1   HT     0.417000        1.0080           0
    9901 WT1  3390 TIP3 H2   HT     0.417000        1.0080           0
    9902 WT1  3391 TIP3 OH2  OT    -0.834000       15.9994           0
    9903 WT1  3391 TIP3 H1   HT     0.417000        1.0080           0
    9904 WT1  3391 TIP3 H2   HT     0.417000        1.0080           0
    9905 WT1  3392 TIP3 OH2  OT    -0.834000       15.9994           0
    9906 WT1  3392 TIP3 H1   HT     0.417000        1.0080           0
    9907 WT1  3392 TIP3 H2   HT     0.417000        1.0080           0
    9908 WT1  3393 TIP3 OH2  OT    -0.834000       15.9994           0
    9909 WT1  3393 TIP3 H1   HT     0.417000        1.0080           0
    9910 WT1  3393 TIP3 H2   HT     0.417000        1.0080           0
    9911 WT1  3394 TIP3 OH2  OT    -0.834000       15.9994           0
    9912 WT1  3394 TIP3 H1   HT     0.417000        1.0080           0
    9913 WT1  3394 TIP3 H2   HT     0.417000        1.0080           0
    9914 WT1  3395 TIP3 OH2  OT    -0.834000       15.9994           0
    9915 WT1  3395 TIP3 H1   HT     0.417000        1.0080           0
    9916 WT1  3395 TIP3 H2   HT     0.417000        1.0080           0
    9917 WT1  3397 TIP3 OH2  OT    -0.834000       15.9994           0
    9918 WT1  3397 TIP3 H1   HT     0.417000        1.0080           0
    9919 WT1  3397 TIP3 H2   HT     0.417000        1.0080           0
    9920 WT1  3398 TIP3 OH2  OT    -0.834000       15.9994           0
    9921 WT1  3398 TIP3 H1   HT     0.417000        1.0080           0
    9922 WT1  3398 TIP3 H2   HT     0.417000        1.0080           0
    9923 WT1  3399 TIP3 OH2  OT    -0.834000       15.9994           0
    9924 WT1  3399 TIP3 H1   HT     0.417000        1.0080           0
    9925 WT1  3399 TIP3 H2   HT     0.417000        1.0080           0
    9926 WT1  3400 TIP3 OH2  OT    -0.834000       15.9994           0
    9927 WT1  3400 TIP3 H1   HT     0.417000        1.0080           0
    9928 WT1  3400 TIP3 H2   HT     0.417000        1.0080           0
    9929 WT1  3401 TIP3 OH2  OT    -0.834000       15.9994           0
    9930 WT1  3401 TIP3 H1   HT     0.417000        1.0080           0
    9931 WT1  3401 TIP3 H2   HT     0.417000        1.0080           0
    9932 WT1  3402 TIP3 OH2  OT    -0.834000       15.9994           0
    9933 WT1  3402 TIP3 H1   HT     0.417000        1.0080           0
    9934 WT1  3402 TIP3 H2   HT     0.417000        1.0080           0
    9935 WT1  3403 TIP3 OH2  OT    -0.834000       15.9994           0
    9936 WT1  3403 TIP3 H1   HT     0.417000        1.0080           0
    9937 WT1  3403 TIP3 H2   HT     0.417000        1.0080           0
    9938 WT1  3404 TIP3 OH2  OT    -0.834000       15.9994           0
    9939 WT1  3404 TIP3 H1   HT     0.417000        1.0080           0
    9940 WT1  3404 TIP3 H2   HT     0.417000        1.0080           0
    9941 WT1  3405 TIP3 OH2  OT    -0.834000       15.9994           0
    9942 WT1  3405 TIP3 H1   HT     0.417000        1.0080           0
    9943 WT1  3405 TIP3 H2   HT     0.417000        1.0080           0
    9944 WT1  3407 TIP3 OH2  OT    -0.834000       15.9994           0
    9945 WT1  3407 TIP3 H1   HT     0.417000        1.0080           0
    9946 WT1  3407 TIP3 H2   HT     0.417000        1.0080           0
    9947 WT1  3408 TIP3 OH2  OT    -0.834000       15.9994           0
    9948 WT1  3408 TIP3 H1   HT     0.417000        1.0080           0
    9949 WT1  3408 TIP3 H2   HT     0.417000        1.0080           0
    9950 WT1  3409 TIP3 OH2  OT    -0.834000       15.9994           0
    9951 WT1  3409 TIP3 H1   HT     0.417000        1.0080           0
    9952 WT1  3409 TIP3 H2   HT     0.417000        1.0080           0
    9953 WT1  3411 TIP3 OH2  OT    -0.834000       15.9994           0
    9954 WT1  3411 TIP3 H1   HT     0.417000        1.0080           0
    9955 WT1  3411 TIP3 H2   HT     0.417000        1.0080           0
    9956 WT1  3412 TIP3 OH2  OT    -0.834000       15.9994           0
    9957 WT1  3412 TIP3 H1   HT     0.417000        1.0080           0
    9958 WT1  3412 TIP3 H2   HT     0.417000        1.0080           0
    9959 WT1  3413 TIP3 OH2  OT    -0.834000       15.9994           0
    9960 WT1  3413 TIP3 H1   HT     0.417000        1.0080           0
    9961 WT1  3413 TIP3 H2   HT     0.417000        1.0080           0
    9962 WT1  3414 TIP3 OH2  OT    -0.834000       15.9994           0
    9963 WT1  3414 TIP3 H1   HT     0.417000        1.0080           0
    9964 WT1  3414 TIP3 H2   HT     0.417000        1.0080           0
    9965 WT1  3415 TIP3 OH2  OT    -0.834000       15.9994           0
    9966 WT1  3415 TIP3 H1   HT     0.417000        1.0080           0
    9967 WT1  3415 TIP3 H2   HT     0.417000        1.0080           0
    9968 WT1  3416 TIP3 OH2  OT    -0.834000       15.9994           0
    9969 WT1  3416 TIP3 H1   HT     0.417000        1.0080           0
    9970 WT1  3416 TIP3 H2   HT     0.417000        1.0080           0
    9971 WT1  3417 TIP3 OH2  OT    -0.834000       15.9994           0
    9972 WT1  3417 TIP3 H1   HT     0.417000        1.0080           0
    9973 WT1  3417 TIP3 H2   HT     0.417000        1.0080           0
    9974 WT1  3419 TIP3 OH2  OT    -0.834000       15.9994           0
    9975 WT1  3419 TIP3 H1   HT     0.417000        1.0080           0
    9976 WT1  3419 TIP3 H2   HT     0.417000        1.0080           0
    9977 WT1  3420 TIP3 OH2  OT    -0.834000       15.9994           0
    9978 WT1  3420 TIP3 H1   HT     0.417000        1.0080           0
    9979 WT1  3420 TIP3 H2   HT     0.417000        1.0080           0
    9980 WT1  3422 TIP3 OH2  OT    -0.834000       15.9994           0
    9981 WT1  3422 TIP3 H1   HT     0.417000        1.0080           0
    9982 WT1  3422 TIP3 H2   HT     0.417000        1.0080           0
    9983 WT1  3423 TIP3 OH2  OT    -0.834000       15.9994           0
    9984 WT1  3423 TIP3 H1   HT     0.417000        1.0080           0
    9985 WT1  3423 TIP3 H2   HT     0.417000        1.0080           0
    9986 WT1  3424 TIP3 OH2  OT    -0.834000       15.9994           0
    9987 WT1  3424 TIP3 H1   HT     0.417000        1.0080           0
    9988 WT1  3424 TIP3 H2   HT     0.417000        1.0080           0
    9989 WT1  3425 TIP3 OH2  OT    -0.834000       15.9994           0
    9990 WT1  3425 TIP3 H1   HT     0.417000        1.0080           0
    9991 WT1  3425 TIP3 H2   HT     0.417000        1.0080           0
    9992 WT1  3426 TIP3 OH2  OT    -0.834000       15.9994           0
    9993 WT1  3426 TIP3 H1   HT     0.417000        1.0080           0
    9994 WT1  3426 TIP3 H2   HT     0.417000        1.0080           0
    9995 WT1  3427 TIP3 OH2  OT    -0.834000       15.9994           0
    9996 WT1  3427 TIP3 H1   HT     0.417000        1.0080           0
    9997 WT1  3427 TIP3 H2   HT     0.417000        1.0080           0
    9998 WT1  3428 TIP3 OH2  OT    -0.834000       15.9994           0
    9999 WT1  3428 TIP3 H1   HT     0.417000        1.0080           0
   10000 WT1  3428 TIP3 H2   HT     0.417000        1.0080           0
   10001 WT1  3429 TIP3 OH2  OT    -0.834000       15.9994           0
   10002 WT1  3429 TIP3 H1   HT     0.417000        1.0080           0
   10003 WT1  3429 TIP3 H2   HT     0.417000        1.0080           0
   10004 WT1  3430 TIP3 OH2  OT    -0.834000       15.9994           0
   10005 WT1  3430 TIP3 H1   HT     0.417000        1.0080           0
   10006 WT1  3430 TIP3 H2   HT     0.417000        1.0080           0
   10007 WT1  3431 TIP3 OH2  OT    -0.834000       15.9994           0
   10008 WT1  3431 TIP3 H1   HT     0.417000        1.0080           0
   10009 WT1  3431 TIP3 H2   HT     0.417000        1.0080           0
   10010 WT1  3432 TIP3 OH2  OT    -0.834000       15.9994           0
   10011 WT1  3432 TIP3 H1   HT     0.417000        1.0080           0
   10012 WT1  3432 TIP3 H2   HT     0.417000        1.0080           0
   10013 WT1  3433 TIP3 OH2  OT    -0.834000       15.9994           0
   10014 WT1  3433 TIP3 H1   HT     0.417000        1.0080           0
   10015 WT1  3433 TIP3 H2   HT     0.417000        1.0080           0
   10016 WT1  3434 TIP3 OH2  OT    -0.834000       15.9994           0
   10017 WT1  3434 TIP3 H1   HT     0.417000        1.0080           0
   10018 WT1  3434 TIP3 H2   HT     0.417000        1.0080           0
   10019 WT1  3435 TIP3 OH2  OT    -0.834000       15.9994           0
   10020 WT1  3435 TIP3 H1   HT     0.417000        1.0080           0
   10021 WT1  3435 TIP3 H2   HT     0.417000        1.0080           0
   10022 WT1  3436 TIP3 OH2  OT    -0.834000       15.9994           0
   10023 WT1  3436 TIP3 H1   HT     0.417000        1.0080           0
   10024 WT1  3436 TIP3 H2   HT     0.417000        1.0080           0
   10025 WT1  3437 TIP3 OH2  OT    -0.834000       15.9994           0
   10026 WT1  3437 TIP3 H1   HT     0.417000        1.0080           0
   10027 WT1  3437 TIP3 H2   HT     0.417000        1.0080           0
   10028 WT1  3438 TIP3 OH2  OT    -0.834000       15.9994           0
   10029 WT1  3438 TIP3 H1   HT     0.417000        1.0080           0
   10030 WT1  3438 TIP3 H2   HT     0.417000        1.0080           0
   10031 WT1  3440 TIP3 OH2  OT    -0.834000       15.9994           0
   10032 WT1  3440 TIP3 H1   HT     0.417000        1.0080           0
   10033 WT1  3440 TIP3 H2   HT     0.417000        1.0080           0
   10034 WT1  3441 TIP3 OH2  OT    -0.834000       15.9994           0
   10035 WT1  3441 TIP3 H1   HT     0.417000        1.0080           0
   10036 WT1  3441 TIP3 H2   HT     0.417000        1.0080           0
   10037 WT1  3444 TIP3 OH2  OT    -0.834000       15.9994           0
   10038 WT1  3444 TIP3 H1   HT     0.417000        1.0080           0
   10039 WT1  3444 TIP3 H2   HT     0.417000        1.0080           0
   10040 WT1  3445 TIP3 OH2  OT    -0.834000       15.9994           0
   10041 WT1  3445 TIP3 H1   HT     0.417000        1.0080           0
   10042 WT1  3445 TIP3 H2   HT     0.417000        1.0080           0
   10043 WT1  3446 TIP3 OH2  OT    -0.834000       15.9994           0
   10044 WT1  3446 TIP3 H1   HT     0.417000        1.0080           0
   10045 WT1  3446 TIP3 H2   HT     0.417000        1.0080           0
   10046 WT1  3447 TIP3 OH2  OT    -0.834000       15.9994           0
   10047 WT1  3447 TIP3 H1   HT     0.417000        1.0080           0
   10048 WT1  3447 TIP3 H2   HT     0.417000        1.0080           0
   10049 WT1  3449 TIP3 OH2  OT    -0.834000       15.9994           0
   10050 WT1  3449 TIP3 H1   HT     0.417000        1.0080           0
   10051 WT1  3449 TIP3 H2   HT     0.417000        1.0080           0
   10052 WT1  3450 TIP3 OH2  OT    -0.834000       15.9994           0
   10053 WT1  3450 TIP3 H1   HT     0.417000        1.0080           0
   10054 WT1  3450 TIP3 H2   HT     0.417000        1.0080           0
   10055 WT1  3451 TIP3 OH2  OT    -0.834000       15.9994           0
   10056 WT1  3451 TIP3 H1   HT     0.417000        1.0080           0
   10057 WT1  3451 TIP3 H2   HT     0.417000        1.0080           0
   10058 WT1  3452 TIP3 OH2  OT    -0.834000       15.9994           0
   10059 WT1  3452 TIP3 H1   HT     0.417000        1.0080           0
   10060 WT1  3452 TIP3 H2   HT     0.417000        1.0080           0
   10061 WT1  3453 TIP3 OH2  OT    -0.834000       15.9994           0
   10062 WT1  3453 TIP3 H1   HT     0.417000        1.0080           0
   10063 WT1  3453 TIP3 H2   HT     0.417000        1.0080           0
   10064 WT1  3454 TIP3 OH2  OT    -0.834000       15.9994           0
   10065 WT1  3454 TIP3 H1   HT     0.417000        1.0080           0
   10066 WT1  3454 TIP3 H2   HT     0.417000        1.0080           0
   10067 WT1  3455 TIP3 OH2  OT    -0.834000       15.9994           0
   10068 WT1  3455 TIP3 H1   HT     0.417000        1.0080           0
   10069 WT1  3455 TIP3 H2   HT     0.417000        1.0080           0
   10070 WT1  3456 TIP3 OH2  OT    -0.834000       15.9994           0
   10071 WT1  3456 TIP3 H1   HT     0.417000        1.0080           0
   10072 WT1  3456 TIP3 H2   HT     0.417000        1.0080           0
   10073 WT1  3457 TIP3 OH2  OT    -0.834000       15.9994           0
   10074 WT1  3457 TIP3 H1   HT     0.417000        1.0080           0
   10075 WT1  3457 TIP3 H2   HT     0.417000        1.0080           0
   10076 WT1  3458 TIP3 OH2  OT    -0.834000       15.9994           0
   10077 WT1  3458 TIP3 H1   HT     0.417000        1.0080           0
   10078 WT1  3458 TIP3 H2   HT     0.417000        1.0080           0
   10079 WT1  3459 TIP3 OH2  OT    -0.834000       15.9994           0
   10080 WT1  3459 TIP3 H1   HT     0.417000        1.0080           0
   10081 WT1  3459 TIP3 H2   HT     0.417000        1.0080           0
   10082 WT1  3460 TIP3 OH2  OT    -0.834000       15.9994           0
   10083 WT1  3460 TIP3 H1   HT     0.417000        1.0080           0
   10084 WT1  3460 TIP3 H2   HT     0.417000        1.0080           0
   10085 WT1  3461 TIP3 OH2  OT    -0.834000       15.9994           0
   10086 WT1  3461 TIP3 H1   HT     0.417000        1.0080           0
   10087 WT1  3461 TIP3 H2   HT     0.417000        1.0080           0
   10088 WT1  3462 TIP3 OH2  OT    -0.834000       15.9994           0
   10089 WT1  3462 TIP3 H1   HT     0.417000        1.0080           0
   10090 WT1  3462 TIP3 H2   HT     0.417000        1.0080           0
   10091 WT1  3463 TIP3 OH2  OT    -0.834000       15.9994           0
   10092 WT1  3463 TIP3 H1   HT     0.417000        1.0080           0
   10093 WT1  3463 TIP3 H2   HT     0.417000        1.0080           0
   10094 WT1  3464 TIP3 OH2  OT    -0.834000       15.9994           0
   10095 WT1  3464 TIP3 H1   HT     0.417000        1.0080           0
   10096 WT1  3464 TIP3 H2   HT     0.417000        1.0080           0
   10097 WT1  3465 TIP3 OH2  OT    -0.834000       15.9994           0
   10098 WT1  3465 TIP3 H1   HT     0.417000        1.0080           0
   10099 WT1  3465 TIP3 H2   HT     0.417000        1.0080           0
   10100 WT1  3466 TIP3 OH2  OT    -0.834000       15.9994           0
   10101 WT1  3466 TIP3 H1   HT     0.417000        1.0080           0
   10102 WT1  3466 TIP3 H2   HT     0.417000        1.0080           0
   10103 WT1  3467 TIP3 OH2  OT    -0.834000       15.9994           0
   10104 WT1  3467 TIP3 H1   HT     0.417000        1.0080           0
   10105 WT1  3467 TIP3 H2   HT     0.417000        1.0080           0
   10106 WT1  3468 TIP3 OH2  OT    -0.834000       15.9994           0
   10107 WT1  3468 TIP3 H1   HT     0.417000        1.0080           0
   10108 WT1  3468 TIP3 H2   HT     0.417000        1.0080           0
   10109 WT1  3469 TIP3 OH2  OT    -0.834000       15.9994           0
   10110 WT1  3469 TIP3 H1   HT     0.417000        1.0080           0
   10111 WT1  3469 TIP3 H2   HT     0.417000        1.0080           0
   10112 WT1  3470 TIP3 OH2  OT    -0.834000       15.9994           0
   10113 WT1  3470 TIP3 H1   HT     0.417000        1.0080           0
   10114 WT1  3470 TIP3 H2   HT     0.417000        1.0080           0
   10115 WT1  3471 TIP3 OH2  OT    -0.834000       15.9994           0
   10116 WT1  3471 TIP3 H1   HT     0.417000        1.0080           0
   10117 WT1  3471 TIP3 H2   HT     0.417000        1.0080           0
   10118 WT1  3472 TIP3 OH2  OT    -0.834000       15.9994           0
   10119 WT1  3472 TIP3 H1   HT     0.417000        1.0080           0
   10120 WT1  3472 TIP3 H2   HT     0.417000        1.0080           0
   10121 WT1  3473 TIP3 OH2  OT    -0.834000       15.9994           0
   10122 WT1  3473 TIP3 H1   HT     0.417000        1.0080           0
   10123 WT1  3473 TIP3 H2   HT     0.417000        1.0080           0
   10124 WT1  3474 TIP3 OH2  OT    -0.834000       15.9994           0
   10125 WT1  3474 TIP3 H1   HT     0.417000        1.0080           0
   10126 WT1  3474 TIP3 H2   HT     0.417000        1.0080           0
   10127 WT1  3475 TIP3 OH2  OT    -0.834000       15.9994           0
   10128 WT1  3475 TIP3 H1   HT     0.417000        1.0080           0
   10129 WT1  3475 TIP3 H2   HT     0.417000        1.0080           0
   10130 WT1  3476 TIP3 OH2  OT    -0.834000       15.9994           0
   10131 WT1  3476 TIP3 H1   HT     0.417000        1.0080           0
   10132 WT1  3476 TIP3 H2   HT     0.417000        1.0080           0
   10133 WT1  3478 TIP3 OH2  OT    -0.834000       15.9994           0
   10134 WT1  3478 TIP3 H1   HT     0.417000        1.0080           0
   10135 WT1  3478 TIP3 H2   HT     0.417000        1.0080           0
   10136 WT1  3479 TIP3 OH2  OT    -0.834000       15.9994           0
   10137 WT1  3479 TIP3 H1   HT     0.417000        1.0080           0
   10138 WT1  3479 TIP3 H2   HT     0.417000        1.0080           0
   10139 WT1  3481 TIP3 OH2  OT    -0.834000       15.9994           0
   10140 WT1  3481 TIP3 H1   HT     0.417000        1.0080           0
   10141 WT1  3481 TIP3 H2   HT     0.417000        1.0080           0
   10142 WT1  3482 TIP3 OH2  OT    -0.834000       15.9994           0
   10143 WT1  3482 TIP3 H1   HT     0.417000        1.0080           0
   10144 WT1  3482 TIP3 H2   HT     0.417000        1.0080           0
   10145 WT1  3483 TIP3 OH2  OT    -0.834000       15.9994           0
   10146 WT1  3483 TIP3 H1   HT     0.417000        1.0080           0
   10147 WT1  3483 TIP3 H2   HT     0.417000        1.0080           0
   10148 WT1  3484 TIP3 OH2  OT    -0.834000       15.9994           0
   10149 WT1  3484 TIP3 H1   HT     0.417000        1.0080           0
   10150 WT1  3484 TIP3 H2   HT     0.417000        1.0080           0
   10151 WT1  3485 TIP3 OH2  OT    -0.834000       15.9994           0
   10152 WT1  3485 TIP3 H1   HT     0.417000        1.0080           0
   10153 WT1  3485 TIP3 H2   HT     0.417000        1.0080           0
   10154 WT1  3486 TIP3 OH2  OT    -0.834000       15.9994           0
   10155 WT1  3486 TIP3 H1   HT     0.417000        1.0080           0
   10156 WT1  3486 TIP3 H2   HT     0.417000        1.0080           0
   10157 WT1  3487 TIP3 OH2  OT    -0.834000       15.9994           0
   10158 WT1  3487 TIP3 H1   HT     0.417000        1.0080           0
   10159 WT1  3487 TIP3 H2   HT     0.417000        1.0080           0
   10160 WT1  3488 TIP3 OH2  OT    -0.834000       15.9994           0
   10161 WT1  3488 TIP3 H1   HT     0.417000        1.0080           0
   10162 WT1  3488 TIP3 H2   HT     0.417000        1.0080           0
   10163 WT1  3490 TIP3 OH2  OT    -0.834000       15.9994           0
   10164 WT1  3490 TIP3 H1   HT     0.417000        1.0080           0
   10165 WT1  3490 TIP3 H2   HT     0.417000        1.0080           0
   10166 WT1  3492 TIP3 OH2  OT    -0.834000       15.9994           0
   10167 WT1  3492 TIP3 H1   HT     0.417000        1.0080           0
   10168 WT1  3492 TIP3 H2   HT     0.417000        1.0080           0
   10169 WT1  3494 TIP3 OH2  OT    -0.834000       15.9994           0
   10170 WT1  3494 TIP3 H1   HT     0.417000        1.0080           0
   10171 WT1  3494 TIP3 H2   HT     0.417000        1.0080           0
   10172 WT1  3495 TIP3 OH2  OT    -0.834000       15.9994           0
   10173 WT1  3495 TIP3 H1   HT     0.417000        1.0080           0
   10174 WT1  3495 TIP3 H2   HT     0.417000        1.0080           0
   10175 WT1  3496 TIP3 OH2  OT    -0.834000       15.9994           0
   10176 WT1  3496 TIP3 H1   HT     0.417000        1.0080           0
   10177 WT1  3496 TIP3 H2   HT     0.417000        1.0080           0
   10178 WT1  3497 TIP3 OH2  OT    -0.834000       15.9994           0
   10179 WT1  3497 TIP3 H1   HT     0.417000        1.0080           0
   10180 WT1  3497 TIP3 H2   HT     0.417000        1.0080           0
   10181 WT1  3498 TIP3 OH2  OT    -0.834000       15.9994           0
   10182 WT1  3498 TIP3 H1   HT     0.417000        1.0080           0
   10183 WT1  3498 TIP3 H2   HT     0.417000        1.0080           0
   10184 WT1  3499 TIP3 OH2  OT    -0.834000       15.9994           0
   10185 WT1  3499 TIP3 H1   HT     0.417000        1.0080           0
   10186 WT1  3499 TIP3 H2   HT     0.417000        1.0080           0
   10187 WT1  3500 TIP3 OH2  OT    -0.834000       15.9994           0
   10188 WT1  3500 TIP3 H1   HT     0.417000        1.0080           0
   10189 WT1  3500 TIP3 H2   HT     0.417000        1.0080           0
   10190 WT1  3501 TIP3 OH2  OT    -0.834000       15.9994           0
   10191 WT1  3501 TIP3 H1   HT     0.417000        1.0080           0
   10192 WT1  3501 TIP3 H2   HT     0.417000        1.0080           0
   10193 WT1  3502 TIP3 OH2  OT    -0.834000       15.9994           0
   10194 WT1  3502 TIP3 H1   HT     0.417000        1.0080           0
   10195 WT1  3502 TIP3 H2   HT     0.417000        1.0080           0
   10196 WT1  3503 TIP3 OH2  OT    -0.834000       15.9994           0
   10197 WT1  3503 TIP3 H1   HT     0.417000        1.0080           0
   10198 WT1  3503 TIP3 H2   HT     0.417000        1.0080           0
   10199 WT1  3505 TIP3 OH2  OT    -0.834000       15.9994           0
   10200 WT1  3505 TIP3 H1   HT     0.417000        1.0080           0
   10201 WT1  3505 TIP3 H2   HT     0.417000        1.0080           0
   10202 WT1  3508 TIP3 OH2  OT    -0.834000       15.9994           0
   10203 WT1  3508 TIP3 H1   HT     0.417000        1.0080           0
   10204 WT1  3508 TIP3 H2   HT     0.417000        1.0080           0
   10205 WT1  3509 TIP3 OH2  OT    -0.834000       15.9994           0
   10206 WT1  3509 TIP3 H1   HT     0.417000        1.0080           0
   10207 WT1  3509 TIP3 H2   HT     0.417000        1.0080           0
   10208 WT1  3511 TIP3 OH2  OT    -0.834000       15.9994           0
   10209 WT1  3511 TIP3 H1   HT     0.417000        1.0080           0
   10210 WT1  3511 TIP3 H2   HT     0.417000        1.0080           0
   10211 WT1  3512 TIP3 OH2  OT    -0.834000       15.9994           0
   10212 WT1  3512 TIP3 H1   HT     0.417000        1.0080           0
   10213 WT1  3512 TIP3 H2   HT     0.417000        1.0080           0
   10214 WT1  3514 TIP3 OH2  OT    -0.834000       15.9994           0
   10215 WT1  3514 TIP3 H1   HT     0.417000        1.0080           0
   10216 WT1  3514 TIP3 H2   HT     0.417000        1.0080           0
   10217 WT1  3515 TIP3 OH2  OT    -0.834000       15.9994           0
   10218 WT1  3515 TIP3 H1   HT     0.417000        1.0080           0
   10219 WT1  3515 TIP3 H2   HT     0.417000        1.0080           0
   10220 WT1  3516 TIP3 OH2  OT    -0.834000       15.9994           0
   10221 WT1  3516 TIP3 H1   HT     0.417000        1.0080           0
   10222 WT1  3516 TIP3 H2   HT     0.417000        1.0080           0
   10223 WT1  3517 TIP3 OH2  OT    -0.834000       15.9994           0
   10224 WT1  3517 TIP3 H1   HT     0.417000        1.0080           0
   10225 WT1  3517 TIP3 H2   HT     0.417000        1.0080           0
   10226 WT1  3518 TIP3 OH2  OT    -0.834000       15.9994           0
   10227 WT1  3518 TIP3 H1   HT     0.417000        1.0080           0
   10228 WT1  3518 TIP3 H2   HT     0.417000        1.0080           0
   10229 WT1  3519 TIP3 OH2  OT    -0.834000       15.9994           0
   10230 WT1  3519 TIP3 H1   HT     0.417000        1.0080           0
   10231 WT1  3519 TIP3 H2   HT     0.417000        1.0080           0
   10232 WT1  3520 TIP3 OH2  OT    -0.834000       15.9994           0
   10233 WT1  3520 TIP3 H1   HT     0.417000        1.0080           0
   10234 WT1  3520 TIP3 H2   HT     0.417000        1.0080           0
   10235 WT1  3521 TIP3 OH2  OT    -0.834000       15.9994           0
   10236 WT1  3521 TIP3 H1   HT     0.417000        1.0080           0
   10237 WT1  3521 TIP3 H2   HT     0.417000        1.0080           0
   10238 WT1  3522 TIP3 OH2  OT    -0.834000       15.9994           0
   10239 WT1  3522 TIP3 H1   HT     0.417000        1.0080           0
   10240 WT1  3522 TIP3 H2   HT     0.417000        1.0080           0
   10241 WT1  3523 TIP3 OH2  OT    -0.834000       15.9994           0
   10242 WT1  3523 TIP3 H1   HT     0.417000        1.0080           0
   10243 WT1  3523 TIP3 H2   HT     0.417000        1.0080           0
   10244 WT1  3524 TIP3 OH2  OT    -0.834000       15.9994           0
   10245 WT1  3524 TIP3 H1   HT     0.417000        1.0080           0
   10246 WT1  3524 TIP3 H2   HT     0.417000        1.0080           0
   10247 WT1  3525 TIP3 OH2  OT    -0.834000       15.9994           0
   10248 WT1  3525 TIP3 H1   HT     0.417000        1.0080           0
   10249 WT1  3525 TIP3 H2   HT     0.417000        1.0080           0
   10250 WT1  3526 TIP3 OH2  OT    -0.834000       15.9994           0
   10251 WT1  3526 TIP3 H1   HT     0.417000        1.0080           0
   10252 WT1  3526 TIP3 H2   HT     0.417000        1.0080           0
   10253 WT1  3527 TIP3 OH2  OT    -0.834000       15.9994           0
   10254 WT1  3527 TIP3 H1   HT     0.417000        1.0080           0
   10255 WT1  3527 TIP3 H2   HT     0.417000        1.0080           0
   10256 WT1  3528 TIP3 OH2  OT    -0.834000       15.9994           0
   10257 WT1  3528 TIP3 H1   HT     0.417000        1.0080           0
   10258 WT1  3528 TIP3 H2   HT     0.417000        1.0080           0
   10259 WT1  3529 TIP3 OH2  OT    -0.834000       15.9994           0
   10260 WT1  3529 TIP3 H1   HT     0.417000        1.0080           0
   10261 WT1  3529 TIP3 H2   HT     0.417000        1.0080           0
   10262 WT1  3530 TIP3 OH2  OT    -0.834000       15.9994           0
   10263 WT1  3530 TIP3 H1   HT     0.417000        1.0080           0
   10264 WT1  3530 TIP3 H2   HT     0.417000        1.0080           0
   10265 WT1  3531 TIP3 OH2  OT    -0.834000       15.9994           0
   10266 WT1  3531 TIP3 H1   HT     0.417000        1.0080           0
   10267 WT1  3531 TIP3 H2   HT     0.417000        1.0080           0
   10268 WT1  3532 TIP3 OH2  OT    -0.834000       15.9994           0
   10269 WT1  3532 TIP3 H1   HT     0.417000        1.0080           0
   10270 WT1  3532 TIP3 H2   HT     0.417000        1.0080           0
   10271 WT1  3533 TIP3 OH2  OT    -0.834000       15.9994           0
   10272 WT1  3533 TIP3 H1   HT     0.417000        1.0080           0
   10273 WT1  3533 TIP3 H2   HT     0.417000        1.0080           0
   10274 WT1  3534 TIP3 OH2  OT    -0.834000       15.9994           0
   10275 WT1  3534 TIP3 H1   HT     0.417000        1.0080           0
   10276 WT1  3534 TIP3 H2   HT     0.417000        1.0080           0
   10277 WT1  3535 TIP3 OH2  OT    -0.834000       15.9994           0
   10278 WT1  3535 TIP3 H1   HT     0.417000        1.0080           0
   10279 WT1  3535 TIP3 H2   HT     0.417000        1.0080           0
   10280 WT1  3536 TIP3 OH2  OT    -0.834000       15.9994           0
   10281 WT1  3536 TIP3 H1   HT     0.417000        1.0080           0
   10282 WT1  3536 TIP3 H2   HT     0.417000        1.0080           0
   10283 WT1  3537 TIP3 OH2  OT    -0.834000       15.9994           0
   10284 WT1  3537 TIP3 H1   HT     0.417000        1.0080           0
   10285 WT1  3537 TIP3 H2   HT     0.417000        1.0080           0
   10286 WT1  3538 TIP3 OH2  OT    -0.834000       15.9994           0
   10287 WT1  3538 TIP3 H1   HT     0.417000        1.0080           0
   10288 WT1  3538 TIP3 H2   HT     0.417000        1.0080           0
   10289 WT1  3539 TIP3 OH2  OT    -0.834000       15.9994           0
   10290 WT1  3539 TIP3 H1   HT     0.417000        1.0080           0
   10291 WT1  3539 TIP3 H2   HT     0.417000        1.0080           0
   10292 WT1  3540 TIP3 OH2  OT    -0.834000       15.9994           0
   10293 WT1  3540 TIP3 H1   HT     0.417000        1.0080           0
   10294 WT1  3540 TIP3 H2   HT     0.417000        1.0080           0
   10295 WT1  3541 TIP3 OH2  OT    -0.834000       15.9994           0
   10296 WT1  3541 TIP3 H1   HT     0.417000        1.0080           0
   10297 WT1  3541 TIP3 H2   HT     0.417000        1.0080           0
   10298 WT1  3542 TIP3 OH2  OT    -0.834000       15.9994           0
   10299 WT1  3542 TIP3 H1   HT     0.417000        1.0080           0
   10300 WT1  3542 TIP3 H2   HT     0.417000        1.0080           0
   10301 WT1  3543 TIP3 OH2  OT    -0.834000       15.9994           0
   10302 WT1  3543 TIP3 H1   HT     0.417000        1.0080           0
   10303 WT1  3543 TIP3 H2   HT     0.417000        1.0080           0
   10304 WT1  3544 TIP3 OH2  OT    -0.834000       15.9994           0
   10305 WT1  3544 TIP3 H1   HT     0.417000        1.0080           0
   10306 WT1  3544 TIP3 H2   HT     0.417000        1.0080           0
   10307 WT1  3545 TIP3 OH2  OT    -0.834000       15.9994           0
   10308 WT1  3545 TIP3 H1   HT     0.417000        1.0080           0
   10309 WT1  3545 TIP3 H2   HT     0.417000        1.0080           0
   10310 WT1  3546 TIP3 OH2  OT    -0.834000       15.9994           0
   10311 WT1  3546 TIP3 H1   HT     0.417000        1.0080           0
   10312 WT1  3546 TIP3 H2   HT     0.417000        1.0080           0
   10313 WT1  3547 TIP3 OH2  OT    -0.834000       15.9994           0
   10314 WT1  3547 TIP3 H1   HT     0.417000        1.0080           0
   10315 WT1  3547 TIP3 H2   HT     0.417000        1.0080           0
   10316 WT1  3548 TIP3 OH2  OT    -0.834000       15.9994           0
   10317 WT1  3548 TIP3 H1   HT     0.417000        1.0080           0
   10318 WT1  3548 TIP3 H2   HT     0.417000        1.0080           0
   10319 WT1  3549 TIP3 OH2  OT    -0.834000       15.9994           0
   10320 WT1  3549 TIP3 H1   HT     0.417000        1.0080           0
   10321 WT1  3549 TIP3 H2   HT     0.417000        1.0080           0
   10322 WT1  3550 TIP3 OH2  OT    -0.834000       15.9994           0
   10323 WT1  3550 TIP3 H1   HT     0.417000        1.0080           0
   10324 WT1  3550 TIP3 H2   HT     0.417000        1.0080           0
   10325 WT1  3553 TIP3 OH2  OT    -0.834000       15.9994           0
   10326 WT1  3553 TIP3 H1   HT     0.417000        1.0080           0
   10327 WT1  3553 TIP3 H2   HT     0.417000        1.0080           0
   10328 WT1  3554 TIP3 OH2  OT    -0.834000       15.9994           0
   10329 WT1  3554 TIP3 H1   HT     0.417000        1.0080           0
   10330 WT1  3554 TIP3 H2   HT     0.417000        1.0080           0
   10331 WT1  3556 TIP3 OH2  OT    -0.834000       15.9994           0
   10332 WT1  3556 TIP3 H1   HT     0.417000        1.0080           0
   10333 WT1  3556 TIP3 H2   HT     0.417000        1.0080           0
   10334 WT1  3557 TIP3 OH2  OT    -0.834000       15.9994           0
   10335 WT1  3557 TIP3 H1   HT     0.417000        1.0080           0
   10336 WT1  3557 TIP3 H2   HT     0.417000        1.0080           0
   10337 WT1  3559 TIP3 OH2  OT    -0.834000       15.9994           0
   10338 WT1  3559 TIP3 H1   HT     0.417000        1.0080           0
   10339 WT1  3559 TIP3 H2   HT     0.417000        1.0080           0
   10340 WT1  3560 TIP3 OH2  OT    -0.834000       15.9994           0
   10341 WT1  3560 TIP3 H1   HT     0.417000        1.0080           0
   10342 WT1  3560 TIP3 H2   HT     0.417000        1.0080           0
   10343 WT1  3561 TIP3 OH2  OT    -0.834000       15.9994           0
   10344 WT1  3561 TIP3 H1   HT     0.417000        1.0080           0
   10345 WT1  3561 TIP3 H2   HT     0.417000        1.0080           0
   10346 WT1  3562 TIP3 OH2  OT    -0.834000       15.9994           0
   10347 WT1  3562 TIP3 H1   HT     0.417000        1.0080           0
   10348 WT1  3562 TIP3 H2   HT     0.417000        1.0080           0
   10349 WT1  3563 TIP3 OH2  OT    -0.834000       15.9994           0
   10350 WT1  3563 TIP3 H1   HT     0.417000        1.0080           0
   10351 WT1  3563 TIP3 H2   HT     0.417000        1.0080           0
   10352 WT1  3564 TIP3 OH2  OT    -0.834000       15.9994           0
   10353 WT1  3564 TIP3 H1   HT     0.417000        1.0080           0
   10354 WT1  3564 TIP3 H2   HT     0.417000        1.0080           0
   10355 WT1  3565 TIP3 OH2  OT    -0.834000       15.9994           0
   10356 WT1  3565 TIP3 H1   HT     0.417000        1.0080           0
   10357 WT1  3565 TIP3 H2   HT     0.417000        1.0080           0
   10358 WT1  3566 TIP3 OH2  OT    -0.834000       15.9994           0
   10359 WT1  3566 TIP3 H1   HT     0.417000        1.0080           0
   10360 WT1  3566 TIP3 H2   HT     0.417000        1.0080           0
   10361 WT1  3567 TIP3 OH2  OT    -0.834000       15.9994           0
   10362 WT1  3567 TIP3 H1   HT     0.417000        1.0080           0
   10363 WT1  3567 TIP3 H2   HT     0.417000        1.0080           0
   10364 WT1  3568 TIP3 OH2  OT    -0.834000       15.9994           0
   10365 WT1  3568 TIP3 H1   HT     0.417000        1.0080           0
   10366 WT1  3568 TIP3 H2   HT     0.417000        1.0080           0
   10367 WT1  3569 TIP3 OH2  OT    -0.834000       15.9994           0
   10368 WT1  3569 TIP3 H1   HT     0.417000        1.0080           0
   10369 WT1  3569 TIP3 H2   HT     0.417000        1.0080           0
   10370 WT1  3570 TIP3 OH2  OT    -0.834000       15.9994           0
   10371 WT1  3570 TIP3 H1   HT     0.417000        1.0080           0
   10372 WT1  3570 TIP3 H2   HT     0.417000        1.0080           0
   10373 WT1  3571 TIP3 OH2  OT    -0.834000       15.9994           0
   10374 WT1  3571 TIP3 H1   HT     0.417000        1.0080           0
   10375 WT1  3571 TIP3 H2   HT     0.417000        1.0080           0
   10376 WT1  3572 TIP3 OH2  OT    -0.834000       15.9994           0
   10377 WT1  3572 TIP3 H1   HT     0.417000        1.0080           0
   10378 WT1  3572 TIP3 H2   HT     0.417000        1.0080           0
   10379 WT1  3573 TIP3 OH2  OT    -0.834000       15.9994           0
   10380 WT1  3573 TIP3 H1   HT     0.417000        1.0080           0
   10381 WT1  3573 TIP3 H2   HT     0.417000        1.0080           0
   10382 WT1  3574 TIP3 OH2  OT    -0.834000       15.9994           0
   10383 WT1  3574 TIP3 H1   HT     0.417000        1.0080           0
   10384 WT1  3574 TIP3 H2   HT     0.417000        1.0080           0
   10385 WT1  3575 TIP3 OH2  OT    -0.834000       15.9994           0
   10386 WT1  3575 TIP3 H1   HT     0.417000        1.0080           0
   10387 WT1  3575 TIP3 H2   HT     0.417000        1.0080           0
   10388 WT1  3576 TIP3 OH2  OT    -0.834000       15.9994           0
   10389 WT1  3576 TIP3 H1   HT     0.417000        1.0080           0
   10390 WT1  3576 TIP3 H2   HT     0.417000        1.0080           0
   10391 WT1  3577 TIP3 OH2  OT    -0.834000       15.9994           0
   10392 WT1  3577 TIP3 H1   HT     0.417000        1.0080           0
   10393 WT1  3577 TIP3 H2   HT     0.417000        1.0080           0
   10394 WT1  3578 TIP3 OH2  OT    -0.834000       15.9994           0
   10395 WT1  3578 TIP3 H1   HT     0.417000        1.0080           0
   10396 WT1  3578 TIP3 H2   HT     0.417000        1.0080           0
   10397 WT1  3579 TIP3 OH2  OT    -0.834000       15.9994           0
   10398 WT1  3579 TIP3 H1   HT     0.417000        1.0080           0
   10399 WT1  3579 TIP3 H2   HT     0.417000        1.0080           0
   10400 WT1  3580 TIP3 OH2  OT    -0.834000       15.9994           0
   10401 WT1  3580 TIP3 H1   HT     0.417000        1.0080           0
   10402 WT1  3580 TIP3 H2   HT     0.417000        1.0080           0
   10403 WT1  3581 TIP3 OH2  OT    -0.834000       15.9994           0
   10404 WT1  3581 TIP3 H1   HT     0.417000        1.0080           0
   10405 WT1  3581 TIP3 H2   HT     0.417000        1.0080           0
   10406 WT1  3582 TIP3 OH2  OT    -0.834000       15.9994           0
   10407 WT1  3582 TIP3 H1   HT     0.417000        1.0080           0
   10408 WT1  3582 TIP3 H2   HT     0.417000        1.0080           0
   10409 WT1  3584 TIP3 OH2  OT    -0.834000       15.9994           0
   10410 WT1  3584 TIP3 H1   HT     0.417000        1.0080           0
   10411 WT1  3584 TIP3 H2   HT     0.417000        1.0080           0
   10412 WT1  3585 TIP3 OH2  OT    -0.834000       15.9994           0
   10413 WT1  3585 TIP3 H1   HT     0.417000        1.0080           0
   10414 WT1  3585 TIP3 H2   HT     0.417000        1.0080           0
   10415 WT1  3586 TIP3 OH2  OT    -0.834000       15.9994           0
   10416 WT1  3586 TIP3 H1   HT     0.417000        1.0080           0
   10417 WT1  3586 TIP3 H2   HT     0.417000        1.0080           0
   10418 WT1  3587 TIP3 OH2  OT    -0.834000       15.9994           0
   10419 WT1  3587 TIP3 H1   HT     0.417000        1.0080           0
   10420 WT1  3587 TIP3 H2   HT     0.417000        1.0080           0
   10421 WT1  3588 TIP3 OH2  OT    -0.834000       15.9994           0
   10422 WT1  3588 TIP3 H1   HT     0.417000        1.0080           0
   10423 WT1  3588 TIP3 H2   HT     0.417000        1.0080           0
   10424 WT1  3589 TIP3 OH2  OT    -0.834000       15.9994           0
   10425 WT1  3589 TIP3 H1   HT     0.417000        1.0080           0
   10426 WT1  3589 TIP3 H2   HT     0.417000        1.0080           0
   10427 WT1  3590 TIP3 OH2  OT    -0.834000       15.9994           0
   10428 WT1  3590 TIP3 H1   HT     0.417000        1.0080           0
   10429 WT1  3590 TIP3 H2   HT     0.417000        1.0080           0
   10430 WT1  3591 TIP3 OH2  OT    -0.834000       15.9994           0
   10431 WT1  3591 TIP3 H1   HT     0.417000        1.0080           0
   10432 WT1  3591 TIP3 H2   HT     0.417000        1.0080           0
   10433 WT1  3592 TIP3 OH2  OT    -0.834000       15.9994           0
   10434 WT1  3592 TIP3 H1   HT     0.417000        1.0080           0
   10435 WT1  3592 TIP3 H2   HT     0.417000        1.0080           0
   10436 WT1  3593 TIP3 OH2  OT    -0.834000       15.9994           0
   10437 WT1  3593 TIP3 H1   HT     0.417000        1.0080           0
   10438 WT1  3593 TIP3 H2   HT     0.417000        1.0080           0
   10439 WT1  3594 TIP3 OH2  OT    -0.834000       15.9994           0
   10440 WT1  3594 TIP3 H1   HT     0.417000        1.0080           0
   10441 WT1  3594 TIP3 H2   HT     0.417000        1.0080           0
   10442 WT1  3595 TIP3 OH2  OT    -0.834000       15.9994           0
   10443 WT1  3595 TIP3 H1   HT     0.417000        1.0080           0
   10444 WT1  3595 TIP3 H2   HT     0.417000        1.0080           0
   10445 WT1  3596 TIP3 OH2  OT    -0.834000       15.9994           0
   10446 WT1  3596 TIP3 H1   HT     0.417000        1.0080           0
   10447 WT1  3596 TIP3 H2   HT     0.417000        1.0080           0
   10448 WT1  3597 TIP3 OH2  OT    -0.834000       15.9994           0
   10449 WT1  3597 TIP3 H1   HT     0.417000        1.0080           0
   10450 WT1  3597 TIP3 H2   HT     0.417000        1.0080           0
   10451 WT1  3598 TIP3 OH2  OT    -0.834000       15.9994           0
   10452 WT1  3598 TIP3 H1   HT     0.417000        1.0080           0
   10453 WT1  3598 TIP3 H2   HT     0.417000        1.0080           0
   10454 WT1  3599 TIP3 OH2  OT    -0.834000       15.9994           0
   10455 WT1  3599 TIP3 H1   HT     0.417000        1.0080           0
   10456 WT1  3599 TIP3 H2   HT     0.417000        1.0080           0
   10457 WT1  3600 TIP3 OH2  OT    -0.834000       15.9994           0
   10458 WT1  3600 TIP3 H1   HT     0.417000        1.0080           0
   10459 WT1  3600 TIP3 H2   HT     0.417000        1.0080           0
   10460 WT1  3602 TIP3 OH2  OT    -0.834000       15.9994           0
   10461 WT1  3602 TIP3 H1   HT     0.417000        1.0080           0
   10462 WT1  3602 TIP3 H2   HT     0.417000        1.0080           0
   10463 WT1  3603 TIP3 OH2  OT    -0.834000       15.9994           0
   10464 WT1  3603 TIP3 H1   HT     0.417000        1.0080           0
   10465 WT1  3603 TIP3 H2   HT     0.417000        1.0080           0
   10466 WT1  3604 TIP3 OH2  OT    -0.834000       15.9994           0
   10467 WT1  3604 TIP3 H1   HT     0.417000        1.0080           0
   10468 WT1  3604 TIP3 H2   HT     0.417000        1.0080           0
   10469 WT1  3605 TIP3 OH2  OT    -0.834000       15.9994           0
   10470 WT1  3605 TIP3 H1   HT     0.417000        1.0080           0
   10471 WT1  3605 TIP3 H2   HT     0.417000        1.0080           0
   10472 WT1  3606 TIP3 OH2  OT    -0.834000       15.9994           0
   10473 WT1  3606 TIP3 H1   HT     0.417000        1.0080           0
   10474 WT1  3606 TIP3 H2   HT     0.417000        1.0080           0
   10475 WT1  3607 TIP3 OH2  OT    -0.834000       15.9994           0
   10476 WT1  3607 TIP3 H1   HT     0.417000        1.0080           0
   10477 WT1  3607 TIP3 H2   HT     0.417000        1.0080           0
   10478 WT1  3608 TIP3 OH2  OT    -0.834000       15.9994           0
   10479 WT1  3608 TIP3 H1   HT     0.417000        1.0080           0
   10480 WT1  3608 TIP3 H2   HT     0.417000        1.0080           0
   10481 WT1  3609 TIP3 OH2  OT    -0.834000       15.9994           0
   10482 WT1  3609 TIP3 H1   HT     0.417000        1.0080           0
   10483 WT1  3609 TIP3 H2   HT     0.417000        1.0080           0
   10484 WT1  3610 TIP3 OH2  OT    -0.834000       15.9994           0
   10485 WT1  3610 TIP3 H1   HT     0.417000        1.0080           0
   10486 WT1  3610 TIP3 H2   HT     0.417000        1.0080           0
   10487 WT1  3611 TIP3 OH2  OT    -0.834000       15.9994           0
   10488 WT1  3611 TIP3 H1   HT     0.417000        1.0080           0
   10489 WT1  3611 TIP3 H2   HT     0.417000        1.0080           0
   10490 WT1  3612 TIP3 OH2  OT    -0.834000       15.9994           0
   10491 WT1  3612 TIP3 H1   HT     0.417000        1.0080           0
   10492 WT1  3612 TIP3 H2   HT     0.417000        1.0080           0
   10493 WT1  3613 TIP3 OH2  OT    -0.834000       15.9994           0
   10494 WT1  3613 TIP3 H1   HT     0.417000        1.0080           0
   10495 WT1  3613 TIP3 H2   HT     0.417000        1.0080           0
   10496 WT1  3614 TIP3 OH2  OT    -0.834000       15.9994           0
   10497 WT1  3614 TIP3 H1   HT     0.417000        1.0080           0
   10498 WT1  3614 TIP3 H2   HT     0.417000        1.0080           0
   10499 WT1  3615 TIP3 OH2  OT    -0.834000       15.9994           0
   10500 WT1  3615 TIP3 H1   HT     0.417000        1.0080           0
   10501 WT1  3615 TIP3 H2   HT     0.417000        1.0080           0
   10502 WT1  3616 TIP3 OH2  OT    -0.834000       15.9994           0
   10503 WT1  3616 TIP3 H1   HT     0.417000        1.0080           0
   10504 WT1  3616 TIP3 H2   HT     0.417000        1.0080           0
   10505 WT1  3618 TIP3 OH2  OT    -0.834000       15.9994           0
   10506 WT1  3618 TIP3 H1   HT     0.417000        1.0080           0
   10507 WT1  3618 TIP3 H2   HT     0.417000        1.0080           0
   10508 WT1  3619 TIP3 OH2  OT    -0.834000       15.9994           0
   10509 WT1  3619 TIP3 H1   HT     0.417000        1.0080           0
   10510 WT1  3619 TIP3 H2   HT     0.417000        1.0080           0
   10511 WT1  3620 TIP3 OH2  OT    -0.834000       15.9994           0
   10512 WT1  3620 TIP3 H1   HT     0.417000        1.0080           0
   10513 WT1  3620 TIP3 H2   HT     0.417000        1.0080           0
   10514 WT1  3621 TIP3 OH2  OT    -0.834000       15.9994           0
   10515 WT1  3621 TIP3 H1   HT     0.417000        1.0080           0
   10516 WT1  3621 TIP3 H2   HT     0.417000        1.0080           0
   10517 WT1  3622 TIP3 OH2  OT    -0.834000       15.9994           0
   10518 WT1  3622 TIP3 H1   HT     0.417000        1.0080           0
   10519 WT1  3622 TIP3 H2   HT     0.417000        1.0080           0
   10520 WT1  3623 TIP3 OH2  OT    -0.834000       15.9994           0
   10521 WT1  3623 TIP3 H1   HT     0.417000        1.0080           0
   10522 WT1  3623 TIP3 H2   HT     0.417000        1.0080           0
   10523 WT1  3624 TIP3 OH2  OT    -0.834000       15.9994           0
   10524 WT1  3624 TIP3 H1   HT     0.417000        1.0080           0
   10525 WT1  3624 TIP3 H2   HT     0.417000        1.0080           0
   10526 WT1  3626 TIP3 OH2  OT    -0.834000       15.9994           0
   10527 WT1  3626 TIP3 H1   HT     0.417000        1.0080           0
   10528 WT1  3626 TIP3 H2   HT     0.417000        1.0080           0
   10529 WT1  3627 TIP3 OH2  OT    -0.834000       15.9994           0
   10530 WT1  3627 TIP3 H1   HT     0.417000        1.0080           0
   10531 WT1  3627 TIP3 H2   HT     0.417000        1.0080           0
   10532 WT1  3628 TIP3 OH2  OT    -0.834000       15.9994           0
   10533 WT1  3628 TIP3 H1   HT     0.417000        1.0080           0
   10534 WT1  3628 TIP3 H2   HT     0.417000        1.0080           0
   10535 WT1  3629 TIP3 OH2  OT    -0.834000       15.9994           0
   10536 WT1  3629 TIP3 H1   HT     0.417000        1.0080           0
   10537 WT1  3629 TIP3 H2   HT     0.417000        1.0080           0
   10538 WT1  3630 TIP3 OH2  OT    -0.834000       15.9994           0
   10539 WT1  3630 TIP3 H1   HT     0.417000        1.0080           0
   10540 WT1  3630 TIP3 H2   HT     0.417000        1.0080           0
   10541 WT1  3631 TIP3 OH2  OT    -0.834000       15.9994           0
   10542 WT1  3631 TIP3 H1   HT     0.417000        1.0080           0
   10543 WT1  3631 TIP3 H2   HT     0.417000        1.0080           0
   10544 WT1  3632 TIP3 OH2  OT    -0.834000       15.9994           0
   10545 WT1  3632 TIP3 H1   HT     0.417000        1.0080           0
   10546 WT1  3632 TIP3 H2   HT     0.417000        1.0080           0
   10547 WT1  3633 TIP3 OH2  OT    -0.834000       15.9994           0
   10548 WT1  3633 TIP3 H1   HT     0.417000        1.0080           0
   10549 WT1  3633 TIP3 H2   HT     0.417000        1.0080           0
   10550 WT1  3634 TIP3 OH2  OT    -0.834000       15.9994           0
   10551 WT1  3634 TIP3 H1   HT     0.417000        1.0080           0
   10552 WT1  3634 TIP3 H2   HT     0.417000        1.0080           0
   10553 WT1  3635 TIP3 OH2  OT    -0.834000       15.9994           0
   10554 WT1  3635 TIP3 H1   HT     0.417000        1.0080           0
   10555 WT1  3635 TIP3 H2   HT     0.417000        1.0080           0
   10556 WT1  3640 TIP3 OH2  OT    -0.834000       15.9994           0
   10557 WT1  3640 TIP3 H1   HT     0.417000        1.0080           0
   10558 WT1  3640 TIP3 H2   HT     0.417000        1.0080           0
   10559 WT1  3641 TIP3 OH2  OT    -0.834000       15.9994           0
   10560 WT1  3641 TIP3 H1   HT     0.417000        1.0080           0
   10561 WT1  3641 TIP3 H2   HT     0.417000        1.0080           0
   10562 WT1  3642 TIP3 OH2  OT    -0.834000       15.9994           0
   10563 WT1  3642 TIP3 H1   HT     0.417000        1.0080           0
   10564 WT1  3642 TIP3 H2   HT     0.417000        1.0080           0
   10565 WT1  3643 TIP3 OH2  OT    -0.834000       15.9994           0
   10566 WT1  3643 TIP3 H1   HT     0.417000        1.0080           0
   10567 WT1  3643 TIP3 H2   HT     0.417000        1.0080           0
   10568 WT1  3644 TIP3 OH2  OT    -0.834000       15.9994           0
   10569 WT1  3644 TIP3 H1   HT     0.417000        1.0080           0
   10570 WT1  3644 TIP3 H2   HT     0.417000        1.0080           0
   10571 WT1  3645 TIP3 OH2  OT    -0.834000       15.9994           0
   10572 WT1  3645 TIP3 H1   HT     0.417000        1.0080           0
   10573 WT1  3645 TIP3 H2   HT     0.417000        1.0080           0
   10574 WT1  3647 TIP3 OH2  OT    -0.834000       15.9994           0
   10575 WT1  3647 TIP3 H1   HT     0.417000        1.0080           0
   10576 WT1  3647 TIP3 H2   HT     0.417000        1.0080           0
   10577 WT1  3648 TIP3 OH2  OT    -0.834000       15.9994           0
   10578 WT1  3648 TIP3 H1   HT     0.417000        1.0080           0
   10579 WT1  3648 TIP3 H2   HT     0.417000        1.0080           0
   10580 WT1  3649 TIP3 OH2  OT    -0.834000       15.9994           0
   10581 WT1  3649 TIP3 H1   HT     0.417000        1.0080           0
   10582 WT1  3649 TIP3 H2   HT     0.417000        1.0080           0
   10583 WT1  3650 TIP3 OH2  OT    -0.834000       15.9994           0
   10584 WT1  3650 TIP3 H1   HT     0.417000        1.0080           0
   10585 WT1  3650 TIP3 H2   HT     0.417000        1.0080           0
   10586 WT1  3652 TIP3 OH2  OT    -0.834000       15.9994           0
   10587 WT1  3652 TIP3 H1   HT     0.417000        1.0080           0
   10588 WT1  3652 TIP3 H2   HT     0.417000        1.0080           0
   10589 WT1  3653 TIP3 OH2  OT    -0.834000       15.9994           0
   10590 WT1  3653 TIP3 H1   HT     0.417000        1.0080           0
   10591 WT1  3653 TIP3 H2   HT     0.417000        1.0080           0
   10592 WT1  3654 TIP3 OH2  OT    -0.834000       15.9994           0
   10593 WT1  3654 TIP3 H1   HT     0.417000        1.0080           0
   10594 WT1  3654 TIP3 H2   HT     0.417000        1.0080           0
   10595 WT1  3655 TIP3 OH2  OT    -0.834000       15.9994           0
   10596 WT1  3655 TIP3 H1   HT     0.417000        1.0080           0
   10597 WT1  3655 TIP3 H2   HT     0.417000        1.0080           0
   10598 WT1  3656 TIP3 OH2  OT    -0.834000       15.9994           0
   10599 WT1  3656 TIP3 H1   HT     0.417000        1.0080           0
   10600 WT1  3656 TIP3 H2   HT     0.417000        1.0080           0
   10601 WT1  3657 TIP3 OH2  OT    -0.834000       15.9994           0
   10602 WT1  3657 TIP3 H1   HT     0.417000        1.0080           0
   10603 WT1  3657 TIP3 H2   HT     0.417000        1.0080           0
   10604 WT1  3658 TIP3 OH2  OT    -0.834000       15.9994           0
   10605 WT1  3658 TIP3 H1   HT     0.417000        1.0080           0
   10606 WT1  3658 TIP3 H2   HT     0.417000        1.0080           0
   10607 WT1  3659 TIP3 OH2  OT    -0.834000       15.9994           0
   10608 WT1  3659 TIP3 H1   HT     0.417000        1.0080           0
   10609 WT1  3659 TIP3 H2   HT     0.417000        1.0080           0
   10610 WT1  3660 TIP3 OH2  OT    -0.834000       15.9994           0
   10611 WT1  3660 TIP3 H1   HT     0.417000        1.0080           0
   10612 WT1  3660 TIP3 H2   HT     0.417000        1.0080           0
   10613 WT1  3661 TIP3 OH2  OT    -0.834000       15.9994           0
   10614 WT1  3661 TIP3 H1   HT     0.417000        1.0080           0
   10615 WT1  3661 TIP3 H2   HT     0.417000        1.0080           0
   10616 WT1  3662 TIP3 OH2  OT    -0.834000       15.9994           0
   10617 WT1  3662 TIP3 H1   HT     0.417000        1.0080           0
   10618 WT1  3662 TIP3 H2   HT     0.417000        1.0080           0
   10619 WT1  3663 TIP3 OH2  OT    -0.834000       15.9994           0
   10620 WT1  3663 TIP3 H1   HT     0.417000        1.0080           0
   10621 WT1  3663 TIP3 H2   HT     0.417000        1.0080           0
   10622 WT1  3665 TIP3 OH2  OT    -0.834000       15.9994           0
   10623 WT1  3665 TIP3 H1   HT     0.417000        1.0080           0
   10624 WT1  3665 TIP3 H2   HT     0.417000        1.0080           0
   10625 WT1  3666 TIP3 OH2  OT    -0.834000       15.9994           0
   10626 WT1  3666 TIP3 H1   HT     0.417000        1.0080           0
   10627 WT1  3666 TIP3 H2   HT     0.417000        1.0080           0
   10628 WT1  3667 TIP3 OH2  OT    -0.834000       15.9994           0
   10629 WT1  3667 TIP3 H1   HT     0.417000        1.0080           0
   10630 WT1  3667 TIP3 H2   HT     0.417000        1.0080           0
   10631 WT1  3669 TIP3 OH2  OT    -0.834000       15.9994           0
   10632 WT1  3669 TIP3 H1   HT     0.417000        1.0080           0
   10633 WT1  3669 TIP3 H2   HT     0.417000        1.0080           0
   10634 WT1  3670 TIP3 OH2  OT    -0.834000       15.9994           0
   10635 WT1  3670 TIP3 H1   HT     0.417000        1.0080           0
   10636 WT1  3670 TIP3 H2   HT     0.417000        1.0080           0
   10637 WT1  3671 TIP3 OH2  OT    -0.834000       15.9994           0
   10638 WT1  3671 TIP3 H1   HT     0.417000        1.0080           0
   10639 WT1  3671 TIP3 H2   HT     0.417000        1.0080           0
   10640 WT1  3672 TIP3 OH2  OT    -0.834000       15.9994           0
   10641 WT1  3672 TIP3 H1   HT     0.417000        1.0080           0
   10642 WT1  3672 TIP3 H2   HT     0.417000        1.0080           0
   10643 WT1  3673 TIP3 OH2  OT    -0.834000       15.9994           0
   10644 WT1  3673 TIP3 H1   HT     0.417000        1.0080           0
   10645 WT1  3673 TIP3 H2   HT     0.417000        1.0080           0
   10646 WT1  3674 TIP3 OH2  OT    -0.834000       15.9994           0
   10647 WT1  3674 TIP3 H1   HT     0.417000        1.0080           0
   10648 WT1  3674 TIP3 H2   HT     0.417000        1.0080           0
   10649 WT1  3675 TIP3 OH2  OT    -0.834000       15.9994           0
   10650 WT1  3675 TIP3 H1   HT     0.417000        1.0080           0
   10651 WT1  3675 TIP3 H2   HT     0.417000        1.0080           0
   10652 WT1  3676 TIP3 OH2  OT    -0.834000       15.9994           0
   10653 WT1  3676 TIP3 H1   HT     0.417000        1.0080           0
   10654 WT1  3676 TIP3 H2   HT     0.417000        1.0080           0
   10655 WT1  3677 TIP3 OH2  OT    -0.834000       15.9994           0
   10656 WT1  3677 TIP3 H1   HT     0.417000        1.0080           0
   10657 WT1  3677 TIP3 H2   HT     0.417000        1.0080           0
   10658 WT1  3679 TIP3 OH2  OT    -0.834000       15.9994           0
   10659 WT1  3679 TIP3 H1   HT     0.417000        1.0080           0
   10660 WT1  3679 TIP3 H2   HT     0.417000        1.0080           0
   10661 WT1  3681 TIP3 OH2  OT    -0.834000       15.9994           0
   10662 WT1  3681 TIP3 H1   HT     0.417000        1.0080           0
   10663 WT1  3681 TIP3 H2   HT     0.417000        1.0080           0
   10664 WT1  3682 TIP3 OH2  OT    -0.834000       15.9994           0
   10665 WT1  3682 TIP3 H1   HT     0.417000        1.0080           0
   10666 WT1  3682 TIP3 H2   HT     0.417000        1.0080           0
   10667 WT1  3684 TIP3 OH2  OT    -0.834000       15.9994           0
   10668 WT1  3684 TIP3 H1   HT     0.417000        1.0080           0
   10669 WT1  3684 TIP3 H2   HT     0.417000        1.0080           0
   10670 WT1  3685 TIP3 OH2  OT    -0.834000       15.9994           0
   10671 WT1  3685 TIP3 H1   HT     0.417000        1.0080           0
   10672 WT1  3685 TIP3 H2   HT     0.417000        1.0080           0
   10673 WT1  3686 TIP3 OH2  OT    -0.834000       15.9994           0
   10674 WT1  3686 TIP3 H1   HT     0.417000        1.0080           0
   10675 WT1  3686 TIP3 H2   HT     0.417000        1.0080           0
   10676 WT1  3688 TIP3 OH2  OT    -0.834000       15.9994           0
   10677 WT1  3688 TIP3 H1   HT     0.417000        1.0080           0
   10678 WT1  3688 TIP3 H2   HT     0.417000        1.0080           0
   10679 WT1  3689 TIP3 OH2  OT    -0.834000       15.9994           0
   10680 WT1  3689 TIP3 H1   HT     0.417000        1.0080           0
   10681 WT1  3689 TIP3 H2   HT     0.417000        1.0080           0
   10682 WT1  3690 TIP3 OH2  OT    -0.834000       15.9994           0
   10683 WT1  3690 TIP3 H1   HT     0.417000        1.0080           0
   10684 WT1  3690 TIP3 H2   HT     0.417000        1.0080           0
   10685 WT1  3691 TIP3 OH2  OT    -0.834000       15.9994           0
   10686 WT1  3691 TIP3 H1   HT     0.417000        1.0080           0
   10687 WT1  3691 TIP3 H2   HT     0.417000        1.0080           0
   10688 WT1  3692 TIP3 OH2  OT    -0.834000       15.9994           0
   10689 WT1  3692 TIP3 H1   HT     0.417000        1.0080           0
   10690 WT1  3692 TIP3 H2   HT     0.417000        1.0080           0
   10691 WT1  3693 TIP3 OH2  OT    -0.834000       15.9994           0
   10692 WT1  3693 TIP3 H1   HT     0.417000        1.0080           0
   10693 WT1  3693 TIP3 H2   HT     0.417000        1.0080           0
   10694 WT1  3694 TIP3 OH2  OT    -0.834000       15.9994           0
   10695 WT1  3694 TIP3 H1   HT     0.417000        1.0080           0
   10696 WT1  3694 TIP3 H2   HT     0.417000        1.0080           0
   10697 WT1  3695 TIP3 OH2  OT    -0.834000       15.9994           0
   10698 WT1  3695 TIP3 H1   HT     0.417000        1.0080           0
   10699 WT1  3695 TIP3 H2   HT     0.417000        1.0080           0
   10700 WT1  3696 TIP3 OH2  OT    -0.834000       15.9994           0
   10701 WT1  3696 TIP3 H1   HT     0.417000        1.0080           0
   10702 WT1  3696 TIP3 H2   HT     0.417000        1.0080           0
   10703 WT1  3697 TIP3 OH2  OT    -0.834000       15.9994           0
   10704 WT1  3697 TIP3 H1   HT     0.417000        1.0080           0
   10705 WT1  3697 TIP3 H2   HT     0.417000        1.0080           0
   10706 WT1  3698 TIP3 OH2  OT    -0.834000       15.9994           0
   10707 WT1  3698 TIP3 H1   HT     0.417000        1.0080           0
   10708 WT1  3698 TIP3 H2   HT     0.417000        1.0080           0
   10709 WT1  3699 TIP3 OH2  OT    -0.834000       15.9994           0
   10710 WT1  3699 TIP3 H1   HT     0.417000        1.0080           0
   10711 WT1  3699 TIP3 H2   HT     0.417000        1.0080           0
   10712 WT1  3700 TIP3 OH2  OT    -0.834000       15.9994           0
   10713 WT1  3700 TIP3 H1   HT     0.417000        1.0080           0
   10714 WT1  3700 TIP3 H2   HT     0.417000        1.0080           0
   10715 WT1  3701 TIP3 OH2  OT    -0.834000       15.9994           0
   10716 WT1  3701 TIP3 H1   HT     0.417000        1.0080           0
   10717 WT1  3701 TIP3 H2   HT     0.417000        1.0080           0
   10718 WT1  3702 TIP3 OH2  OT    -0.834000       15.9994           0
   10719 WT1  3702 TIP3 H1   HT     0.417000        1.0080           0
   10720 WT1  3702 TIP3 H2   HT     0.417000        1.0080           0
   10721 WT1  3703 TIP3 OH2  OT    -0.834000       15.9994           0
   10722 WT1  3703 TIP3 H1   HT     0.417000        1.0080           0
   10723 WT1  3703 TIP3 H2   HT     0.417000        1.0080           0
   10724 WT1  3704 TIP3 OH2  OT    -0.834000       15.9994           0
   10725 WT1  3704 TIP3 H1   HT     0.417000        1.0080           0
   10726 WT1  3704 TIP3 H2   HT     0.417000        1.0080           0
   10727 WT1  3705 TIP3 OH2  OT    -0.834000       15.9994           0
   10728 WT1  3705 TIP3 H1   HT     0.417000        1.0080           0
   10729 WT1  3705 TIP3 H2   HT     0.417000        1.0080           0
   10730 WT1  3707 TIP3 OH2  OT    -0.834000       15.9994           0
   10731 WT1  3707 TIP3 H1   HT     0.417000        1.0080           0
   10732 WT1  3707 TIP3 H2   HT     0.417000        1.0080           0
   10733 WT1  3708 TIP3 OH2  OT    -0.834000       15.9994           0
   10734 WT1  3708 TIP3 H1   HT     0.417000        1.0080           0
   10735 WT1  3708 TIP3 H2   HT     0.417000        1.0080           0
   10736 WT1  3709 TIP3 OH2  OT    -0.834000       15.9994           0
   10737 WT1  3709 TIP3 H1   HT     0.417000        1.0080           0
   10738 WT1  3709 TIP3 H2   HT     0.417000        1.0080           0
   10739 WT1  3710 TIP3 OH2  OT    -0.834000       15.9994           0
   10740 WT1  3710 TIP3 H1   HT     0.417000        1.0080           0
   10741 WT1  3710 TIP3 H2   HT     0.417000        1.0080           0
   10742 WT1  3711 TIP3 OH2  OT    -0.834000       15.9994           0
   10743 WT1  3711 TIP3 H1   HT     0.417000        1.0080           0
   10744 WT1  3711 TIP3 H2   HT     0.417000        1.0080           0
   10745 WT1  3712 TIP3 OH2  OT    -0.834000       15.9994           0
   10746 WT1  3712 TIP3 H1   HT     0.417000        1.0080           0
   10747 WT1  3712 TIP3 H2   HT     0.417000        1.0080           0
   10748 WT1  3713 TIP3 OH2  OT    -0.834000       15.9994           0
   10749 WT1  3713 TIP3 H1   HT     0.417000        1.0080           0
   10750 WT1  3713 TIP3 H2   HT     0.417000        1.0080           0
   10751 WT1  3714 TIP3 OH2  OT    -0.834000       15.9994           0
   10752 WT1  3714 TIP3 H1   HT     0.417000        1.0080           0
   10753 WT1  3714 TIP3 H2   HT     0.417000        1.0080           0
   10754 WT1  3715 TIP3 OH2  OT    -0.834000       15.9994           0
   10755 WT1  3715 TIP3 H1   HT     0.417000        1.0080           0
   10756 WT1  3715 TIP3 H2   HT     0.417000        1.0080           0
   10757 WT1  3716 TIP3 OH2  OT    -0.834000       15.9994           0
   10758 WT1  3716 TIP3 H1   HT     0.417000        1.0080           0
   10759 WT1  3716 TIP3 H2   HT     0.417000        1.0080           0
   10760 WT1  3717 TIP3 OH2  OT    -0.834000       15.9994           0
   10761 WT1  3717 TIP3 H1   HT     0.417000        1.0080           0
   10762 WT1  3717 TIP3 H2   HT     0.417000        1.0080           0
   10763 WT1  3718 TIP3 OH2  OT    -0.834000       15.9994           0
   10764 WT1  3718 TIP3 H1   HT     0.417000        1.0080           0
   10765 WT1  3718 TIP3 H2   HT     0.417000        1.0080           0
   10766 WT1  3720 TIP3 OH2  OT    -0.834000       15.9994           0
   10767 WT1  3720 TIP3 H1   HT     0.417000        1.0080           0
   10768 WT1  3720 TIP3 H2   HT     0.417000        1.0080           0
   10769 WT1  3721 TIP3 OH2  OT    -0.834000       15.9994           0
   10770 WT1  3721 TIP3 H1   HT     0.417000        1.0080           0
   10771 WT1  3721 TIP3 H2   HT     0.417000        1.0080           0
   10772 WT1  3722 TIP3 OH2  OT    -0.834000       15.9994           0
   10773 WT1  3722 TIP3 H1   HT     0.417000        1.0080           0
   10774 WT1  3722 TIP3 H2   HT     0.417000        1.0080           0
   10775 WT1  3723 TIP3 OH2  OT    -0.834000       15.9994           0
   10776 WT1  3723 TIP3 H1   HT     0.417000        1.0080           0
   10777 WT1  3723 TIP3 H2   HT     0.417000        1.0080           0
   10778 WT1  3724 TIP3 OH2  OT    -0.834000       15.9994           0
   10779 WT1  3724 TIP3 H1   HT     0.417000        1.0080           0
   10780 WT1  3724 TIP3 H2   HT     0.417000        1.0080           0
   10781 WT1  3726 TIP3 OH2  OT    -0.834000       15.9994           0
   10782 WT1  3726 TIP3 H1   HT     0.417000        1.0080           0
   10783 WT1  3726 TIP3 H2   HT     0.417000        1.0080           0
   10784 WT1  3727 TIP3 OH2  OT    -0.834000       15.9994           0
   10785 WT1  3727 TIP3 H1   HT     0.417000        1.0080           0
   10786 WT1  3727 TIP3 H2   HT     0.417000        1.0080           0
   10787 WT1  3728 TIP3 OH2  OT    -0.834000       15.9994           0
   10788 WT1  3728 TIP3 H1   HT     0.417000        1.0080           0
   10789 WT1  3728 TIP3 H2   HT     0.417000        1.0080           0
   10790 WT1  3732 TIP3 OH2  OT    -0.834000       15.9994           0
   10791 WT1  3732 TIP3 H1   HT     0.417000        1.0080           0
   10792 WT1  3732 TIP3 H2   HT     0.417000        1.0080           0
   10793 WT1  3733 TIP3 OH2  OT    -0.834000       15.9994           0
   10794 WT1  3733 TIP3 H1   HT     0.417000        1.0080           0
   10795 WT1  3733 TIP3 H2   HT     0.417000        1.0080           0
   10796 WT1  3734 TIP3 OH2  OT    -0.834000       15.9994           0
   10797 WT1  3734 TIP3 H1   HT     0.417000        1.0080           0
   10798 WT1  3734 TIP3 H2   HT     0.417000        1.0080           0
   10799 WT1  3735 TIP3 OH2  OT    -0.834000       15.9994           0
   10800 WT1  3735 TIP3 H1   HT     0.417000        1.0080           0
   10801 WT1  3735 TIP3 H2   HT     0.417000        1.0080           0
   10802 WT1  3736 TIP3 OH2  OT    -0.834000       15.9994           0
   10803 WT1  3736 TIP3 H1   HT     0.417000        1.0080           0
   10804 WT1  3736 TIP3 H2   HT     0.417000        1.0080           0
   10805 WT1  3737 TIP3 OH2  OT    -0.834000       15.9994           0
   10806 WT1  3737 TIP3 H1   HT     0.417000        1.0080           0
   10807 WT1  3737 TIP3 H2   HT     0.417000        1.0080           0
   10808 WT1  3738 TIP3 OH2  OT    -0.834000       15.9994           0
   10809 WT1  3738 TIP3 H1   HT     0.417000        1.0080           0
   10810 WT1  3738 TIP3 H2   HT     0.417000        1.0080           0
   10811 WT1  3740 TIP3 OH2  OT    -0.834000       15.9994           0
   10812 WT1  3740 TIP3 H1   HT     0.417000        1.0080           0
   10813 WT1  3740 TIP3 H2   HT     0.417000        1.0080           0
   10814 WT1  3741 TIP3 OH2  OT    -0.834000       15.9994           0
   10815 WT1  3741 TIP3 H1   HT     0.417000        1.0080           0
   10816 WT1  3741 TIP3 H2   HT     0.417000        1.0080           0
   10817 WT1  3742 TIP3 OH2  OT    -0.834000       15.9994           0
   10818 WT1  3742 TIP3 H1   HT     0.417000        1.0080           0
   10819 WT1  3742 TIP3 H2   HT     0.417000        1.0080           0
   10820 WT1  3743 TIP3 OH2  OT    -0.834000       15.9994           0
   10821 WT1  3743 TIP3 H1   HT     0.417000        1.0080           0
   10822 WT1  3743 TIP3 H2   HT     0.417000        1.0080           0
   10823 WT1  3744 TIP3 OH2  OT    -0.834000       15.9994           0
   10824 WT1  3744 TIP3 H1   HT     0.417000        1.0080           0
   10825 WT1  3744 TIP3 H2   HT     0.417000        1.0080           0
   10826 WT1  3745 TIP3 OH2  OT    -0.834000       15.9994           0
   10827 WT1  3745 TIP3 H1   HT     0.417000        1.0080           0
   10828 WT1  3745 TIP3 H2   HT     0.417000        1.0080           0
   10829 WT1  3746 TIP3 OH2  OT    -0.834000       15.9994           0
   10830 WT1  3746 TIP3 H1   HT     0.417000        1.0080           0
   10831 WT1  3746 TIP3 H2   HT     0.417000        1.0080           0
   10832 WT1  3748 TIP3 OH2  OT    -0.834000       15.9994           0
   10833 WT1  3748 TIP3 H1   HT     0.417000        1.0080           0
   10834 WT1  3748 TIP3 H2   HT     0.417000        1.0080           0
   10835 WT1  3750 TIP3 OH2  OT    -0.834000       15.9994           0
   10836 WT1  3750 TIP3 H1   HT     0.417000        1.0080           0
   10837 WT1  3750 TIP3 H2   HT     0.417000        1.0080           0
   10838 WT1  3751 TIP3 OH2  OT    -0.834000       15.9994           0
   10839 WT1  3751 TIP3 H1   HT     0.417000        1.0080           0
   10840 WT1  3751 TIP3 H2   HT     0.417000        1.0080           0
   10841 WT1  3752 TIP3 OH2  OT    -0.834000       15.9994           0
   10842 WT1  3752 TIP3 H1   HT     0.417000        1.0080           0
   10843 WT1  3752 TIP3 H2   HT     0.417000        1.0080           0
   10844 WT1  3753 TIP3 OH2  OT    -0.834000       15.9994           0
   10845 WT1  3753 TIP3 H1   HT     0.417000        1.0080           0
   10846 WT1  3753 TIP3 H2   HT     0.417000        1.0080           0
   10847 WT1  3754 TIP3 OH2  OT    -0.834000       15.9994           0
   10848 WT1  3754 TIP3 H1   HT     0.417000        1.0080           0
   10849 WT1  3754 TIP3 H2   HT     0.417000        1.0080           0
   10850 WT1  3755 TIP3 OH2  OT    -0.834000       15.9994           0
   10851 WT1  3755 TIP3 H1   HT     0.417000        1.0080           0
   10852 WT1  3755 TIP3 H2   HT     0.417000        1.0080           0
   10853 WT1  3757 TIP3 OH2  OT    -0.834000       15.9994           0
   10854 WT1  3757 TIP3 H1   HT     0.417000        1.0080           0
   10855 WT1  3757 TIP3 H2   HT     0.417000        1.0080           0
   10856 WT1  3758 TIP3 OH2  OT    -0.834000       15.9994           0
   10857 WT1  3758 TIP3 H1   HT     0.417000        1.0080           0
   10858 WT1  3758 TIP3 H2   HT     0.417000        1.0080           0
   10859 WT1  3759 TIP3 OH2  OT    -0.834000       15.9994           0
   10860 WT1  3759 TIP3 H1   HT     0.417000        1.0080           0
   10861 WT1  3759 TIP3 H2   HT     0.417000        1.0080           0
   10862 WT1  3760 TIP3 OH2  OT    -0.834000       15.9994           0
   10863 WT1  3760 TIP3 H1   HT     0.417000        1.0080           0
   10864 WT1  3760 TIP3 H2   HT     0.417000        1.0080           0
   10865 WT1  3762 TIP3 OH2  OT    -0.834000       15.9994           0
   10866 WT1  3762 TIP3 H1   HT     0.417000        1.0080           0
   10867 WT1  3762 TIP3 H2   HT     0.417000        1.0080           0
   10868 WT1  3763 TIP3 OH2  OT    -0.834000       15.9994           0
   10869 WT1  3763 TIP3 H1   HT     0.417000        1.0080           0
   10870 WT1  3763 TIP3 H2   HT     0.417000        1.0080           0
   10871 WT1  3765 TIP3 OH2  OT    -0.834000       15.9994           0
   10872 WT1  3765 TIP3 H1   HT     0.417000        1.0080           0
   10873 WT1  3765 TIP3 H2   HT     0.417000        1.0080           0
   10874 WT1  3768 TIP3 OH2  OT    -0.834000       15.9994           0
   10875 WT1  3768 TIP3 H1   HT     0.417000        1.0080           0
   10876 WT1  3768 TIP3 H2   HT     0.417000        1.0080           0
   10877 WT1  3770 TIP3 OH2  OT    -0.834000       15.9994           0
   10878 WT1  3770 TIP3 H1   HT     0.417000        1.0080           0
   10879 WT1  3770 TIP3 H2   HT     0.417000        1.0080           0
   10880 WT1  3773 TIP3 OH2  OT    -0.834000       15.9994           0
   10881 WT1  3773 TIP3 H1   HT     0.417000        1.0080           0
   10882 WT1  3773 TIP3 H2   HT     0.417000        1.0080           0
   10883 WT1  3775 TIP3 OH2  OT    -0.834000       15.9994           0
   10884 WT1  3775 TIP3 H1   HT     0.417000        1.0080           0
   10885 WT1  3775 TIP3 H2   HT     0.417000        1.0080           0
   10886 WT1  3776 TIP3 OH2  OT    -0.834000       15.9994           0
   10887 WT1  3776 TIP3 H1   HT     0.417000        1.0080           0
   10888 WT1  3776 TIP3 H2   HT     0.417000        1.0080           0
   10889 WT1  3778 TIP3 OH2  OT    -0.834000       15.9994           0
   10890 WT1  3778 TIP3 H1   HT     0.417000        1.0080           0
   10891 WT1  3778 TIP3 H2   HT     0.417000        1.0080           0
   10892 WT1  3779 TIP3 OH2  OT    -0.834000       15.9994           0
   10893 WT1  3779 TIP3 H1   HT     0.417000        1.0080           0
   10894 WT1  3779 TIP3 H2   HT     0.417000        1.0080           0
   10895 WT1  3780 TIP3 OH2  OT    -0.834000       15.9994           0
   10896 WT1  3780 TIP3 H1   HT     0.417000        1.0080           0
   10897 WT1  3780 TIP3 H2   HT     0.417000        1.0080           0
   10898 WT1  3781 TIP3 OH2  OT    -0.834000       15.9994           0
   10899 WT1  3781 TIP3 H1   HT     0.417000        1.0080           0
   10900 WT1  3781 TIP3 H2   HT     0.417000        1.0080           0
   10901 WT1  3783 TIP3 OH2  OT    -0.834000       15.9994           0
   10902 WT1  3783 TIP3 H1   HT     0.417000        1.0080           0
   10903 WT1  3783 TIP3 H2   HT     0.417000        1.0080           0
   10904 WT1  3784 TIP3 OH2  OT    -0.834000       15.9994           0
   10905 WT1  3784 TIP3 H1   HT     0.417000        1.0080           0
   10906 WT1  3784 TIP3 H2   HT     0.417000        1.0080           0
   10907 WT1  3785 TIP3 OH2  OT    -0.834000       15.9994           0
   10908 WT1  3785 TIP3 H1   HT     0.417000        1.0080           0
   10909 WT1  3785 TIP3 H2   HT     0.417000        1.0080           0
   10910 WT1  3787 TIP3 OH2  OT    -0.834000       15.9994           0
   10911 WT1  3787 TIP3 H1   HT     0.417000        1.0080           0
   10912 WT1  3787 TIP3 H2   HT     0.417000        1.0080           0
   10913 WT1  3788 TIP3 OH2  OT    -0.834000       15.9994           0
   10914 WT1  3788 TIP3 H1   HT     0.417000        1.0080           0
   10915 WT1  3788 TIP3 H2   HT     0.417000        1.0080           0
   10916 WT1  3790 TIP3 OH2  OT    -0.834000       15.9994           0
   10917 WT1  3790 TIP3 H1   HT     0.417000        1.0080           0
   10918 WT1  3790 TIP3 H2   HT     0.417000        1.0080           0
   10919 WT1  3794 TIP3 OH2  OT    -0.834000       15.9994           0
   10920 WT1  3794 TIP3 H1   HT     0.417000        1.0080           0
   10921 WT1  3794 TIP3 H2   HT     0.417000        1.0080           0
   10922 WT1  3795 TIP3 OH2  OT    -0.834000       15.9994           0
   10923 WT1  3795 TIP3 H1   HT     0.417000        1.0080           0
   10924 WT1  3795 TIP3 H2   HT     0.417000        1.0080           0
   10925 WT1  3797 TIP3 OH2  OT    -0.834000       15.9994           0
   10926 WT1  3797 TIP3 H1   HT     0.417000        1.0080           0
   10927 WT1  3797 TIP3 H2   HT     0.417000        1.0080           0
   10928 WT1  3798 TIP3 OH2  OT    -0.834000       15.9994           0
   10929 WT1  3798 TIP3 H1   HT     0.417000        1.0080           0
   10930 WT1  3798 TIP3 H2   HT     0.417000        1.0080           0
   10931 WT1  3799 TIP3 OH2  OT    -0.834000       15.9994           0
   10932 WT1  3799 TIP3 H1   HT     0.417000        1.0080           0
   10933 WT1  3799 TIP3 H2   HT     0.417000        1.0080           0
   10934 WT1  3800 TIP3 OH2  OT    -0.834000       15.9994           0
   10935 WT1  3800 TIP3 H1   HT     0.417000        1.0080           0
   10936 WT1  3800 TIP3 H2   HT     0.417000        1.0080           0
   10937 WT1  3801 TIP3 OH2  OT    -0.834000       15.9994           0
   10938 WT1  3801 TIP3 H1   HT     0.417000        1.0080           0
   10939 WT1  3801 TIP3 H2   HT     0.417000        1.0080           0
   10940 WT1  3803 TIP3 OH2  OT    -0.834000       15.9994           0
   10941 WT1  3803 TIP3 H1   HT     0.417000        1.0080           0
   10942 WT1  3803 TIP3 H2   HT     0.417000        1.0080           0
   10943 WT1  3804 TIP3 OH2  OT    -0.834000       15.9994           0
   10944 WT1  3804 TIP3 H1   HT     0.417000        1.0080           0
   10945 WT1  3804 TIP3 H2   HT     0.417000        1.0080           0
   10946 WT1  3805 TIP3 OH2  OT    -0.834000       15.9994           0
   10947 WT1  3805 TIP3 H1   HT     0.417000        1.0080           0
   10948 WT1  3805 TIP3 H2   HT     0.417000        1.0080           0
   10949 WT1  3806 TIP3 OH2  OT    -0.834000       15.9994           0
   10950 WT1  3806 TIP3 H1   HT     0.417000        1.0080           0
   10951 WT1  3806 TIP3 H2   HT     0.417000        1.0080           0
   10952 WT1  3807 TIP3 OH2  OT    -0.834000       15.9994           0
   10953 WT1  3807 TIP3 H1   HT     0.417000        1.0080           0
   10954 WT1  3807 TIP3 H2   HT     0.417000        1.0080           0
   10955 WT1  3808 TIP3 OH2  OT    -0.834000       15.9994           0
   10956 WT1  3808 TIP3 H1   HT     0.417000        1.0080           0
   10957 WT1  3808 TIP3 H2   HT     0.417000        1.0080           0
   10958 WT1  3809 TIP3 OH2  OT    -0.834000       15.9994           0
   10959 WT1  3809 TIP3 H1   HT     0.417000        1.0080           0
   10960 WT1  3809 TIP3 H2   HT     0.417000        1.0080           0
   10961 WT1  3810 TIP3 OH2  OT    -0.834000       15.9994           0
   10962 WT1  3810 TIP3 H1   HT     0.417000        1.0080           0
   10963 WT1  3810 TIP3 H2   HT     0.417000        1.0080           0
   10964 WT1  3812 TIP3 OH2  OT    -0.834000       15.9994           0
   10965 WT1  3812 TIP3 H1   HT     0.417000        1.0080           0
   10966 WT1  3812 TIP3 H2   HT     0.417000        1.0080           0
   10967 WT1  3813 TIP3 OH2  OT    -0.834000       15.9994           0
   10968 WT1  3813 TIP3 H1   HT     0.417000        1.0080           0
   10969 WT1  3813 TIP3 H2   HT     0.417000        1.0080           0
   10970 WT1  3815 TIP3 OH2  OT    -0.834000       15.9994           0
   10971 WT1  3815 TIP3 H1   HT     0.417000        1.0080           0
   10972 WT1  3815 TIP3 H2   HT     0.417000        1.0080           0
   10973 WT1  3816 TIP3 OH2  OT    -0.834000       15.9994           0
   10974 WT1  3816 TIP3 H1   HT     0.417000        1.0080           0
   10975 WT1  3816 TIP3 H2   HT     0.417000        1.0080           0
   10976 WT1  3817 TIP3 OH2  OT    -0.834000       15.9994           0
   10977 WT1  3817 TIP3 H1   HT     0.417000        1.0080           0
   10978 WT1  3817 TIP3 H2   HT     0.417000        1.0080           0
   10979 WT1  3818 TIP3 OH2  OT    -0.834000       15.9994           0
   10980 WT1  3818 TIP3 H1   HT     0.417000        1.0080           0
   10981 WT1  3818 TIP3 H2   HT     0.417000        1.0080           0
   10982 WT1  3819 TIP3 OH2  OT    -0.834000       15.9994           0
   10983 WT1  3819 TIP3 H1   HT     0.417000        1.0080           0
   10984 WT1  3819 TIP3 H2   HT     0.417000        1.0080           0
   10985 WT1  3820 TIP3 OH2  OT    -0.834000       15.9994           0
   10986 WT1  3820 TIP3 H1   HT     0.417000        1.0080           0
   10987 WT1  3820 TIP3 H2   HT     0.417000        1.0080           0
   10988 WT1  3821 TIP3 OH2  OT    -0.834000       15.9994           0
   10989 WT1  3821 TIP3 H1   HT     0.417000        1.0080           0
   10990 WT1  3821 TIP3 H2   HT     0.417000        1.0080           0
   10991 WT1  3822 TIP3 OH2  OT    -0.834000       15.9994           0
   10992 WT1  3822 TIP3 H1   HT     0.417000        1.0080           0
   10993 WT1  3822 TIP3 H2   HT     0.417000        1.0080           0
   10994 WT1  3823 TIP3 OH2  OT    -0.834000       15.9994           0
   10995 WT1  3823 TIP3 H1   HT     0.417000        1.0080           0
   10996 WT1  3823 TIP3 H2   HT     0.417000        1.0080           0
   10997 WT1  3824 TIP3 OH2  OT    -0.834000       15.9994           0
   10998 WT1  3824 TIP3 H1   HT     0.417000        1.0080           0
   10999 WT1  3824 TIP3 H2   HT     0.417000        1.0080           0
   11000 WT1  3825 TIP3 OH2  OT    -0.834000       15.9994           0
   11001 WT1  3825 TIP3 H1   HT     0.417000        1.0080           0
   11002 WT1  3825 TIP3 H2   HT     0.417000        1.0080           0
   11003 WT1  3826 TIP3 OH2  OT    -0.834000       15.9994           0
   11004 WT1  3826 TIP3 H1   HT     0.417000        1.0080           0
   11005 WT1  3826 TIP3 H2   HT     0.417000        1.0080           0
   11006 WT1  3827 TIP3 OH2  OT    -0.834000       15.9994           0
   11007 WT1  3827 TIP3 H1   HT     0.417000        1.0080           0
   11008 WT1  3827 TIP3 H2   HT     0.417000        1.0080           0
   11009 WT1  3828 TIP3 OH2  OT    -0.834000       15.9994           0
   11010 WT1  3828 TIP3 H1   HT     0.417000        1.0080           0
   11011 WT1  3828 TIP3 H2   HT     0.417000        1.0080           0
   11012 WT1  3829 TIP3 OH2  OT    -0.834000       15.9994           0
   11013 WT1  3829 TIP3 H1   HT     0.417000        1.0080           0
   11014 WT1  3829 TIP3 H2   HT     0.417000        1.0080           0
   11015 WT1  3830 TIP3 OH2  OT    -0.834000       15.9994           0
   11016 WT1  3830 TIP3 H1   HT     0.417000        1.0080           0
   11017 WT1  3830 TIP3 H2   HT     0.417000        1.0080           0
   11018 WT1  3831 TIP3 OH2  OT    -0.834000       15.9994           0
   11019 WT1  3831 TIP3 H1   HT     0.417000        1.0080           0
   11020 WT1  3831 TIP3 H2   HT     0.417000        1.0080           0
   11021 WT1  3832 TIP3 OH2  OT    -0.834000       15.9994           0
   11022 WT1  3832 TIP3 H1   HT     0.417000        1.0080           0
   11023 WT1  3832 TIP3 H2   HT     0.417000        1.0080           0
   11024 WT1  3834 TIP3 OH2  OT    -0.834000       15.9994           0
   11025 WT1  3834 TIP3 H1   HT     0.417000        1.0080           0
   11026 WT1  3834 TIP3 H2   HT     0.417000        1.0080           0
   11027 WT1  3835 TIP3 OH2  OT    -0.834000       15.9994           0
   11028 WT1  3835 TIP3 H1   HT     0.417000        1.0080           0
   11029 WT1  3835 TIP3 H2   HT     0.417000        1.0080           0
   11030 WT1  3836 TIP3 OH2  OT    -0.834000       15.9994           0
   11031 WT1  3836 TIP3 H1   HT     0.417000        1.0080           0
   11032 WT1  3836 TIP3 H2   HT     0.417000        1.0080           0
   11033 WT1  3837 TIP3 OH2  OT    -0.834000       15.9994           0
   11034 WT1  3837 TIP3 H1   HT     0.417000        1.0080           0
   11035 WT1  3837 TIP3 H2   HT     0.417000        1.0080           0
   11036 WT1  3838 TIP3 OH2  OT    -0.834000       15.9994           0
   11037 WT1  3838 TIP3 H1   HT     0.417000        1.0080           0
   11038 WT1  3838 TIP3 H2   HT     0.417000        1.0080           0
   11039 WT1  3839 TIP3 OH2  OT    -0.834000       15.9994           0
   11040 WT1  3839 TIP3 H1   HT     0.417000        1.0080           0
   11041 WT1  3839 TIP3 H2   HT     0.417000        1.0080           0
   11042 WT1  3841 TIP3 OH2  OT    -0.834000       15.9994           0
   11043 WT1  3841 TIP3 H1   HT     0.417000        1.0080           0
   11044 WT1  3841 TIP3 H2   HT     0.417000        1.0080           0
   11045 WT1  3843 TIP3 OH2  OT    -0.834000       15.9994           0
   11046 WT1  3843 TIP3 H1   HT     0.417000        1.0080           0
   11047 WT1  3843 TIP3 H2   HT     0.417000        1.0080           0
   11048 WT1  3844 TIP3 OH2  OT    -0.834000       15.9994           0
   11049 WT1  3844 TIP3 H1   HT     0.417000        1.0080           0
   11050 WT1  3844 TIP3 H2   HT     0.417000        1.0080           0
   11051 WT1  3846 TIP3 OH2  OT    -0.834000       15.9994           0
   11052 WT1  3846 TIP3 H1   HT     0.417000        1.0080           0
   11053 WT1  3846 TIP3 H2   HT     0.417000        1.0080           0
   11054 WT1  3847 TIP3 OH2  OT    -0.834000       15.9994           0
   11055 WT1  3847 TIP3 H1   HT     0.417000        1.0080           0
   11056 WT1  3847 TIP3 H2   HT     0.417000        1.0080           0
   11057 WT1  3848 TIP3 OH2  OT    -0.834000       15.9994           0
   11058 WT1  3848 TIP3 H1   HT     0.417000        1.0080           0
   11059 WT1  3848 TIP3 H2   HT     0.417000        1.0080           0
   11060 WT1  3849 TIP3 OH2  OT    -0.834000       15.9994           0
   11061 WT1  3849 TIP3 H1   HT     0.417000        1.0080           0
   11062 WT1  3849 TIP3 H2   HT     0.417000        1.0080           0
   11063 WT1  3850 TIP3 OH2  OT    -0.834000       15.9994           0
   11064 WT1  3850 TIP3 H1   HT     0.417000        1.0080           0
   11065 WT1  3850 TIP3 H2   HT     0.417000        1.0080           0
   11066 WT1  3851 TIP3 OH2  OT    -0.834000       15.9994           0
   11067 WT1  3851 TIP3 H1   HT     0.417000        1.0080           0
   11068 WT1  3851 TIP3 H2   HT     0.417000        1.0080           0
   11069 WT1  3852 TIP3 OH2  OT    -0.834000       15.9994           0
   11070 WT1  3852 TIP3 H1   HT     0.417000        1.0080           0
   11071 WT1  3852 TIP3 H2   HT     0.417000        1.0080           0
   11072 WT1  3853 TIP3 OH2  OT    -0.834000       15.9994           0
   11073 WT1  3853 TIP3 H1   HT     0.417000        1.0080           0
   11074 WT1  3853 TIP3 H2   HT     0.417000        1.0080           0
   11075 WT1  3854 TIP3 OH2  OT    -0.834000       15.9994           0
   11076 WT1  3854 TIP3 H1   HT     0.417000        1.0080           0
   11077 WT1  3854 TIP3 H2   HT     0.417000        1.0080           0
   11078 WT1  3855 TIP3 OH2  OT    -0.834000       15.9994           0
   11079 WT1  3855 TIP3 H1   HT     0.417000        1.0080           0
   11080 WT1  3855 TIP3 H2   HT     0.417000        1.0080           0
   11081 WT1  3856 TIP3 OH2  OT    -0.834000       15.9994           0
   11082 WT1  3856 TIP3 H1   HT     0.417000        1.0080           0
   11083 WT1  3856 TIP3 H2   HT     0.417000        1.0080           0
   11084 WT1  3857 TIP3 OH2  OT    -0.834000       15.9994           0
   11085 WT1  3857 TIP3 H1   HT     0.417000        1.0080           0
   11086 WT1  3857 TIP3 H2   HT     0.417000        1.0080           0
   11087 WT1  3858 TIP3 OH2  OT    -0.834000       15.9994           0
   11088 WT1  3858 TIP3 H1   HT     0.417000        1.0080           0
   11089 WT1  3858 TIP3 H2   HT     0.417000        1.0080           0
   11090 WT1  3859 TIP3 OH2  OT    -0.834000       15.9994           0
   11091 WT1  3859 TIP3 H1   HT     0.417000        1.0080           0
   11092 WT1  3859 TIP3 H2   HT     0.417000        1.0080           0
   11093 WT1  3860 TIP3 OH2  OT    -0.834000       15.9994           0
   11094 WT1  3860 TIP3 H1   HT     0.417000        1.0080           0
   11095 WT1  3860 TIP3 H2   HT     0.417000        1.0080           0
   11096 WT1  3861 TIP3 OH2  OT    -0.834000       15.9994           0
   11097 WT1  3861 TIP3 H1   HT     0.417000        1.0080           0
   11098 WT1  3861 TIP3 H2   HT     0.417000        1.0080           0
   11099 WT1  3862 TIP3 OH2  OT    -0.834000       15.9994           0
   11100 WT1  3862 TIP3 H1   HT     0.417000        1.0080           0
   11101 WT1  3862 TIP3 H2   HT     0.417000        1.0080           0
   11102 WT1  3863 TIP3 OH2  OT    -0.834000       15.9994           0
   11103 WT1  3863 TIP3 H1   HT     0.417000        1.0080           0
   11104 WT1  3863 TIP3 H2   HT     0.417000        1.0080           0
   11105 WT1  3864 TIP3 OH2  OT    -0.834000       15.9994           0
   11106 WT1  3864 TIP3 H1   HT     0.417000        1.0080           0
   11107 WT1  3864 TIP3 H2   HT     0.417000        1.0080           0
   11108 WT1  3865 TIP3 OH2  OT    -0.834000       15.9994           0
   11109 WT1  3865 TIP3 H1   HT     0.417000        1.0080           0
   11110 WT1  3865 TIP3 H2   HT     0.417000        1.0080           0
   11111 WT1  3866 TIP3 OH2  OT    -0.834000       15.9994           0
   11112 WT1  3866 TIP3 H1   HT     0.417000        1.0080           0
   11113 WT1  3866 TIP3 H2   HT     0.417000        1.0080           0
   11114 WT1  3867 TIP3 OH2  OT    -0.834000       15.9994           0
   11115 WT1  3867 TIP3 H1   HT     0.417000        1.0080           0
   11116 WT1  3867 TIP3 H2   HT     0.417000        1.0080           0
   11117 WT1  3868 TIP3 OH2  OT    -0.834000       15.9994           0
   11118 WT1  3868 TIP3 H1   HT     0.417000        1.0080           0
   11119 WT1  3868 TIP3 H2   HT     0.417000        1.0080           0
   11120 WT1  3869 TIP3 OH2  OT    -0.834000       15.9994           0
   11121 WT1  3869 TIP3 H1   HT     0.417000        1.0080           0
   11122 WT1  3869 TIP3 H2   HT     0.417000        1.0080           0
   11123 WT1  3870 TIP3 OH2  OT    -0.834000       15.9994           0
   11124 WT1  3870 TIP3 H1   HT     0.417000        1.0080           0
   11125 WT1  3870 TIP3 H2   HT     0.417000        1.0080           0
   11126 WT1  3871 TIP3 OH2  OT    -0.834000       15.9994           0
   11127 WT1  3871 TIP3 H1   HT     0.417000        1.0080           0
   11128 WT1  3871 TIP3 H2   HT     0.417000        1.0080           0
   11129 WT1  3873 TIP3 OH2  OT    -0.834000       15.9994           0
   11130 WT1  3873 TIP3 H1   HT     0.417000        1.0080           0
   11131 WT1  3873 TIP3 H2   HT     0.417000        1.0080           0
   11132 WT1  3874 TIP3 OH2  OT    -0.834000       15.9994           0
   11133 WT1  3874 TIP3 H1   HT     0.417000        1.0080           0
   11134 WT1  3874 TIP3 H2   HT     0.417000        1.0080           0
   11135 WT1  3875 TIP3 OH2  OT    -0.834000       15.9994           0
   11136 WT1  3875 TIP3 H1   HT     0.417000        1.0080           0
   11137 WT1  3875 TIP3 H2   HT     0.417000        1.0080           0
   11138 WT1  3876 TIP3 OH2  OT    -0.834000       15.9994           0
   11139 WT1  3876 TIP3 H1   HT     0.417000        1.0080           0
   11140 WT1  3876 TIP3 H2   HT     0.417000        1.0080           0
   11141 WT1  3879 TIP3 OH2  OT    -0.834000       15.9994           0
   11142 WT1  3879 TIP3 H1   HT     0.417000        1.0080           0
   11143 WT1  3879 TIP3 H2   HT     0.417000        1.0080           0
   11144 WT1  3880 TIP3 OH2  OT    -0.834000       15.9994           0
   11145 WT1  3880 TIP3 H1   HT     0.417000        1.0080           0
   11146 WT1  3880 TIP3 H2   HT     0.417000        1.0080           0
   11147 WT1  3881 TIP3 OH2  OT    -0.834000       15.9994           0
   11148 WT1  3881 TIP3 H1   HT     0.417000        1.0080           0
   11149 WT1  3881 TIP3 H2   HT     0.417000        1.0080           0
   11150 WT1  3882 TIP3 OH2  OT    -0.834000       15.9994           0
   11151 WT1  3882 TIP3 H1   HT     0.417000        1.0080           0
   11152 WT1  3882 TIP3 H2   HT     0.417000        1.0080           0
   11153 WT1  3883 TIP3 OH2  OT    -0.834000       15.9994           0
   11154 WT1  3883 TIP3 H1   HT     0.417000        1.0080           0
   11155 WT1  3883 TIP3 H2   HT     0.417000        1.0080           0
   11156 WT1  3884 TIP3 OH2  OT    -0.834000       15.9994           0
   11157 WT1  3884 TIP3 H1   HT     0.417000        1.0080           0
   11158 WT1  3884 TIP3 H2   HT     0.417000        1.0080           0
   11159 WT1  3885 TIP3 OH2  OT    -0.834000       15.9994           0
   11160 WT1  3885 TIP3 H1   HT     0.417000        1.0080           0
   11161 WT1  3885 TIP3 H2   HT     0.417000        1.0080           0
   11162 WT1  3886 TIP3 OH2  OT    -0.834000       15.9994           0
   11163 WT1  3886 TIP3 H1   HT     0.417000        1.0080           0
   11164 WT1  3886 TIP3 H2   HT     0.417000        1.0080           0
   11165 WT1  3887 TIP3 OH2  OT    -0.834000       15.9994           0
   11166 WT1  3887 TIP3 H1   HT     0.417000        1.0080           0
   11167 WT1  3887 TIP3 H2   HT     0.417000        1.0080           0
   11168 WT1  3888 TIP3 OH2  OT    -0.834000       15.9994           0
   11169 WT1  3888 TIP3 H1   HT     0.417000        1.0080           0
   11170 WT1  3888 TIP3 H2   HT     0.417000        1.0080           0
   11171 WT1  3889 TIP3 OH2  OT    -0.834000       15.9994           0
   11172 WT1  3889 TIP3 H1   HT     0.417000        1.0080           0
   11173 WT1  3889 TIP3 H2   HT     0.417000        1.0080           0
   11174 WT1  3890 TIP3 OH2  OT    -0.834000       15.9994           0
   11175 WT1  3890 TIP3 H1   HT     0.417000        1.0080           0
   11176 WT1  3890 TIP3 H2   HT     0.417000        1.0080           0
   11177 WT1  3891 TIP3 OH2  OT    -0.834000       15.9994           0
   11178 WT1  3891 TIP3 H1   HT     0.417000        1.0080           0
   11179 WT1  3891 TIP3 H2   HT     0.417000        1.0080           0
   11180 WT1  3892 TIP3 OH2  OT    -0.834000       15.9994           0
   11181 WT1  3892 TIP3 H1   HT     0.417000        1.0080           0
   11182 WT1  3892 TIP3 H2   HT     0.417000        1.0080           0
   11183 WT1  3893 TIP3 OH2  OT    -0.834000       15.9994           0
   11184 WT1  3893 TIP3 H1   HT     0.417000        1.0080           0
   11185 WT1  3893 TIP3 H2   HT     0.417000        1.0080           0
   11186 WT1  3894 TIP3 OH2  OT    -0.834000       15.9994           0
   11187 WT1  3894 TIP3 H1   HT     0.417000        1.0080           0
   11188 WT1  3894 TIP3 H2   HT     0.417000        1.0080           0
   11189 WT1  3896 TIP3 OH2  OT    -0.834000       15.9994           0
   11190 WT1  3896 TIP3 H1   HT     0.417000        1.0080           0
   11191 WT1  3896 TIP3 H2   HT     0.417000        1.0080           0
   11192 WT1  3897 TIP3 OH2  OT    -0.834000       15.9994           0
   11193 WT1  3897 TIP3 H1   HT     0.417000        1.0080           0
   11194 WT1  3897 TIP3 H2   HT     0.417000        1.0080           0
   11195 WT1  3898 TIP3 OH2  OT    -0.834000       15.9994           0
   11196 WT1  3898 TIP3 H1   HT     0.417000        1.0080           0
   11197 WT1  3898 TIP3 H2   HT     0.417000        1.0080           0
   11198 WT1  3899 TIP3 OH2  OT    -0.834000       15.9994           0
   11199 WT1  3899 TIP3 H1   HT     0.417000        1.0080           0
   11200 WT1  3899 TIP3 H2   HT     0.417000        1.0080           0
   11201 WT1  3900 TIP3 OH2  OT    -0.834000       15.9994           0
   11202 WT1  3900 TIP3 H1   HT     0.417000        1.0080           0
   11203 WT1  3900 TIP3 H2   HT     0.417000        1.0080           0
   11204 WT1  3901 TIP3 OH2  OT    -0.834000       15.9994           0
   11205 WT1  3901 TIP3 H1   HT     0.417000        1.0080           0
   11206 WT1  3901 TIP3 H2   HT     0.417000        1.0080           0
   11207 WT1  3902 TIP3 OH2  OT    -0.834000       15.9994           0
   11208 WT1  3902 TIP3 H1   HT     0.417000        1.0080           0
   11209 WT1  3902 TIP3 H2   HT     0.417000        1.0080           0
   11210 WT1  3903 TIP3 OH2  OT    -0.834000       15.9994           0
   11211 WT1  3903 TIP3 H1   HT     0.417000        1.0080           0
   11212 WT1  3903 TIP3 H2   HT     0.417000        1.0080           0
   11213 WT1  3904 TIP3 OH2  OT    -0.834000       15.9994           0
   11214 WT1  3904 TIP3 H1   HT     0.417000        1.0080           0
   11215 WT1  3904 TIP3 H2   HT     0.417000        1.0080           0
   11216 WT1  3906 TIP3 OH2  OT    -0.834000       15.9994           0
   11217 WT1  3906 TIP3 H1   HT     0.417000        1.0080           0
   11218 WT1  3906 TIP3 H2   HT     0.417000        1.0080           0
   11219 WT1  3907 TIP3 OH2  OT    -0.834000       15.9994           0
   11220 WT1  3907 TIP3 H1   HT     0.417000        1.0080           0
   11221 WT1  3907 TIP3 H2   HT     0.417000        1.0080           0
   11222 WT1  3908 TIP3 OH2  OT    -0.834000       15.9994           0
   11223 WT1  3908 TIP3 H1   HT     0.417000        1.0080           0
   11224 WT1  3908 TIP3 H2   HT     0.417000        1.0080           0
   11225 WT1  3909 TIP3 OH2  OT    -0.834000       15.9994           0
   11226 WT1  3909 TIP3 H1   HT     0.417000        1.0080           0
   11227 WT1  3909 TIP3 H2   HT     0.417000        1.0080           0
   11228 WT1  3910 TIP3 OH2  OT    -0.834000       15.9994           0
   11229 WT1  3910 TIP3 H1   HT     0.417000        1.0080           0
   11230 WT1  3910 TIP3 H2   HT     0.417000        1.0080           0
   11231 WT1  3911 TIP3 OH2  OT    -0.834000       15.9994           0
   11232 WT1  3911 TIP3 H1   HT     0.417000        1.0080           0
   11233 WT1  3911 TIP3 H2   HT     0.417000        1.0080           0
   11234 WT1  3912 TIP3 OH2  OT    -0.834000       15.9994           0
   11235 WT1  3912 TIP3 H1   HT     0.417000        1.0080           0
   11236 WT1  3912 TIP3 H2   HT     0.417000        1.0080           0
   11237 WT1  3913 TIP3 OH2  OT    -0.834000       15.9994           0
   11238 WT1  3913 TIP3 H1   HT     0.417000        1.0080           0
   11239 WT1  3913 TIP3 H2   HT     0.417000        1.0080           0
   11240 WT1  3914 TIP3 OH2  OT    -0.834000       15.9994           0
   11241 WT1  3914 TIP3 H1   HT     0.417000        1.0080           0
   11242 WT1  3914 TIP3 H2   HT     0.417000        1.0080           0
   11243 WT1  3915 TIP3 OH2  OT    -0.834000       15.9994           0
   11244 WT1  3915 TIP3 H1   HT     0.417000        1.0080           0
   11245 WT1  3915 TIP3 H2   HT     0.417000        1.0080           0
   11246 WT1  3916 TIP3 OH2  OT    -0.834000       15.9994           0
   11247 WT1  3916 TIP3 H1   HT     0.417000        1.0080           0
   11248 WT1  3916 TIP3 H2   HT     0.417000        1.0080           0
   11249 WT1  3917 TIP3 OH2  OT    -0.834000       15.9994           0
   11250 WT1  3917 TIP3 H1   HT     0.417000        1.0080           0
   11251 WT1  3917 TIP3 H2   HT     0.417000        1.0080           0
   11252 WT1  3918 TIP3 OH2  OT    -0.834000       15.9994           0
   11253 WT1  3918 TIP3 H1   HT     0.417000        1.0080           0
   11254 WT1  3918 TIP3 H2   HT     0.417000        1.0080           0
   11255 WT1  3919 TIP3 OH2  OT    -0.834000       15.9994           0
   11256 WT1  3919 TIP3 H1   HT     0.417000        1.0080           0
   11257 WT1  3919 TIP3 H2   HT     0.417000        1.0080           0
   11258 WT1  3920 TIP3 OH2  OT    -0.834000       15.9994           0
   11259 WT1  3920 TIP3 H1   HT     0.417000        1.0080           0
   11260 WT1  3920 TIP3 H2   HT     0.417000        1.0080           0
   11261 WT1  3921 TIP3 OH2  OT    -0.834000       15.9994           0
   11262 WT1  3921 TIP3 H1   HT     0.417000        1.0080           0
   11263 WT1  3921 TIP3 H2   HT     0.417000        1.0080           0
   11264 WT1  3922 TIP3 OH2  OT    -0.834000       15.9994           0
   11265 WT1  3922 TIP3 H1   HT     0.417000        1.0080           0
   11266 WT1  3922 TIP3 H2   HT     0.417000        1.0080           0
   11267 WT1  3923 TIP3 OH2  OT    -0.834000       15.9994           0
   11268 WT1  3923 TIP3 H1   HT     0.417000        1.0080           0
   11269 WT1  3923 TIP3 H2   HT     0.417000        1.0080           0
   11270 WT1  3925 TIP3 OH2  OT    -0.834000       15.9994           0
   11271 WT1  3925 TIP3 H1   HT     0.417000        1.0080           0
   11272 WT1  3925 TIP3 H2   HT     0.417000        1.0080           0
   11273 WT1  3926 TIP3 OH2  OT    -0.834000       15.9994           0
   11274 WT1  3926 TIP3 H1   HT     0.417000        1.0080           0
   11275 WT1  3926 TIP3 H2   HT     0.417000        1.0080           0
   11276 WT1  3928 TIP3 OH2  OT    -0.834000       15.9994           0
   11277 WT1  3928 TIP3 H1   HT     0.417000        1.0080           0
   11278 WT1  3928 TIP3 H2   HT     0.417000        1.0080           0
   11279 WT1  3929 TIP3 OH2  OT    -0.834000       15.9994           0
   11280 WT1  3929 TIP3 H1   HT     0.417000        1.0080           0
   11281 WT1  3929 TIP3 H2   HT     0.417000        1.0080           0
   11282 WT1  3931 TIP3 OH2  OT    -0.834000       15.9994           0
   11283 WT1  3931 TIP3 H1   HT     0.417000        1.0080           0
   11284 WT1  3931 TIP3 H2   HT     0.417000        1.0080           0
   11285 WT1  3933 TIP3 OH2  OT    -0.834000       15.9994           0
   11286 WT1  3933 TIP3 H1   HT     0.417000        1.0080           0
   11287 WT1  3933 TIP3 H2   HT     0.417000        1.0080           0
   11288 WT1  3934 TIP3 OH2  OT    -0.834000       15.9994           0
   11289 WT1  3934 TIP3 H1   HT     0.417000        1.0080           0
   11290 WT1  3934 TIP3 H2   HT     0.417000        1.0080           0
   11291 WT1  3935 TIP3 OH2  OT    -0.834000       15.9994           0
   11292 WT1  3935 TIP3 H1   HT     0.417000        1.0080           0
   11293 WT1  3935 TIP3 H2   HT     0.417000        1.0080           0
   11294 WT1  3936 TIP3 OH2  OT    -0.834000       15.9994           0
   11295 WT1  3936 TIP3 H1   HT     0.417000        1.0080           0
   11296 WT1  3936 TIP3 H2   HT     0.417000        1.0080           0
   11297 WT1  3937 TIP3 OH2  OT    -0.834000       15.9994           0
   11298 WT1  3937 TIP3 H1   HT     0.417000        1.0080           0
   11299 WT1  3937 TIP3 H2   HT     0.417000        1.0080           0
   11300 WT1  3938 TIP3 OH2  OT    -0.834000       15.9994           0
   11301 WT1  3938 TIP3 H1   HT     0.417000        1.0080           0
   11302 WT1  3938 TIP3 H2   HT     0.417000        1.0080           0
   11303 WT1  3939 TIP3 OH2  OT    -0.834000       15.9994           0
   11304 WT1  3939 TIP3 H1   HT     0.417000        1.0080           0
   11305 WT1  3939 TIP3 H2   HT     0.417000        1.0080           0
   11306 WT1  3940 TIP3 OH2  OT    -0.834000       15.9994           0
   11307 WT1  3940 TIP3 H1   HT     0.417000        1.0080           0
   11308 WT1  3940 TIP3 H2   HT     0.417000        1.0080           0
   11309 WT1  3941 TIP3 OH2  OT    -0.834000       15.9994           0
   11310 WT1  3941 TIP3 H1   HT     0.417000        1.0080           0
   11311 WT1  3941 TIP3 H2   HT     0.417000        1.0080           0
   11312 WT1  3942 TIP3 OH2  OT    -0.834000       15.9994           0
   11313 WT1  3942 TIP3 H1   HT     0.417000        1.0080           0
   11314 WT1  3942 TIP3 H2   HT     0.417000        1.0080           0
   11315 WT1  3943 TIP3 OH2  OT    -0.834000       15.9994           0
   11316 WT1  3943 TIP3 H1   HT     0.417000        1.0080           0
   11317 WT1  3943 TIP3 H2   HT     0.417000        1.0080           0
   11318 WT1  3944 TIP3 OH2  OT    -0.834000       15.9994           0
   11319 WT1  3944 TIP3 H1   HT     0.417000        1.0080           0
   11320 WT1  3944 TIP3 H2   HT     0.417000        1.0080           0
   11321 WT1  3945 TIP3 OH2  OT    -0.834000       15.9994           0
   11322 WT1  3945 TIP3 H1   HT     0.417000        1.0080           0
   11323 WT1  3945 TIP3 H2   HT     0.417000        1.0080           0
   11324 WT1  3947 TIP3 OH2  OT    -0.834000       15.9994           0
   11325 WT1  3947 TIP3 H1   HT     0.417000        1.0080           0
   11326 WT1  3947 TIP3 H2   HT     0.417000        1.0080           0
   11327 WT1  3948 TIP3 OH2  OT    -0.834000       15.9994           0
   11328 WT1  3948 TIP3 H1   HT     0.417000        1.0080           0
   11329 WT1  3948 TIP3 H2   HT     0.417000        1.0080           0
   11330 WT1  3949 TIP3 OH2  OT    -0.834000       15.9994           0
   11331 WT1  3949 TIP3 H1   HT     0.417000        1.0080           0
   11332 WT1  3949 TIP3 H2   HT     0.417000        1.0080           0
   11333 WT1  3950 TIP3 OH2  OT    -0.834000       15.9994           0
   11334 WT1  3950 TIP3 H1   HT     0.417000        1.0080           0
   11335 WT1  3950 TIP3 H2   HT     0.417000        1.0080           0
   11336 WT1  3951 TIP3 OH2  OT    -0.834000       15.9994           0
   11337 WT1  3951 TIP3 H1   HT     0.417000        1.0080           0
   11338 WT1  3951 TIP3 H2   HT     0.417000        1.0080           0
   11339 WT1  3952 TIP3 OH2  OT    -0.834000       15.9994           0
   11340 WT1  3952 TIP3 H1   HT     0.417000        1.0080           0
   11341 WT1  3952 TIP3 H2   HT     0.417000        1.0080           0
   11342 WT1  3953 TIP3 OH2  OT    -0.834000       15.9994           0
   11343 WT1  3953 TIP3 H1   HT     0.417000        1.0080           0
   11344 WT1  3953 TIP3 H2   HT     0.417000        1.0080           0
   11345 WT1  3954 TIP3 OH2  OT    -0.834000       15.9994           0
   11346 WT1  3954 TIP3 H1   HT     0.417000        1.0080           0
   11347 WT1  3954 TIP3 H2   HT     0.417000        1.0080           0
   11348 WT1  3955 TIP3 OH2  OT    -0.834000       15.9994           0
   11349 WT1  3955 TIP3 H1   HT     0.417000        1.0080           0
   11350 WT1  3955 TIP3 H2   HT     0.417000        1.0080           0
   11351 WT1  3956 TIP3 OH2  OT    -0.834000       15.9994           0
   11352 WT1  3956 TIP3 H1   HT     0.417000        1.0080           0
   11353 WT1  3956 TIP3 H2   HT     0.417000        1.0080           0
   11354 WT1  3957 TIP3 OH2  OT    -0.834000       15.9994           0
   11355 WT1  3957 TIP3 H1   HT     0.417000        1.0080           0
   11356 WT1  3957 TIP3 H2   HT     0.417000        1.0080           0
   11357 WT1  3958 TIP3 OH2  OT    -0.834000       15.9994           0
   11358 WT1  3958 TIP3 H1   HT     0.417000        1.0080           0
   11359 WT1  3958 TIP3 H2   HT     0.417000        1.0080           0
   11360 WT1  3959 TIP3 OH2  OT    -0.834000       15.9994           0
   11361 WT1  3959 TIP3 H1   HT     0.417000        1.0080           0
   11362 WT1  3959 TIP3 H2   HT     0.417000        1.0080           0
   11363 WT1  3960 TIP3 OH2  OT    -0.834000       15.9994           0
   11364 WT1  3960 TIP3 H1   HT     0.417000        1.0080           0
   11365 WT1  3960 TIP3 H2   HT     0.417000        1.0080           0
   11366 WT1  3961 TIP3 OH2  OT    -0.834000       15.9994           0
   11367 WT1  3961 TIP3 H1   HT     0.417000        1.0080           0
   11368 WT1  3961 TIP3 H2   HT     0.417000        1.0080           0
   11369 WT1  3962 TIP3 OH2  OT    -0.834000       15.9994           0
   11370 WT1  3962 TIP3 H1   HT     0.417000        1.0080           0
   11371 WT1  3962 TIP3 H2   HT     0.417000        1.0080           0
   11372 WT1  3964 TIP3 OH2  OT    -0.834000       15.9994           0
   11373 WT1  3964 TIP3 H1   HT     0.417000        1.0080           0
   11374 WT1  3964 TIP3 H2   HT     0.417000        1.0080           0
   11375 WT1  3965 TIP3 OH2  OT    -0.834000       15.9994           0
   11376 WT1  3965 TIP3 H1   HT     0.417000        1.0080           0
   11377 WT1  3965 TIP3 H2   HT     0.417000        1.0080           0
   11378 WT1  3966 TIP3 OH2  OT    -0.834000       15.9994           0
   11379 WT1  3966 TIP3 H1   HT     0.417000        1.0080           0
   11380 WT1  3966 TIP3 H2   HT     0.417000        1.0080           0
   11381 WT1  3967 TIP3 OH2  OT    -0.834000       15.9994           0
   11382 WT1  3967 TIP3 H1   HT     0.417000        1.0080           0
   11383 WT1  3967 TIP3 H2   HT     0.417000        1.0080           0
   11384 WT1  3968 TIP3 OH2  OT    -0.834000       15.9994           0
   11385 WT1  3968 TIP3 H1   HT     0.417000        1.0080           0
   11386 WT1  3968 TIP3 H2   HT     0.417000        1.0080           0
   11387 WT1  3969 TIP3 OH2  OT    -0.834000       15.9994           0
   11388 WT1  3969 TIP3 H1   HT     0.417000        1.0080           0
   11389 WT1  3969 TIP3 H2   HT     0.417000        1.0080           0
   11390 WT1  3970 TIP3 OH2  OT    -0.834000       15.9994           0
   11391 WT1  3970 TIP3 H1   HT     0.417000        1.0080           0
   11392 WT1  3970 TIP3 H2   HT     0.417000        1.0080           0
   11393 WT1  3971 TIP3 OH2  OT    -0.834000       15.9994           0
   11394 WT1  3971 TIP3 H1   HT     0.417000        1.0080           0
   11395 WT1  3971 TIP3 H2   HT     0.417000        1.0080           0
   11396 WT1  3972 TIP3 OH2  OT    -0.834000       15.9994           0
   11397 WT1  3972 TIP3 H1   HT     0.417000        1.0080           0
   11398 WT1  3972 TIP3 H2   HT     0.417000        1.0080           0
   11399 WT1  3973 TIP3 OH2  OT    -0.834000       15.9994           0
   11400 WT1  3973 TIP3 H1   HT     0.417000        1.0080           0
   11401 WT1  3973 TIP3 H2   HT     0.417000        1.0080           0
   11402 WT1  3974 TIP3 OH2  OT    -0.834000       15.9994           0
   11403 WT1  3974 TIP3 H1   HT     0.417000        1.0080           0
   11404 WT1  3974 TIP3 H2   HT     0.417000        1.0080           0
   11405 WT1  3975 TIP3 OH2  OT    -0.834000       15.9994           0
   11406 WT1  3975 TIP3 H1   HT     0.417000        1.0080           0
   11407 WT1  3975 TIP3 H2   HT     0.417000        1.0080           0
   11408 WT1  3976 TIP3 OH2  OT    -0.834000       15.9994           0
   11409 WT1  3976 TIP3 H1   HT     0.417000        1.0080           0
   11410 WT1  3976 TIP3 H2   HT     0.417000        1.0080           0
   11411 WT1  3977 TIP3 OH2  OT    -0.834000       15.9994           0
   11412 WT1  3977 TIP3 H1   HT     0.417000        1.0080           0
   11413 WT1  3977 TIP3 H2   HT     0.417000        1.0080           0
   11414 WT1  3978 TIP3 OH2  OT    -0.834000       15.9994           0
   11415 WT1  3978 TIP3 H1   HT     0.417000        1.0080           0
   11416 WT1  3978 TIP3 H2   HT     0.417000        1.0080           0
   11417 WT1  3979 TIP3 OH2  OT    -0.834000       15.9994           0
   11418 WT1  3979 TIP3 H1   HT     0.417000        1.0080           0
   11419 WT1  3979 TIP3 H2   HT     0.417000        1.0080           0
   11420 WT1  3980 TIP3 OH2  OT    -0.834000       15.9994           0
   11421 WT1  3980 TIP3 H1   HT     0.417000        1.0080           0
   11422 WT1  3980 TIP3 H2   HT     0.417000        1.0080           0
   11423 WT1  3981 TIP3 OH2  OT    -0.834000       15.9994           0
   11424 WT1  3981 TIP3 H1   HT     0.417000        1.0080           0
   11425 WT1  3981 TIP3 H2   HT     0.417000        1.0080           0
   11426 WT1  3982 TIP3 OH2  OT    -0.834000       15.9994           0
   11427 WT1  3982 TIP3 H1   HT     0.417000        1.0080           0
   11428 WT1  3982 TIP3 H2   HT     0.417000        1.0080           0
   11429 WT1  3983 TIP3 OH2  OT    -0.834000       15.9994           0
   11430 WT1  3983 TIP3 H1   HT     0.417000        1.0080           0
   11431 WT1  3983 TIP3 H2   HT     0.417000        1.0080           0
   11432 WT1  3984 TIP3 OH2  OT    -0.834000       15.9994           0
   11433 WT1  3984 TIP3 H1   HT     0.417000        1.0080           0
   11434 WT1  3984 TIP3 H2   HT     0.417000        1.0080           0
   11435 WT1  3985 TIP3 OH2  OT    -0.834000       15.9994           0
   11436 WT1  3985 TIP3 H1   HT     0.417000        1.0080           0
   11437 WT1  3985 TIP3 H2   HT     0.417000        1.0080           0
   11438 WT1  3986 TIP3 OH2  OT    -0.834000       15.9994           0
   11439 WT1  3986 TIP3 H1   HT     0.417000        1.0080           0
   11440 WT1  3986 TIP3 H2   HT     0.417000        1.0080           0
   11441 WT1  3987 TIP3 OH2  OT    -0.834000       15.9994           0
   11442 WT1  3987 TIP3 H1   HT     0.417000        1.0080           0
   11443 WT1  3987 TIP3 H2   HT     0.417000        1.0080           0
   11444 WT1  3988 TIP3 OH2  OT    -0.834000       15.9994           0
   11445 WT1  3988 TIP3 H1   HT     0.417000        1.0080           0
   11446 WT1  3988 TIP3 H2   HT     0.417000        1.0080           0
   11447 WT1  3989 TIP3 OH2  OT    -0.834000       15.9994           0
   11448 WT1  3989 TIP3 H1   HT     0.417000        1.0080           0
   11449 WT1  3989 TIP3 H2   HT     0.417000        1.0080           0
   11450 WT1  3990 TIP3 OH2  OT    -0.834000       15.9994           0
   11451 WT1  3990 TIP3 H1   HT     0.417000        1.0080           0
   11452 WT1  3990 TIP3 H2   HT     0.417000        1.0080           0
   11453 WT1  3991 TIP3 OH2  OT    -0.834000       15.9994           0
   11454 WT1  3991 TIP3 H1   HT     0.417000        1.0080           0
   11455 WT1  3991 TIP3 H2   HT     0.417000        1.0080           0
   11456 WT1  3992 TIP3 OH2  OT    -0.834000       15.9994           0
   11457 WT1  3992 TIP3 H1   HT     0.417000        1.0080           0
   11458 WT1  3992 TIP3 H2   HT     0.417000        1.0080           0
   11459 WT1  3995 TIP3 OH2  OT    -0.834000       15.9994           0
   11460 WT1  3995 TIP3 H1   HT     0.417000        1.0080           0
   11461 WT1  3995 TIP3 H2   HT     0.417000        1.0080           0
   11462 WT1  3996 TIP3 OH2  OT    -0.834000       15.9994           0
   11463 WT1  3996 TIP3 H1   HT     0.417000        1.0080           0
   11464 WT1  3996 TIP3 H2   HT     0.417000        1.0080           0
   11465 WT1  3997 TIP3 OH2  OT    -0.834000       15.9994           0
   11466 WT1  3997 TIP3 H1   HT     0.417000        1.0080           0
   11467 WT1  3997 TIP3 H2   HT     0.417000        1.0080           0
   11468 WT1  3998 TIP3 OH2  OT    -0.834000       15.9994           0
   11469 WT1  3998 TIP3 H1   HT     0.417000        1.0080           0
   11470 WT1  3998 TIP3 H2   HT     0.417000        1.0080           0
   11471 WT1  3999 TIP3 OH2  OT    -0.834000       15.9994           0
   11472 WT1  3999 TIP3 H1   HT     0.417000        1.0080           0
   11473 WT1  3999 TIP3 H2   HT     0.417000        1.0080           0
   11474 WT1  4000 TIP3 OH2  OT    -0.834000       15.9994           0
   11475 WT1  4000 TIP3 H1   HT     0.417000        1.0080           0
   11476 WT1  4000 TIP3 H2   HT     0.417000        1.0080           0
   11477 WT1  4002 TIP3 OH2  OT    -0.834000       15.9994           0
   11478 WT1  4002 TIP3 H1   HT     0.417000        1.0080           0
   11479 WT1  4002 TIP3 H2   HT     0.417000        1.0080           0
   11480 WT1  4004 TIP3 OH2  OT    -0.834000       15.9994           0
   11481 WT1  4004 TIP3 H1   HT     0.417000        1.0080           0
   11482 WT1  4004 TIP3 H2   HT     0.417000        1.0080           0
   11483 WT1  4006 TIP3 OH2  OT    -0.834000       15.9994           0
   11484 WT1  4006 TIP3 H1   HT     0.417000        1.0080           0
   11485 WT1  4006 TIP3 H2   HT     0.417000        1.0080           0
   11486 WT1  4007 TIP3 OH2  OT    -0.834000       15.9994           0
   11487 WT1  4007 TIP3 H1   HT     0.417000        1.0080           0
   11488 WT1  4007 TIP3 H2   HT     0.417000        1.0080           0
   11489 WT1  4008 TIP3 OH2  OT    -0.834000       15.9994           0
   11490 WT1  4008 TIP3 H1   HT     0.417000        1.0080           0
   11491 WT1  4008 TIP3 H2   HT     0.417000        1.0080           0
   11492 WT1  4009 TIP3 OH2  OT    -0.834000       15.9994           0
   11493 WT1  4009 TIP3 H1   HT     0.417000        1.0080           0
   11494 WT1  4009 TIP3 H2   HT     0.417000        1.0080           0
   11495 WT1  4010 TIP3 OH2  OT    -0.834000       15.9994           0
   11496 WT1  4010 TIP3 H1   HT     0.417000        1.0080           0
   11497 WT1  4010 TIP3 H2   HT     0.417000        1.0080           0
   11498 WT1  4011 TIP3 OH2  OT    -0.834000       15.9994           0
   11499 WT1  4011 TIP3 H1   HT     0.417000        1.0080           0
   11500 WT1  4011 TIP3 H2   HT     0.417000        1.0080           0
   11501 WT1  4012 TIP3 OH2  OT    -0.834000       15.9994           0
   11502 WT1  4012 TIP3 H1   HT     0.417000        1.0080           0
   11503 WT1  4012 TIP3 H2   HT     0.417000        1.0080           0
   11504 WT1  4013 TIP3 OH2  OT    -0.834000       15.9994           0
   11505 WT1  4013 TIP3 H1   HT     0.417000        1.0080           0
   11506 WT1  4013 TIP3 H2   HT     0.417000        1.0080           0
   11507 WT1  4014 TIP3 OH2  OT    -0.834000       15.9994           0
   11508 WT1  4014 TIP3 H1   HT     0.417000        1.0080           0
   11509 WT1  4014 TIP3 H2   HT     0.417000        1.0080           0
   11510 WT1  4015 TIP3 OH2  OT    -0.834000       15.9994           0
   11511 WT1  4015 TIP3 H1   HT     0.417000        1.0080           0
   11512 WT1  4015 TIP3 H2   HT     0.417000        1.0080           0
   11513 WT1  4016 TIP3 OH2  OT    -0.834000       15.9994           0
   11514 WT1  4016 TIP3 H1   HT     0.417000        1.0080           0
   11515 WT1  4016 TIP3 H2   HT     0.417000        1.0080           0
   11516 WT1  4017 TIP3 OH2  OT    -0.834000       15.9994           0
   11517 WT1  4017 TIP3 H1   HT     0.417000        1.0080           0
   11518 WT1  4017 TIP3 H2   HT     0.417000        1.0080           0
   11519 WT1  4018 TIP3 OH2  OT    -0.834000       15.9994           0
   11520 WT1  4018 TIP3 H1   HT     0.417000        1.0080           0
   11521 WT1  4018 TIP3 H2   HT     0.417000        1.0080           0
   11522 WT1  4019 TIP3 OH2  OT    -0.834000       15.9994           0
   11523 WT1  4019 TIP3 H1   HT     0.417000        1.0080           0
   11524 WT1  4019 TIP3 H2   HT     0.417000        1.0080           0
   11525 WT1  4020 TIP3 OH2  OT    -0.834000       15.9994           0
   11526 WT1  4020 TIP3 H1   HT     0.417000        1.0080           0
   11527 WT1  4020 TIP3 H2   HT     0.417000        1.0080           0
   11528 WT1  4021 TIP3 OH2  OT    -0.834000       15.9994           0
   11529 WT1  4021 TIP3 H1   HT     0.417000        1.0080           0
   11530 WT1  4021 TIP3 H2   HT     0.417000        1.0080           0
   11531 WT1  4022 TIP3 OH2  OT    -0.834000       15.9994           0
   11532 WT1  4022 TIP3 H1   HT     0.417000        1.0080           0
   11533 WT1  4022 TIP3 H2   HT     0.417000        1.0080           0
   11534 WT1  4023 TIP3 OH2  OT    -0.834000       15.9994           0
   11535 WT1  4023 TIP3 H1   HT     0.417000        1.0080           0
   11536 WT1  4023 TIP3 H2   HT     0.417000        1.0080           0
   11537 WT1  4024 TIP3 OH2  OT    -0.834000       15.9994           0
   11538 WT1  4024 TIP3 H1   HT     0.417000        1.0080           0
   11539 WT1  4024 TIP3 H2   HT     0.417000        1.0080           0
   11540 WT1  4025 TIP3 OH2  OT    -0.834000       15.9994           0
   11541 WT1  4025 TIP3 H1   HT     0.417000        1.0080           0
   11542 WT1  4025 TIP3 H2   HT     0.417000        1.0080           0
   11543 WT1  4026 TIP3 OH2  OT    -0.834000       15.9994           0
   11544 WT1  4026 TIP3 H1   HT     0.417000        1.0080           0
   11545 WT1  4026 TIP3 H2   HT     0.417000        1.0080           0
   11546 WT1  4027 TIP3 OH2  OT    -0.834000       15.9994           0
   11547 WT1  4027 TIP3 H1   HT     0.417000        1.0080           0
   11548 WT1  4027 TIP3 H2   HT     0.417000        1.0080           0
   11549 WT1  4028 TIP3 OH2  OT    -0.834000       15.9994           0
   11550 WT1  4028 TIP3 H1   HT     0.417000        1.0080           0
   11551 WT1  4028 TIP3 H2   HT     0.417000        1.0080           0
   11552 WT1  4029 TIP3 OH2  OT    -0.834000       15.9994           0
   11553 WT1  4029 TIP3 H1   HT     0.417000        1.0080           0
   11554 WT1  4029 TIP3 H2   HT     0.417000        1.0080           0
   11555 WT1  4030 TIP3 OH2  OT    -0.834000       15.9994           0
   11556 WT1  4030 TIP3 H1   HT     0.417000        1.0080           0
   11557 WT1  4030 TIP3 H2   HT     0.417000        1.0080           0
   11558 WT1  4031 TIP3 OH2  OT    -0.834000       15.9994           0
   11559 WT1  4031 TIP3 H1   HT     0.417000        1.0080           0
   11560 WT1  4031 TIP3 H2   HT     0.417000        1.0080           0
   11561 WT1  4032 TIP3 OH2  OT    -0.834000       15.9994           0
   11562 WT1  4032 TIP3 H1   HT     0.417000        1.0080           0
   11563 WT1  4032 TIP3 H2   HT     0.417000        1.0080           0
   11564 WT1  4033 TIP3 OH2  OT    -0.834000       15.9994           0
   11565 WT1  4033 TIP3 H1   HT     0.417000        1.0080           0
   11566 WT1  4033 TIP3 H2   HT     0.417000        1.0080           0
   11567 WT1  4034 TIP3 OH2  OT    -0.834000       15.9994           0
   11568 WT1  4034 TIP3 H1   HT     0.417000        1.0080           0
   11569 WT1  4034 TIP3 H2   HT     0.417000        1.0080           0
   11570 WT1  4035 TIP3 OH2  OT    -0.834000       15.9994           0
   11571 WT1  4035 TIP3 H1   HT     0.417000        1.0080           0
   11572 WT1  4035 TIP3 H2   HT     0.417000        1.0080           0
   11573 WT1  4036 TIP3 OH2  OT    -0.834000       15.9994           0
   11574 WT1  4036 TIP3 H1   HT     0.417000        1.0080           0
   11575 WT1  4036 TIP3 H2   HT     0.417000        1.0080           0
   11576 WT1  4037 TIP3 OH2  OT    -0.834000       15.9994           0
   11577 WT1  4037 TIP3 H1   HT     0.417000        1.0080           0
   11578 WT1  4037 TIP3 H2   HT     0.417000        1.0080           0
   11579 WT1  4039 TIP3 OH2  OT    -0.834000       15.9994           0
   11580 WT1  4039 TIP3 H1   HT     0.417000        1.0080           0
   11581 WT1  4039 TIP3 H2   HT     0.417000        1.0080           0
   11582 WT1  4040 TIP3 OH2  OT    -0.834000       15.9994           0
   11583 WT1  4040 TIP3 H1   HT     0.417000        1.0080           0
   11584 WT1  4040 TIP3 H2   HT     0.417000        1.0080           0
   11585 WT1  4041 TIP3 OH2  OT    -0.834000       15.9994           0
   11586 WT1  4041 TIP3 H1   HT     0.417000        1.0080           0
   11587 WT1  4041 TIP3 H2   HT     0.417000        1.0080           0
   11588 WT1  4042 TIP3 OH2  OT    -0.834000       15.9994           0
   11589 WT1  4042 TIP3 H1   HT     0.417000        1.0080           0
   11590 WT1  4042 TIP3 H2   HT     0.417000        1.0080           0
   11591 WT1  4043 TIP3 OH2  OT    -0.834000       15.9994           0
   11592 WT1  4043 TIP3 H1   HT     0.417000        1.0080           0
   11593 WT1  4043 TIP3 H2   HT     0.417000        1.0080           0
   11594 WT1  4044 TIP3 OH2  OT    -0.834000       15.9994           0
   11595 WT1  4044 TIP3 H1   HT     0.417000        1.0080           0
   11596 WT1  4044 TIP3 H2   HT     0.417000        1.0080           0
   11597 WT1  4045 TIP3 OH2  OT    -0.834000       15.9994           0
   11598 WT1  4045 TIP3 H1   HT     0.417000        1.0080           0
   11599 WT1  4045 TIP3 H2   HT     0.417000        1.0080           0
   11600 WT1  4046 TIP3 OH2  OT    -0.834000       15.9994           0
   11601 WT1  4046 TIP3 H1   HT     0.417000        1.0080           0
   11602 WT1  4046 TIP3 H2   HT     0.417000        1.0080           0
   11603 WT1  4047 TIP3 OH2  OT    -0.834000       15.9994           0
   11604 WT1  4047 TIP3 H1   HT     0.417000        1.0080           0
   11605 WT1  4047 TIP3 H2   HT     0.417000        1.0080           0
   11606 WT1  4048 TIP3 OH2  OT    -0.834000       15.9994           0
   11607 WT1  4048 TIP3 H1   HT     0.417000        1.0080           0
   11608 WT1  4048 TIP3 H2   HT     0.417000        1.0080           0
   11609 WT1  4050 TIP3 OH2  OT    -0.834000       15.9994           0
   11610 WT1  4050 TIP3 H1   HT     0.417000        1.0080           0
   11611 WT1  4050 TIP3 H2   HT     0.417000        1.0080           0
   11612 WT1  4051 TIP3 OH2  OT    -0.834000       15.9994           0
   11613 WT1  4051 TIP3 H1   HT     0.417000        1.0080           0
   11614 WT1  4051 TIP3 H2   HT     0.417000        1.0080           0
   11615 WT1  4052 TIP3 OH2  OT    -0.834000       15.9994           0
   11616 WT1  4052 TIP3 H1   HT     0.417000        1.0080           0
   11617 WT1  4052 TIP3 H2   HT     0.417000        1.0080           0
   11618 WT1  4053 TIP3 OH2  OT    -0.834000       15.9994           0
   11619 WT1  4053 TIP3 H1   HT     0.417000        1.0080           0
   11620 WT1  4053 TIP3 H2   HT     0.417000        1.0080           0
   11621 WT1  4054 TIP3 OH2  OT    -0.834000       15.9994           0
   11622 WT1  4054 TIP3 H1   HT     0.417000        1.0080           0
   11623 WT1  4054 TIP3 H2   HT     0.417000        1.0080           0
   11624 WT1  4055 TIP3 OH2  OT    -0.834000       15.9994           0
   11625 WT1  4055 TIP3 H1   HT     0.417000        1.0080           0
   11626 WT1  4055 TIP3 H2   HT     0.417000        1.0080           0
   11627 WT1  4056 TIP3 OH2  OT    -0.834000       15.9994           0
   11628 WT1  4056 TIP3 H1   HT     0.417000        1.0080           0
   11629 WT1  4056 TIP3 H2   HT     0.417000        1.0080           0
   11630 WT1  4057 TIP3 OH2  OT    -0.834000       15.9994           0
   11631 WT1  4057 TIP3 H1   HT     0.417000        1.0080           0
   11632 WT1  4057 TIP3 H2   HT     0.417000        1.0080           0
   11633 WT1  4059 TIP3 OH2  OT    -0.834000       15.9994           0
   11634 WT1  4059 TIP3 H1   HT     0.417000        1.0080           0
   11635 WT1  4059 TIP3 H2   HT     0.417000        1.0080           0
   11636 WT1  4060 TIP3 OH2  OT    -0.834000       15.9994           0
   11637 WT1  4060 TIP3 H1   HT     0.417000        1.0080           0
   11638 WT1  4060 TIP3 H2   HT     0.417000        1.0080           0
   11639 WT1  4062 TIP3 OH2  OT    -0.834000       15.9994           0
   11640 WT1  4062 TIP3 H1   HT     0.417000        1.0080           0
   11641 WT1  4062 TIP3 H2   HT     0.417000        1.0080           0
   11642 WT1  4063 TIP3 OH2  OT    -0.834000       15.9994           0
   11643 WT1  4063 TIP3 H1   HT     0.417000        1.0080           0
   11644 WT1  4063 TIP3 H2   HT     0.417000        1.0080           0
   11645 WT1  4064 TIP3 OH2  OT    -0.834000       15.9994           0
   11646 WT1  4064 TIP3 H1   HT     0.417000        1.0080           0
   11647 WT1  4064 TIP3 H2   HT     0.417000        1.0080           0
   11648 WT1  4065 TIP3 OH2  OT    -0.834000       15.9994           0
   11649 WT1  4065 TIP3 H1   HT     0.417000        1.0080           0
   11650 WT1  4065 TIP3 H2   HT     0.417000        1.0080           0
   11651 WT1  4067 TIP3 OH2  OT    -0.834000       15.9994           0
   11652 WT1  4067 TIP3 H1   HT     0.417000        1.0080           0
   11653 WT1  4067 TIP3 H2   HT     0.417000        1.0080           0
   11654 WT1  4068 TIP3 OH2  OT    -0.834000       15.9994           0
   11655 WT1  4068 TIP3 H1   HT     0.417000        1.0080           0
   11656 WT1  4068 TIP3 H2   HT     0.417000        1.0080           0
   11657 WT1  4069 TIP3 OH2  OT    -0.834000       15.9994           0
   11658 WT1  4069 TIP3 H1   HT     0.417000        1.0080           0
   11659 WT1  4069 TIP3 H2   HT     0.417000        1.0080           0
   11660 WT1  4070 TIP3 OH2  OT    -0.834000       15.9994           0
   11661 WT1  4070 TIP3 H1   HT     0.417000        1.0080           0
   11662 WT1  4070 TIP3 H2   HT     0.417000        1.0080           0
   11663 WT1  4071 TIP3 OH2  OT    -0.834000       15.9994           0
   11664 WT1  4071 TIP3 H1   HT     0.417000        1.0080           0
   11665 WT1  4071 TIP3 H2   HT     0.417000        1.0080           0
   11666 WT1  4072 TIP3 OH2  OT    -0.834000       15.9994           0
   11667 WT1  4072 TIP3 H1   HT     0.417000        1.0080           0
   11668 WT1  4072 TIP3 H2   HT     0.417000        1.0080           0
   11669 WT1  4073 TIP3 OH2  OT    -0.834000       15.9994           0
   11670 WT1  4073 TIP3 H1   HT     0.417000        1.0080           0
   11671 WT1  4073 TIP3 H2   HT     0.417000        1.0080           0
   11672 WT1  4075 TIP3 OH2  OT    -0.834000       15.9994           0
   11673 WT1  4075 TIP3 H1   HT     0.417000        1.0080           0
   11674 WT1  4075 TIP3 H2   HT     0.417000        1.0080           0
   11675 WT1  4077 TIP3 OH2  OT    -0.834000       15.9994           0
   11676 WT1  4077 TIP3 H1   HT     0.417000        1.0080           0
   11677 WT1  4077 TIP3 H2   HT     0.417000        1.0080           0
   11678 WT1  4078 TIP3 OH2  OT    -0.834000       15.9994           0
   11679 WT1  4078 TIP3 H1   HT     0.417000        1.0080           0
   11680 WT1  4078 TIP3 H2   HT     0.417000        1.0080           0
   11681 WT1  4079 TIP3 OH2  OT    -0.834000       15.9994           0
   11682 WT1  4079 TIP3 H1   HT     0.417000        1.0080           0
   11683 WT1  4079 TIP3 H2   HT     0.417000        1.0080           0
   11684 WT1  4081 TIP3 OH2  OT    -0.834000       15.9994           0
   11685 WT1  4081 TIP3 H1   HT     0.417000        1.0080           0
   11686 WT1  4081 TIP3 H2   HT     0.417000        1.0080           0
   11687 WT1  4083 TIP3 OH2  OT    -0.834000       15.9994           0
   11688 WT1  4083 TIP3 H1   HT     0.417000        1.0080           0
   11689 WT1  4083 TIP3 H2   HT     0.417000        1.0080           0
   11690 WT1  4084 TIP3 OH2  OT    -0.834000       15.9994           0
   11691 WT1  4084 TIP3 H1   HT     0.417000        1.0080           0
   11692 WT1  4084 TIP3 H2   HT     0.417000        1.0080           0
   11693 WT1  4087 TIP3 OH2  OT    -0.834000       15.9994           0
   11694 WT1  4087 TIP3 H1   HT     0.417000        1.0080           0
   11695 WT1  4087 TIP3 H2   HT     0.417000        1.0080           0
   11696 WT1  4090 TIP3 OH2  OT    -0.834000       15.9994           0
   11697 WT1  4090 TIP3 H1   HT     0.417000        1.0080           0
   11698 WT1  4090 TIP3 H2   HT     0.417000        1.0080           0
   11699 WT1  4091 TIP3 OH2  OT    -0.834000       15.9994           0
   11700 WT1  4091 TIP3 H1   HT     0.417000        1.0080           0
   11701 WT1  4091 TIP3 H2   HT     0.417000        1.0080           0
   11702 WT1  4092 TIP3 OH2  OT    -0.834000       15.9994           0
   11703 WT1  4092 TIP3 H1   HT     0.417000        1.0080           0
   11704 WT1  4092 TIP3 H2   HT     0.417000        1.0080           0
   11705 WT1  4093 TIP3 OH2  OT    -0.834000       15.9994           0
   11706 WT1  4093 TIP3 H1   HT     0.417000        1.0080           0
   11707 WT1  4093 TIP3 H2   HT     0.417000        1.0080           0
   11708 WT1  4095 TIP3 OH2  OT    -0.834000       15.9994           0
   11709 WT1  4095 TIP3 H1   HT     0.417000        1.0080           0
   11710 WT1  4095 TIP3 H2   HT     0.417000        1.0080           0
   11711 WT1  4096 TIP3 OH2  OT    -0.834000       15.9994           0
   11712 WT1  4096 TIP3 H1   HT     0.417000        1.0080           0
   11713 WT1  4096 TIP3 H2   HT     0.417000        1.0080           0
   11714 WT1  4097 TIP3 OH2  OT    -0.834000       15.9994           0
   11715 WT1  4097 TIP3 H1   HT     0.417000        1.0080           0
   11716 WT1  4097 TIP3 H2   HT     0.417000        1.0080           0
   11717 WT1  4098 TIP3 OH2  OT    -0.834000       15.9994           0
   11718 WT1  4098 TIP3 H1   HT     0.417000        1.0080           0
   11719 WT1  4098 TIP3 H2   HT     0.417000        1.0080           0
   11720 WT1  4099 TIP3 OH2  OT    -0.834000       15.9994           0
   11721 WT1  4099 TIP3 H1   HT     0.417000        1.0080           0
   11722 WT1  4099 TIP3 H2   HT     0.417000        1.0080           0
   11723 WT1  4100 TIP3 OH2  OT    -0.834000       15.9994           0
   11724 WT1  4100 TIP3 H1   HT     0.417000        1.0080           0
   11725 WT1  4100 TIP3 H2   HT     0.417000        1.0080           0
   11726 WT1  4101 TIP3 OH2  OT    -0.834000       15.9994           0
   11727 WT1  4101 TIP3 H1   HT     0.417000        1.0080           0
   11728 WT1  4101 TIP3 H2   HT     0.417000        1.0080           0
   11729 WT1  4102 TIP3 OH2  OT    -0.834000       15.9994           0
   11730 WT1  4102 TIP3 H1   HT     0.417000        1.0080           0
   11731 WT1  4102 TIP3 H2   HT     0.417000        1.0080           0
   11732 WT1  4103 TIP3 OH2  OT    -0.834000       15.9994           0
   11733 WT1  4103 TIP3 H1   HT     0.417000        1.0080           0
   11734 WT1  4103 TIP3 H2   HT     0.417000        1.0080           0
   11735 WT1  4104 TIP3 OH2  OT    -0.834000       15.9994           0
   11736 WT1  4104 TIP3 H1   HT     0.417000        1.0080           0
   11737 WT1  4104 TIP3 H2   HT     0.417000        1.0080           0
   11738 WT1  4106 TIP3 OH2  OT    -0.834000       15.9994           0
   11739 WT1  4106 TIP3 H1   HT     0.417000        1.0080           0
   11740 WT1  4106 TIP3 H2   HT     0.417000        1.0080           0
   11741 WT1  4108 TIP3 OH2  OT    -0.834000       15.9994           0
   11742 WT1  4108 TIP3 H1   HT     0.417000        1.0080           0
   11743 WT1  4108 TIP3 H2   HT     0.417000        1.0080           0
   11744 WT1  4109 TIP3 OH2  OT    -0.834000       15.9994           0
   11745 WT1  4109 TIP3 H1   HT     0.417000        1.0080           0
   11746 WT1  4109 TIP3 H2   HT     0.417000        1.0080           0
   11747 WT1  4110 TIP3 OH2  OT    -0.834000       15.9994           0
   11748 WT1  4110 TIP3 H1   HT     0.417000        1.0080           0
   11749 WT1  4110 TIP3 H2   HT     0.417000        1.0080           0
   11750 WT1  4111 TIP3 OH2  OT    -0.834000       15.9994           0
   11751 WT1  4111 TIP3 H1   HT     0.417000        1.0080           0
   11752 WT1  4111 TIP3 H2   HT     0.417000        1.0080           0
   11753 WT1  4112 TIP3 OH2  OT    -0.834000       15.9994           0
   11754 WT1  4112 TIP3 H1   HT     0.417000        1.0080           0
   11755 WT1  4112 TIP3 H2   HT     0.417000        1.0080           0
   11756 WT1  4113 TIP3 OH2  OT    -0.834000       15.9994           0
   11757 WT1  4113 TIP3 H1   HT     0.417000        1.0080           0
   11758 WT1  4113 TIP3 H2   HT     0.417000        1.0080           0
   11759 WT1  4114 TIP3 OH2  OT    -0.834000       15.9994           0
   11760 WT1  4114 TIP3 H1   HT     0.417000        1.0080           0
   11761 WT1  4114 TIP3 H2   HT     0.417000        1.0080           0
   11762 WT1  4115 TIP3 OH2  OT    -0.834000       15.9994           0
   11763 WT1  4115 TIP3 H1   HT     0.417000        1.0080           0
   11764 WT1  4115 TIP3 H2   HT     0.417000        1.0080           0
   11765 WT1  4116 TIP3 OH2  OT    -0.834000       15.9994           0
   11766 WT1  4116 TIP3 H1   HT     0.417000        1.0080           0
   11767 WT1  4116 TIP3 H2   HT     0.417000        1.0080           0
   11768 WT1  4117 TIP3 OH2  OT    -0.834000       15.9994           0
   11769 WT1  4117 TIP3 H1   HT     0.417000        1.0080           0
   11770 WT1  4117 TIP3 H2   HT     0.417000        1.0080           0
   11771 WT1  4118 TIP3 OH2  OT    -0.834000       15.9994           0
   11772 WT1  4118 TIP3 H1   HT     0.417000        1.0080           0
   11773 WT1  4118 TIP3 H2   HT     0.417000        1.0080           0
   11774 WT1  4119 TIP3 OH2  OT    -0.834000       15.9994           0
   11775 WT1  4119 TIP3 H1   HT     0.417000        1.0080           0
   11776 WT1  4119 TIP3 H2   HT     0.417000        1.0080           0
   11777 WT1  4121 TIP3 OH2  OT    -0.834000       15.9994           0
   11778 WT1  4121 TIP3 H1   HT     0.417000        1.0080           0
   11779 WT1  4121 TIP3 H2   HT     0.417000        1.0080           0
   11780 WT1  4122 TIP3 OH2  OT    -0.834000       15.9994           0
   11781 WT1  4122 TIP3 H1   HT     0.417000        1.0080           0
   11782 WT1  4122 TIP3 H2   HT     0.417000        1.0080           0
   11783 WT1  4123 TIP3 OH2  OT    -0.834000       15.9994           0
   11784 WT1  4123 TIP3 H1   HT     0.417000        1.0080           0
   11785 WT1  4123 TIP3 H2   HT     0.417000        1.0080           0
   11786 WT1  4125 TIP3 OH2  OT    -0.834000       15.9994           0
   11787 WT1  4125 TIP3 H1   HT     0.417000        1.0080           0
   11788 WT1  4125 TIP3 H2   HT     0.417000        1.0080           0
   11789 WT1  4130 TIP3 OH2  OT    -0.834000       15.9994           0
   11790 WT1  4130 TIP3 H1   HT     0.417000        1.0080           0
   11791 WT1  4130 TIP3 H2   HT     0.417000        1.0080           0
   11792 WT1  4131 TIP3 OH2  OT    -0.834000       15.9994           0
   11793 WT1  4131 TIP3 H1   HT     0.417000        1.0080           0
   11794 WT1  4131 TIP3 H2   HT     0.417000        1.0080           0
   11795 WT1  4132 TIP3 OH2  OT    -0.834000       15.9994           0
   11796 WT1  4132 TIP3 H1   HT     0.417000        1.0080           0
   11797 WT1  4132 TIP3 H2   HT     0.417000        1.0080           0
   11798 WT1  4133 TIP3 OH2  OT    -0.834000       15.9994           0
   11799 WT1  4133 TIP3 H1   HT     0.417000        1.0080           0
   11800 WT1  4133 TIP3 H2   HT     0.417000        1.0080           0
   11801 WT1  4134 TIP3 OH2  OT    -0.834000       15.9994           0
   11802 WT1  4134 TIP3 H1   HT     0.417000        1.0080           0
   11803 WT1  4134 TIP3 H2   HT     0.417000        1.0080           0
   11804 WT1  4135 TIP3 OH2  OT    -0.834000       15.9994           0
   11805 WT1  4135 TIP3 H1   HT     0.417000        1.0080           0
   11806 WT1  4135 TIP3 H2   HT     0.417000        1.0080           0
   11807 WT1  4136 TIP3 OH2  OT    -0.834000       15.9994           0
   11808 WT1  4136 TIP3 H1   HT     0.417000        1.0080           0
   11809 WT1  4136 TIP3 H2   HT     0.417000        1.0080           0
   11810 WT1  4137 TIP3 OH2  OT    -0.834000       15.9994           0
   11811 WT1  4137 TIP3 H1   HT     0.417000        1.0080           0
   11812 WT1  4137 TIP3 H2   HT     0.417000        1.0080           0
   11813 WT1  4138 TIP3 OH2  OT    -0.834000       15.9994           0
   11814 WT1  4138 TIP3 H1   HT     0.417000        1.0080           0
   11815 WT1  4138 TIP3 H2   HT     0.417000        1.0080           0
   11816 WT1  4141 TIP3 OH2  OT    -0.834000       15.9994           0
   11817 WT1  4141 TIP3 H1   HT     0.417000        1.0080           0
   11818 WT1  4141 TIP3 H2   HT     0.417000        1.0080           0
   11819 WT1  4142 TIP3 OH2  OT    -0.834000       15.9994           0
   11820 WT1  4142 TIP3 H1   HT     0.417000        1.0080           0
   11821 WT1  4142 TIP3 H2   HT     0.417000        1.0080           0
   11822 WT1  4143 TIP3 OH2  OT    -0.834000       15.9994           0
   11823 WT1  4143 TIP3 H1   HT     0.417000        1.0080           0
   11824 WT1  4143 TIP3 H2   HT     0.417000        1.0080           0
   11825 WT1  4144 TIP3 OH2  OT    -0.834000       15.9994           0
   11826 WT1  4144 TIP3 H1   HT     0.417000        1.0080           0
   11827 WT1  4144 TIP3 H2   HT     0.417000        1.0080           0
   11828 WT1  4145 TIP3 OH2  OT    -0.834000       15.9994           0
   11829 WT1  4145 TIP3 H1   HT     0.417000        1.0080           0
   11830 WT1  4145 TIP3 H2   HT     0.417000        1.0080           0
   11831 WT1  4147 TIP3 OH2  OT    -0.834000       15.9994           0
   11832 WT1  4147 TIP3 H1   HT     0.417000        1.0080           0
   11833 WT1  4147 TIP3 H2   HT     0.417000        1.0080           0
   11834 WT1  4151 TIP3 OH2  OT    -0.834000       15.9994           0
   11835 WT1  4151 TIP3 H1   HT     0.417000        1.0080           0
   11836 WT1  4151 TIP3 H2   HT     0.417000        1.0080           0
   11837 WT1  4152 TIP3 OH2  OT    -0.834000       15.9994           0
   11838 WT1  4152 TIP3 H1   HT     0.417000        1.0080           0
   11839 WT1  4152 TIP3 H2   HT     0.417000        1.0080           0
   11840 WT1  4153 TIP3 OH2  OT    -0.834000       15.9994           0
   11841 WT1  4153 TIP3 H1   HT     0.417000        1.0080           0
   11842 WT1  4153 TIP3 H2   HT     0.417000        1.0080           0
   11843 WT1  4154 TIP3 OH2  OT    -0.834000       15.9994           0
   11844 WT1  4154 TIP3 H1   HT     0.417000        1.0080           0
   11845 WT1  4154 TIP3 H2   HT     0.417000        1.0080           0
   11846 WT1  4155 TIP3 OH2  OT    -0.834000       15.9994           0
   11847 WT1  4155 TIP3 H1   HT     0.417000        1.0080           0
   11848 WT1  4155 TIP3 H2   HT     0.417000        1.0080           0
   11849 WT1  4156 TIP3 OH2  OT    -0.834000       15.9994           0
   11850 WT1  4156 TIP3 H1   HT     0.417000        1.0080           0
   11851 WT1  4156 TIP3 H2   HT     0.417000        1.0080           0
   11852 WT1  4157 TIP3 OH2  OT    -0.834000       15.9994           0
   11853 WT1  4157 TIP3 H1   HT     0.417000        1.0080           0
   11854 WT1  4157 TIP3 H2   HT     0.417000        1.0080           0
   11855 WT1  4158 TIP3 OH2  OT    -0.834000       15.9994           0
   11856 WT1  4158 TIP3 H1   HT     0.417000        1.0080           0
   11857 WT1  4158 TIP3 H2   HT     0.417000        1.0080           0
   11858 WT1  4159 TIP3 OH2  OT    -0.834000       15.9994           0
   11859 WT1  4159 TIP3 H1   HT     0.417000        1.0080           0
   11860 WT1  4159 TIP3 H2   HT     0.417000        1.0080           0
   11861 WT1  4160 TIP3 OH2  OT    -0.834000       15.9994           0
   11862 WT1  4160 TIP3 H1   HT     0.417000        1.0080           0
   11863 WT1  4160 TIP3 H2   HT     0.417000        1.0080           0
   11864 WT1  4161 TIP3 OH2  OT    -0.834000       15.9994           0
   11865 WT1  4161 TIP3 H1   HT     0.417000        1.0080           0
   11866 WT1  4161 TIP3 H2   HT     0.417000        1.0080           0
   11867 WT1  4162 TIP3 OH2  OT    -0.834000       15.9994           0
   11868 WT1  4162 TIP3 H1   HT     0.417000        1.0080           0
   11869 WT1  4162 TIP3 H2   HT     0.417000        1.0080           0
   11870 WT1  4163 TIP3 OH2  OT    -0.834000       15.9994           0
   11871 WT1  4163 TIP3 H1   HT     0.417000        1.0080           0
   11872 WT1  4163 TIP3 H2   HT     0.417000        1.0080           0
   11873 WT1  4164 TIP3 OH2  OT    -0.834000       15.9994           0
   11874 WT1  4164 TIP3 H1   HT     0.417000        1.0080           0
   11875 WT1  4164 TIP3 H2   HT     0.417000        1.0080           0
   11876 WT1  4165 TIP3 OH2  OT    -0.834000       15.9994           0
   11877 WT1  4165 TIP3 H1   HT     0.417000        1.0080           0
   11878 WT1  4165 TIP3 H2   HT     0.417000        1.0080           0
   11879 WT1  4166 TIP3 OH2  OT    -0.834000       15.9994           0
   11880 WT1  4166 TIP3 H1   HT     0.417000        1.0080           0
   11881 WT1  4166 TIP3 H2   HT     0.417000        1.0080           0
   11882 WT1  4168 TIP3 OH2  OT    -0.834000       15.9994           0
   11883 WT1  4168 TIP3 H1   HT     0.417000        1.0080           0
   11884 WT1  4168 TIP3 H2   HT     0.417000        1.0080           0
   11885 WT1  4169 TIP3 OH2  OT    -0.834000       15.9994           0
   11886 WT1  4169 TIP3 H1   HT     0.417000        1.0080           0
   11887 WT1  4169 TIP3 H2   HT     0.417000        1.0080           0
   11888 WT1  4172 TIP3 OH2  OT    -0.834000       15.9994           0
   11889 WT1  4172 TIP3 H1   HT     0.417000        1.0080           0
   11890 WT1  4172 TIP3 H2   HT     0.417000        1.0080           0
   11891 WT1  4173 TIP3 OH2  OT    -0.834000       15.9994           0
   11892 WT1  4173 TIP3 H1   HT     0.417000        1.0080           0
   11893 WT1  4173 TIP3 H2   HT     0.417000        1.0080           0
   11894 WT1  4174 TIP3 OH2  OT    -0.834000       15.9994           0
   11895 WT1  4174 TIP3 H1   HT     0.417000        1.0080           0
   11896 WT1  4174 TIP3 H2   HT     0.417000        1.0080           0
   11897 WT1  4177 TIP3 OH2  OT    -0.834000       15.9994           0
   11898 WT1  4177 TIP3 H1   HT     0.417000        1.0080           0
   11899 WT1  4177 TIP3 H2   HT     0.417000        1.0080           0
   11900 WT1  4179 TIP3 OH2  OT    -0.834000       15.9994           0
   11901 WT1  4179 TIP3 H1   HT     0.417000        1.0080           0
   11902 WT1  4179 TIP3 H2   HT     0.417000        1.0080           0
   11903 WT1  4181 TIP3 OH2  OT    -0.834000       15.9994           0
   11904 WT1  4181 TIP3 H1   HT     0.417000        1.0080           0
   11905 WT1  4181 TIP3 H2   HT     0.417000        1.0080           0
   11906 WT1  4182 TIP3 OH2  OT    -0.834000       15.9994           0
   11907 WT1  4182 TIP3 H1   HT     0.417000        1.0080           0
   11908 WT1  4182 TIP3 H2   HT     0.417000        1.0080           0
   11909 WT1  4183 TIP3 OH2  OT    -0.834000       15.9994           0
   11910 WT1  4183 TIP3 H1   HT     0.417000        1.0080           0
   11911 WT1  4183 TIP3 H2   HT     0.417000        1.0080           0
   11912 WT1  4184 TIP3 OH2  OT    -0.834000       15.9994           0
   11913 WT1  4184 TIP3 H1   HT     0.417000        1.0080           0
   11914 WT1  4184 TIP3 H2   HT     0.417000        1.0080           0
   11915 WT1  4186 TIP3 OH2  OT    -0.834000       15.9994           0
   11916 WT1  4186 TIP3 H1   HT     0.417000        1.0080           0
   11917 WT1  4186 TIP3 H2   HT     0.417000        1.0080           0
   11918 WT1  4187 TIP3 OH2  OT    -0.834000       15.9994           0
   11919 WT1  4187 TIP3 H1   HT     0.417000        1.0080           0
   11920 WT1  4187 TIP3 H2   HT     0.417000        1.0080           0
   11921 WT1  4188 TIP3 OH2  OT    -0.834000       15.9994           0
   11922 WT1  4188 TIP3 H1   HT     0.417000        1.0080           0
   11923 WT1  4188 TIP3 H2   HT     0.417000        1.0080           0
   11924 WT1  4189 TIP3 OH2  OT    -0.834000       15.9994           0
   11925 WT1  4189 TIP3 H1   HT     0.417000        1.0080           0
   11926 WT1  4189 TIP3 H2   HT     0.417000        1.0080           0
   11927 WT1  4190 TIP3 OH2  OT    -0.834000       15.9994           0
   11928 WT1  4190 TIP3 H1   HT     0.417000        1.0080           0
   11929 WT1  4190 TIP3 H2   HT     0.417000        1.0080           0
   11930 WT1  4192 TIP3 OH2  OT    -0.834000       15.9994           0
   11931 WT1  4192 TIP3 H1   HT     0.417000        1.0080           0
   11932 WT1  4192 TIP3 H2   HT     0.417000        1.0080           0
   11933 WT1  4194 TIP3 OH2  OT    -0.834000       15.9994           0
   11934 WT1  4194 TIP3 H1   HT     0.417000        1.0080           0
   11935 WT1  4194 TIP3 H2   HT     0.417000        1.0080           0
   11936 WT1  4195 TIP3 OH2  OT    -0.834000       15.9994           0
   11937 WT1  4195 TIP3 H1   HT     0.417000        1.0080           0
   11938 WT1  4195 TIP3 H2   HT     0.417000        1.0080           0
   11939 WT1  4198 TIP3 OH2  OT    -0.834000       15.9994           0
   11940 WT1  4198 TIP3 H1   HT     0.417000        1.0080           0
   11941 WT1  4198 TIP3 H2   HT     0.417000        1.0080           0
   11942 WT1  4200 TIP3 OH2  OT    -0.834000       15.9994           0
   11943 WT1  4200 TIP3 H1   HT     0.417000        1.0080           0
   11944 WT1  4200 TIP3 H2   HT     0.417000        1.0080           0
   11945 WT1  4201 TIP3 OH2  OT    -0.834000       15.9994           0
   11946 WT1  4201 TIP3 H1   HT     0.417000        1.0080           0
   11947 WT1  4201 TIP3 H2   HT     0.417000        1.0080           0
   11948 WT1  4202 TIP3 OH2  OT    -0.834000       15.9994           0
   11949 WT1  4202 TIP3 H1   HT     0.417000        1.0080           0
   11950 WT1  4202 TIP3 H2   HT     0.417000        1.0080           0
   11951 WT1  4203 TIP3 OH2  OT    -0.834000       15.9994           0
   11952 WT1  4203 TIP3 H1   HT     0.417000        1.0080           0
   11953 WT1  4203 TIP3 H2   HT     0.417000        1.0080           0
   11954 WT1  4204 TIP3 OH2  OT    -0.834000       15.9994           0
   11955 WT1  4204 TIP3 H1   HT     0.417000        1.0080           0
   11956 WT1  4204 TIP3 H2   HT     0.417000        1.0080           0
   11957 WT1  4205 TIP3 OH2  OT    -0.834000       15.9994           0
   11958 WT1  4205 TIP3 H1   HT     0.417000        1.0080           0
   11959 WT1  4205 TIP3 H2   HT     0.417000        1.0080           0
   11960 WT1  4207 TIP3 OH2  OT    -0.834000       15.9994           0
   11961 WT1  4207 TIP3 H1   HT     0.417000        1.0080           0
   11962 WT1  4207 TIP3 H2   HT     0.417000        1.0080           0
   11963 WT1  4208 TIP3 OH2  OT    -0.834000       15.9994           0
   11964 WT1  4208 TIP3 H1   HT     0.417000        1.0080           0
   11965 WT1  4208 TIP3 H2   HT     0.417000        1.0080           0
   11966 WT1  4210 TIP3 OH2  OT    -0.834000       15.9994           0
   11967 WT1  4210 TIP3 H1   HT     0.417000        1.0080           0
   11968 WT1  4210 TIP3 H2   HT     0.417000        1.0080           0
   11969 WT1  4211 TIP3 OH2  OT    -0.834000       15.9994           0
   11970 WT1  4211 TIP3 H1   HT     0.417000        1.0080           0
   11971 WT1  4211 TIP3 H2   HT     0.417000        1.0080           0
   11972 WT1  4213 TIP3 OH2  OT    -0.834000       15.9994           0
   11973 WT1  4213 TIP3 H1   HT     0.417000        1.0080           0
   11974 WT1  4213 TIP3 H2   HT     0.417000        1.0080           0
   11975 WT1  4214 TIP3 OH2  OT    -0.834000       15.9994           0
   11976 WT1  4214 TIP3 H1   HT     0.417000        1.0080           0
   11977 WT1  4214 TIP3 H2   HT     0.417000        1.0080           0
   11978 WT1  4216 TIP3 OH2  OT    -0.834000       15.9994           0
   11979 WT1  4216 TIP3 H1   HT     0.417000        1.0080           0
   11980 WT1  4216 TIP3 H2   HT     0.417000        1.0080           0
   11981 WT1  4218 TIP3 OH2  OT    -0.834000       15.9994           0
   11982 WT1  4218 TIP3 H1   HT     0.417000        1.0080           0
   11983 WT1  4218 TIP3 H2   HT     0.417000        1.0080           0
   11984 WT1  4219 TIP3 OH2  OT    -0.834000       15.9994           0
   11985 WT1  4219 TIP3 H1   HT     0.417000        1.0080           0
   11986 WT1  4219 TIP3 H2   HT     0.417000        1.0080           0
   11987 WT1  4220 TIP3 OH2  OT    -0.834000       15.9994           0
   11988 WT1  4220 TIP3 H1   HT     0.417000        1.0080           0
   11989 WT1  4220 TIP3 H2   HT     0.417000        1.0080           0
   11990 WT1  4221 TIP3 OH2  OT    -0.834000       15.9994           0
   11991 WT1  4221 TIP3 H1   HT     0.417000        1.0080           0
   11992 WT1  4221 TIP3 H2   HT     0.417000        1.0080           0
   11993 WT1  4222 TIP3 OH2  OT    -0.834000       15.9994           0
   11994 WT1  4222 TIP3 H1   HT     0.417000        1.0080           0
   11995 WT1  4222 TIP3 H2   HT     0.417000        1.0080           0
   11996 WT1  4223 TIP3 OH2  OT    -0.834000       15.9994           0
   11997 WT1  4223 TIP3 H1   HT     0.417000        1.0080           0
   11998 WT1  4223 TIP3 H2   HT     0.417000        1.0080           0
   11999 WT1  4224 TIP3 OH2  OT    -0.834000       15.9994           0
   12000 WT1  4224 TIP3 H1   HT     0.417000        1.0080           0
   12001 WT1  4224 TIP3 H2   HT     0.417000        1.0080           0
   12002 WT1  4225 TIP3 OH2  OT    -0.834000       15.9994           0
   12003 WT1  4225 TIP3 H1   HT     0.417000        1.0080           0
   12004 WT1  4225 TIP3 H2   HT     0.417000        1.0080           0
   12005 WT1  4226 TIP3 OH2  OT    -0.834000       15.9994           0
   12006 WT1  4226 TIP3 H1   HT     0.417000        1.0080           0
   12007 WT1  4226 TIP3 H2   HT     0.417000        1.0080           0
   12008 WT1  4227 TIP3 OH2  OT    -0.834000       15.9994           0
   12009 WT1  4227 TIP3 H1   HT     0.417000        1.0080           0
   12010 WT1  4227 TIP3 H2   HT     0.417000        1.0080           0
   12011 WT1  4228 TIP3 OH2  OT    -0.834000       15.9994           0
   12012 WT1  4228 TIP3 H1   HT     0.417000        1.0080           0
   12013 WT1  4228 TIP3 H2   HT     0.417000        1.0080           0
   12014 WT1  4229 TIP3 OH2  OT    -0.834000       15.9994           0
   12015 WT1  4229 TIP3 H1   HT     0.417000        1.0080           0
   12016 WT1  4229 TIP3 H2   HT     0.417000        1.0080           0
   12017 WT1  4233 TIP3 OH2  OT    -0.834000       15.9994           0
   12018 WT1  4233 TIP3 H1   HT     0.417000        1.0080           0
   12019 WT1  4233 TIP3 H2   HT     0.417000        1.0080           0
   12020 WT1  4234 TIP3 OH2  OT    -0.834000       15.9994           0
   12021 WT1  4234 TIP3 H1   HT     0.417000        1.0080           0
   12022 WT1  4234 TIP3 H2   HT     0.417000        1.0080           0
   12023 WT1  4236 TIP3 OH2  OT    -0.834000       15.9994           0
   12024 WT1  4236 TIP3 H1   HT     0.417000        1.0080           0
   12025 WT1  4236 TIP3 H2   HT     0.417000        1.0080           0
   12026 WT1  4238 TIP3 OH2  OT    -0.834000       15.9994           0
   12027 WT1  4238 TIP3 H1   HT     0.417000        1.0080           0
   12028 WT1  4238 TIP3 H2   HT     0.417000        1.0080           0
   12029 WT1  4239 TIP3 OH2  OT    -0.834000       15.9994           0
   12030 WT1  4239 TIP3 H1   HT     0.417000        1.0080           0
   12031 WT1  4239 TIP3 H2   HT     0.417000        1.0080           0
   12032 WT1  4241 TIP3 OH2  OT    -0.834000       15.9994           0
   12033 WT1  4241 TIP3 H1   HT     0.417000        1.0080           0
   12034 WT1  4241 TIP3 H2   HT     0.417000        1.0080           0
   12035 WT1  4242 TIP3 OH2  OT    -0.834000       15.9994           0
   12036 WT1  4242 TIP3 H1   HT     0.417000        1.0080           0
   12037 WT1  4242 TIP3 H2   HT     0.417000        1.0080           0
   12038 WT1  4243 TIP3 OH2  OT    -0.834000       15.9994           0
   12039 WT1  4243 TIP3 H1   HT     0.417000        1.0080           0
   12040 WT1  4243 TIP3 H2   HT     0.417000        1.0080           0
   12041 WT1  4245 TIP3 OH2  OT    -0.834000       15.9994           0
   12042 WT1  4245 TIP3 H1   HT     0.417000        1.0080           0
   12043 WT1  4245 TIP3 H2   HT     0.417000        1.0080           0
   12044 WT1  4246 TIP3 OH2  OT    -0.834000       15.9994           0
   12045 WT1  4246 TIP3 H1   HT     0.417000        1.0080           0
   12046 WT1  4246 TIP3 H2   HT     0.417000        1.0080           0
   12047 WT1  4247 TIP3 OH2  OT    -0.834000       15.9994           0
   12048 WT1  4247 TIP3 H1   HT     0.417000        1.0080           0
   12049 WT1  4247 TIP3 H2   HT     0.417000        1.0080           0
   12050 WT1  4248 TIP3 OH2  OT    -0.834000       15.9994           0
   12051 WT1  4248 TIP3 H1   HT     0.417000        1.0080           0
   12052 WT1  4248 TIP3 H2   HT     0.417000        1.0080           0
   12053 WT1  4249 TIP3 OH2  OT    -0.834000       15.9994           0
   12054 WT1  4249 TIP3 H1   HT     0.417000        1.0080           0
   12055 WT1  4249 TIP3 H2   HT     0.417000        1.0080           0
   12056 WT1  4250 TIP3 OH2  OT    -0.834000       15.9994           0
   12057 WT1  4250 TIP3 H1   HT     0.417000        1.0080           0
   12058 WT1  4250 TIP3 H2   HT     0.417000        1.0080           0
   12059 WT1  4251 TIP3 OH2  OT    -0.834000       15.9994           0
   12060 WT1  4251 TIP3 H1   HT     0.417000        1.0080           0
   12061 WT1  4251 TIP3 H2   HT     0.417000        1.0080           0
   12062 WT1  4252 TIP3 OH2  OT    -0.834000       15.9994           0
   12063 WT1  4252 TIP3 H1   HT     0.417000        1.0080           0
   12064 WT1  4252 TIP3 H2   HT     0.417000        1.0080           0
   12065 WT1  4253 TIP3 OH2  OT    -0.834000       15.9994           0
   12066 WT1  4253 TIP3 H1   HT     0.417000        1.0080           0
   12067 WT1  4253 TIP3 H2   HT     0.417000        1.0080           0
   12068 WT1  4254 TIP3 OH2  OT    -0.834000       15.9994           0
   12069 WT1  4254 TIP3 H1   HT     0.417000        1.0080           0
   12070 WT1  4254 TIP3 H2   HT     0.417000        1.0080           0
   12071 WT1  4255 TIP3 OH2  OT    -0.834000       15.9994           0
   12072 WT1  4255 TIP3 H1   HT     0.417000        1.0080           0
   12073 WT1  4255 TIP3 H2   HT     0.417000        1.0080           0
   12074 WT1  4256 TIP3 OH2  OT    -0.834000       15.9994           0
   12075 WT1  4256 TIP3 H1   HT     0.417000        1.0080           0
   12076 WT1  4256 TIP3 H2   HT     0.417000        1.0080           0
   12077 WT1  4259 TIP3 OH2  OT    -0.834000       15.9994           0
   12078 WT1  4259 TIP3 H1   HT     0.417000        1.0080           0
   12079 WT1  4259 TIP3 H2   HT     0.417000        1.0080           0
   12080 WT1  4261 TIP3 OH2  OT    -0.834000       15.9994           0
   12081 WT1  4261 TIP3 H1   HT     0.417000        1.0080           0
   12082 WT1  4261 TIP3 H2   HT     0.417000        1.0080           0
   12083 WT1  4262 TIP3 OH2  OT    -0.834000       15.9994           0
   12084 WT1  4262 TIP3 H1   HT     0.417000        1.0080           0
   12085 WT1  4262 TIP3 H2   HT     0.417000        1.0080           0
   12086 WT1  4263 TIP3 OH2  OT    -0.834000       15.9994           0
   12087 WT1  4263 TIP3 H1   HT     0.417000        1.0080           0
   12088 WT1  4263 TIP3 H2   HT     0.417000        1.0080           0
   12089 WT1  4264 TIP3 OH2  OT    -0.834000       15.9994           0
   12090 WT1  4264 TIP3 H1   HT     0.417000        1.0080           0
   12091 WT1  4264 TIP3 H2   HT     0.417000        1.0080           0
   12092 WT1  4266 TIP3 OH2  OT    -0.834000       15.9994           0
   12093 WT1  4266 TIP3 H1   HT     0.417000        1.0080           0
   12094 WT1  4266 TIP3 H2   HT     0.417000        1.0080           0
   12095 WT1  4267 TIP3 OH2  OT    -0.834000       15.9994           0
   12096 WT1  4267 TIP3 H1   HT     0.417000        1.0080           0
   12097 WT1  4267 TIP3 H2   HT     0.417000        1.0080           0
   12098 WT1  4268 TIP3 OH2  OT    -0.834000       15.9994           0
   12099 WT1  4268 TIP3 H1   HT     0.417000        1.0080           0
   12100 WT1  4268 TIP3 H2   HT     0.417000        1.0080           0
   12101 WT1  4269 TIP3 OH2  OT    -0.834000       15.9994           0
   12102 WT1  4269 TIP3 H1   HT     0.417000        1.0080           0
   12103 WT1  4269 TIP3 H2   HT     0.417000        1.0080           0
   12104 WT1  4270 TIP3 OH2  OT    -0.834000       15.9994           0
   12105 WT1  4270 TIP3 H1   HT     0.417000        1.0080           0
   12106 WT1  4270 TIP3 H2   HT     0.417000        1.0080           0
   12107 WT1  4271 TIP3 OH2  OT    -0.834000       15.9994           0
   12108 WT1  4271 TIP3 H1   HT     0.417000        1.0080           0
   12109 WT1  4271 TIP3 H2   HT     0.417000        1.0080           0
   12110 WT1  4272 TIP3 OH2  OT    -0.834000       15.9994           0
   12111 WT1  4272 TIP3 H1   HT     0.417000        1.0080           0
   12112 WT1  4272 TIP3 H2   HT     0.417000        1.0080           0
   12113 WT1  4273 TIP3 OH2  OT    -0.834000       15.9994           0
   12114 WT1  4273 TIP3 H1   HT     0.417000        1.0080           0
   12115 WT1  4273 TIP3 H2   HT     0.417000        1.0080           0
   12116 WT1  4274 TIP3 OH2  OT    -0.834000       15.9994           0
   12117 WT1  4274 TIP3 H1   HT     0.417000        1.0080           0
   12118 WT1  4274 TIP3 H2   HT     0.417000        1.0080           0
   12119 WT1  4275 TIP3 OH2  OT    -0.834000       15.9994           0
   12120 WT1  4275 TIP3 H1   HT     0.417000        1.0080           0
   12121 WT1  4275 TIP3 H2   HT     0.417000        1.0080           0
   12122 WT1  4277 TIP3 OH2  OT    -0.834000       15.9994           0
   12123 WT1  4277 TIP3 H1   HT     0.417000        1.0080           0
   12124 WT1  4277 TIP3 H2   HT     0.417000        1.0080           0
   12125 WT1  4278 TIP3 OH2  OT    -0.834000       15.9994           0
   12126 WT1  4278 TIP3 H1   HT     0.417000        1.0080           0
   12127 WT1  4278 TIP3 H2   HT     0.417000        1.0080           0
   12128 WT1  4279 TIP3 OH2  OT    -0.834000       15.9994           0
   12129 WT1  4279 TIP3 H1   HT     0.417000        1.0080           0
   12130 WT1  4279 TIP3 H2   HT     0.417000        1.0080           0
   12131 WT1  4281 TIP3 OH2  OT    -0.834000       15.9994           0
   12132 WT1  4281 TIP3 H1   HT     0.417000        1.0080           0
   12133 WT1  4281 TIP3 H2   HT     0.417000        1.0080           0
   12134 WT1  4282 TIP3 OH2  OT    -0.834000       15.9994           0
   12135 WT1  4282 TIP3 H1   HT     0.417000        1.0080           0
   12136 WT1  4282 TIP3 H2   HT     0.417000        1.0080           0
   12137 WT1  4283 TIP3 OH2  OT    -0.834000       15.9994           0
   12138 WT1  4283 TIP3 H1   HT     0.417000        1.0080           0
   12139 WT1  4283 TIP3 H2   HT     0.417000        1.0080           0
   12140 WT1  4284 TIP3 OH2  OT    -0.834000       15.9994           0
   12141 WT1  4284 TIP3 H1   HT     0.417000        1.0080           0
   12142 WT1  4284 TIP3 H2   HT     0.417000        1.0080           0
   12143 WT1  4285 TIP3 OH2  OT    -0.834000       15.9994           0
   12144 WT1  4285 TIP3 H1   HT     0.417000        1.0080           0
   12145 WT1  4285 TIP3 H2   HT     0.417000        1.0080           0
   12146 WT1  4286 TIP3 OH2  OT    -0.834000       15.9994           0
   12147 WT1  4286 TIP3 H1   HT     0.417000        1.0080           0
   12148 WT1  4286 TIP3 H2   HT     0.417000        1.0080           0
   12149 WT1  4288 TIP3 OH2  OT    -0.834000       15.9994           0
   12150 WT1  4288 TIP3 H1   HT     0.417000        1.0080           0
   12151 WT1  4288 TIP3 H2   HT     0.417000        1.0080           0
   12152 WT1  4291 TIP3 OH2  OT    -0.834000       15.9994           0
   12153 WT1  4291 TIP3 H1   HT     0.417000        1.0080           0
   12154 WT1  4291 TIP3 H2   HT     0.417000        1.0080           0
   12155 WT1  4292 TIP3 OH2  OT    -0.834000       15.9994           0
   12156 WT1  4292 TIP3 H1   HT     0.417000        1.0080           0
   12157 WT1  4292 TIP3 H2   HT     0.417000        1.0080           0
   12158 WT1  4293 TIP3 OH2  OT    -0.834000       15.9994           0
   12159 WT1  4293 TIP3 H1   HT     0.417000        1.0080           0
   12160 WT1  4293 TIP3 H2   HT     0.417000        1.0080           0
   12161 WT1  4295 TIP3 OH2  OT    -0.834000       15.9994           0
   12162 WT1  4295 TIP3 H1   HT     0.417000        1.0080           0
   12163 WT1  4295 TIP3 H2   HT     0.417000        1.0080           0
   12164 WT1  4296 TIP3 OH2  OT    -0.834000       15.9994           0
   12165 WT1  4296 TIP3 H1   HT     0.417000        1.0080           0
   12166 WT1  4296 TIP3 H2   HT     0.417000        1.0080           0
   12167 WT1  4297 TIP3 OH2  OT    -0.834000       15.9994           0
   12168 WT1  4297 TIP3 H1   HT     0.417000        1.0080           0
   12169 WT1  4297 TIP3 H2   HT     0.417000        1.0080           0
   12170 WT1  4299 TIP3 OH2  OT    -0.834000       15.9994           0
   12171 WT1  4299 TIP3 H1   HT     0.417000        1.0080           0
   12172 WT1  4299 TIP3 H2   HT     0.417000        1.0080           0
   12173 WT1  4300 TIP3 OH2  OT    -0.834000       15.9994           0
   12174 WT1  4300 TIP3 H1   HT     0.417000        1.0080           0
   12175 WT1  4300 TIP3 H2   HT     0.417000        1.0080           0
   12176 WT1  4301 TIP3 OH2  OT    -0.834000       15.9994           0
   12177 WT1  4301 TIP3 H1   HT     0.417000        1.0080           0
   12178 WT1  4301 TIP3 H2   HT     0.417000        1.0080           0
   12179 WT1  4302 TIP3 OH2  OT    -0.834000       15.9994           0
   12180 WT1  4302 TIP3 H1   HT     0.417000        1.0080           0
   12181 WT1  4302 TIP3 H2   HT     0.417000        1.0080           0
   12182 WT1  4304 TIP3 OH2  OT    -0.834000       15.9994           0
   12183 WT1  4304 TIP3 H1   HT     0.417000        1.0080           0
   12184 WT1  4304 TIP3 H2   HT     0.417000        1.0080           0
   12185 WT1  4305 TIP3 OH2  OT    -0.834000       15.9994           0
   12186 WT1  4305 TIP3 H1   HT     0.417000        1.0080           0
   12187 WT1  4305 TIP3 H2   HT     0.417000        1.0080           0
   12188 WT1  4307 TIP3 OH2  OT    -0.834000       15.9994           0
   12189 WT1  4307 TIP3 H1   HT     0.417000        1.0080           0
   12190 WT1  4307 TIP3 H2   HT     0.417000        1.0080           0
   12191 WT1  4308 TIP3 OH2  OT    -0.834000       15.9994           0
   12192 WT1  4308 TIP3 H1   HT     0.417000        1.0080           0
   12193 WT1  4308 TIP3 H2   HT     0.417000        1.0080           0
   12194 WT1  4309 TIP3 OH2  OT    -0.834000       15.9994           0
   12195 WT1  4309 TIP3 H1   HT     0.417000        1.0080           0
   12196 WT1  4309 TIP3 H2   HT     0.417000        1.0080           0
   12197 WT1  4310 TIP3 OH2  OT    -0.834000       15.9994           0
   12198 WT1  4310 TIP3 H1   HT     0.417000        1.0080           0
   12199 WT1  4310 TIP3 H2   HT     0.417000        1.0080           0
   12200 WT1  4311 TIP3 OH2  OT    -0.834000       15.9994           0
   12201 WT1  4311 TIP3 H1   HT     0.417000        1.0080           0
   12202 WT1  4311 TIP3 H2   HT     0.417000        1.0080           0
   12203 WT1  4312 TIP3 OH2  OT    -0.834000       15.9994           0
   12204 WT1  4312 TIP3 H1   HT     0.417000        1.0080           0
   12205 WT1  4312 TIP3 H2   HT     0.417000        1.0080           0
   12206 WT1  4313 TIP3 OH2  OT    -0.834000       15.9994           0
   12207 WT1  4313 TIP3 H1   HT     0.417000        1.0080           0
   12208 WT1  4313 TIP3 H2   HT     0.417000        1.0080           0
   12209 WT1  4314 TIP3 OH2  OT    -0.834000       15.9994           0
   12210 WT1  4314 TIP3 H1   HT     0.417000        1.0080           0
   12211 WT1  4314 TIP3 H2   HT     0.417000        1.0080           0
   12212 WT1  4316 TIP3 OH2  OT    -0.834000       15.9994           0
   12213 WT1  4316 TIP3 H1   HT     0.417000        1.0080           0
   12214 WT1  4316 TIP3 H2   HT     0.417000        1.0080           0
   12215 WT1  4317 TIP3 OH2  OT    -0.834000       15.9994           0
   12216 WT1  4317 TIP3 H1   HT     0.417000        1.0080           0
   12217 WT1  4317 TIP3 H2   HT     0.417000        1.0080           0
   12218 WT1  4318 TIP3 OH2  OT    -0.834000       15.9994           0
   12219 WT1  4318 TIP3 H1   HT     0.417000        1.0080           0
   12220 WT1  4318 TIP3 H2   HT     0.417000        1.0080           0
   12221 WT1  4320 TIP3 OH2  OT    -0.834000       15.9994           0
   12222 WT1  4320 TIP3 H1   HT     0.417000        1.0080           0
   12223 WT1  4320 TIP3 H2   HT     0.417000        1.0080           0
   12224 WT1  4321 TIP3 OH2  OT    -0.834000       15.9994           0
   12225 WT1  4321 TIP3 H1   HT     0.417000        1.0080           0
   12226 WT1  4321 TIP3 H2   HT     0.417000        1.0080           0
   12227 WT1  4322 TIP3 OH2  OT    -0.834000       15.9994           0
   12228 WT1  4322 TIP3 H1   HT     0.417000        1.0080           0
   12229 WT1  4322 TIP3 H2   HT     0.417000        1.0080           0
   12230 WT1  4323 TIP3 OH2  OT    -0.834000       15.9994           0
   12231 WT1  4323 TIP3 H1   HT     0.417000        1.0080           0
   12232 WT1  4323 TIP3 H2   HT     0.417000        1.0080           0
   12233 WT1  4324 TIP3 OH2  OT    -0.834000       15.9994           0
   12234 WT1  4324 TIP3 H1   HT     0.417000        1.0080           0
   12235 WT1  4324 TIP3 H2   HT     0.417000        1.0080           0
   12236 WT1  4325 TIP3 OH2  OT    -0.834000       15.9994           0
   12237 WT1  4325 TIP3 H1   HT     0.417000        1.0080           0
   12238 WT1  4325 TIP3 H2   HT     0.417000        1.0080           0
   12239 WT1  4326 TIP3 OH2  OT    -0.834000       15.9994           0
   12240 WT1  4326 TIP3 H1   HT     0.417000        1.0080           0
   12241 WT1  4326 TIP3 H2   HT     0.417000        1.0080           0
   12242 WT1  4327 TIP3 OH2  OT    -0.834000       15.9994           0
   12243 WT1  4327 TIP3 H1   HT     0.417000        1.0080           0
   12244 WT1  4327 TIP3 H2   HT     0.417000        1.0080           0
   12245 WT1  4328 TIP3 OH2  OT    -0.834000       15.9994           0
   12246 WT1  4328 TIP3 H1   HT     0.417000        1.0080           0
   12247 WT1  4328 TIP3 H2   HT     0.417000        1.0080           0
   12248 WT1  4329 TIP3 OH2  OT    -0.834000       15.9994           0
   12249 WT1  4329 TIP3 H1   HT     0.417000        1.0080           0
   12250 WT1  4329 TIP3 H2   HT     0.417000        1.0080           0
   12251 WT1  4330 TIP3 OH2  OT    -0.834000       15.9994           0
   12252 WT1  4330 TIP3 H1   HT     0.417000        1.0080           0
   12253 WT1  4330 TIP3 H2   HT     0.417000        1.0080           0
   12254 WT1  4331 TIP3 OH2  OT    -0.834000       15.9994           0
   12255 WT1  4331 TIP3 H1   HT     0.417000        1.0080           0
   12256 WT1  4331 TIP3 H2   HT     0.417000        1.0080           0
   12257 WT1  4333 TIP3 OH2  OT    -0.834000       15.9994           0
   12258 WT1  4333 TIP3 H1   HT     0.417000        1.0080           0
   12259 WT1  4333 TIP3 H2   HT     0.417000        1.0080           0
   12260 WT1  4335 TIP3 OH2  OT    -0.834000       15.9994           0
   12261 WT1  4335 TIP3 H1   HT     0.417000        1.0080           0
   12262 WT1  4335 TIP3 H2   HT     0.417000        1.0080           0
   12263 WT1  4336 TIP3 OH2  OT    -0.834000       15.9994           0
   12264 WT1  4336 TIP3 H1   HT     0.417000        1.0080           0
   12265 WT1  4336 TIP3 H2   HT     0.417000        1.0080           0
   12266 WT1  4337 TIP3 OH2  OT    -0.834000       15.9994           0
   12267 WT1  4337 TIP3 H1   HT     0.417000        1.0080           0
   12268 WT1  4337 TIP3 H2   HT     0.417000        1.0080           0
   12269 WT1  4338 TIP3 OH2  OT    -0.834000       15.9994           0
   12270 WT1  4338 TIP3 H1   HT     0.417000        1.0080           0
   12271 WT1  4338 TIP3 H2   HT     0.417000        1.0080           0
   12272 WT1  4339 TIP3 OH2  OT    -0.834000       15.9994           0
   12273 WT1  4339 TIP3 H1   HT     0.417000        1.0080           0
   12274 WT1  4339 TIP3 H2   HT     0.417000        1.0080           0
   12275 WT1  4340 TIP3 OH2  OT    -0.834000       15.9994           0
   12276 WT1  4340 TIP3 H1   HT     0.417000        1.0080           0
   12277 WT1  4340 TIP3 H2   HT     0.417000        1.0080           0
   12278 WT1  4341 TIP3 OH2  OT    -0.834000       15.9994           0
   12279 WT1  4341 TIP3 H1   HT     0.417000        1.0080           0
   12280 WT1  4341 TIP3 H2   HT     0.417000        1.0080           0
   12281 WT1  4342 TIP3 OH2  OT    -0.834000       15.9994           0
   12282 WT1  4342 TIP3 H1   HT     0.417000        1.0080           0
   12283 WT1  4342 TIP3 H2   HT     0.417000        1.0080           0
   12284 WT1  4343 TIP3 OH2  OT    -0.834000       15.9994           0
   12285 WT1  4343 TIP3 H1   HT     0.417000        1.0080           0
   12286 WT1  4343 TIP3 H2   HT     0.417000        1.0080           0
   12287 WT1  4344 TIP3 OH2  OT    -0.834000       15.9994           0
   12288 WT1  4344 TIP3 H1   HT     0.417000        1.0080           0
   12289 WT1  4344 TIP3 H2   HT     0.417000        1.0080           0
   12290 WT1  4345 TIP3 OH2  OT    -0.834000       15.9994           0
   12291 WT1  4345 TIP3 H1   HT     0.417000        1.0080           0
   12292 WT1  4345 TIP3 H2   HT     0.417000        1.0080           0
   12293 WT1  4346 TIP3 OH2  OT    -0.834000       15.9994           0
   12294 WT1  4346 TIP3 H1   HT     0.417000        1.0080           0
   12295 WT1  4346 TIP3 H2   HT     0.417000        1.0080           0
   12296 WT1  4347 TIP3 OH2  OT    -0.834000       15.9994           0
   12297 WT1  4347 TIP3 H1   HT     0.417000        1.0080           0
   12298 WT1  4347 TIP3 H2   HT     0.417000        1.0080           0
   12299 WT1  4348 TIP3 OH2  OT    -0.834000       15.9994           0
   12300 WT1  4348 TIP3 H1   HT     0.417000        1.0080           0
   12301 WT1  4348 TIP3 H2   HT     0.417000        1.0080           0
   12302 WT1  4349 TIP3 OH2  OT    -0.834000       15.9994           0
   12303 WT1  4349 TIP3 H1   HT     0.417000        1.0080           0
   12304 WT1  4349 TIP3 H2   HT     0.417000        1.0080           0
   12305 WT1  4350 TIP3 OH2  OT    -0.834000       15.9994           0
   12306 WT1  4350 TIP3 H1   HT     0.417000        1.0080           0
   12307 WT1  4350 TIP3 H2   HT     0.417000        1.0080           0
   12308 WT1  4352 TIP3 OH2  OT    -0.834000       15.9994           0
   12309 WT1  4352 TIP3 H1   HT     0.417000        1.0080           0
   12310 WT1  4352 TIP3 H2   HT     0.417000        1.0080           0
   12311 WT1  4354 TIP3 OH2  OT    -0.834000       15.9994           0
   12312 WT1  4354 TIP3 H1   HT     0.417000        1.0080           0
   12313 WT1  4354 TIP3 H2   HT     0.417000        1.0080           0
   12314 WT1  4355 TIP3 OH2  OT    -0.834000       15.9994           0
   12315 WT1  4355 TIP3 H1   HT     0.417000        1.0080           0
   12316 WT1  4355 TIP3 H2   HT     0.417000        1.0080           0
   12317 WT1  4356 TIP3 OH2  OT    -0.834000       15.9994           0
   12318 WT1  4356 TIP3 H1   HT     0.417000        1.0080           0
   12319 WT1  4356 TIP3 H2   HT     0.417000        1.0080           0
   12320 WT1  4358 TIP3 OH2  OT    -0.834000       15.9994           0
   12321 WT1  4358 TIP3 H1   HT     0.417000        1.0080           0
   12322 WT1  4358 TIP3 H2   HT     0.417000        1.0080           0
   12323 WT1  4359 TIP3 OH2  OT    -0.834000       15.9994           0
   12324 WT1  4359 TIP3 H1   HT     0.417000        1.0080           0
   12325 WT1  4359 TIP3 H2   HT     0.417000        1.0080           0
   12326 WT1  4360 TIP3 OH2  OT    -0.834000       15.9994           0
   12327 WT1  4360 TIP3 H1   HT     0.417000        1.0080           0
   12328 WT1  4360 TIP3 H2   HT     0.417000        1.0080           0
   12329 WT1  4361 TIP3 OH2  OT    -0.834000       15.9994           0
   12330 WT1  4361 TIP3 H1   HT     0.417000        1.0080           0
   12331 WT1  4361 TIP3 H2   HT     0.417000        1.0080           0
   12332 WT1  4362 TIP3 OH2  OT    -0.834000       15.9994           0
   12333 WT1  4362 TIP3 H1   HT     0.417000        1.0080           0
   12334 WT1  4362 TIP3 H2   HT     0.417000        1.0080           0
   12335 WT1  4363 TIP3 OH2  OT    -0.834000       15.9994           0
   12336 WT1  4363 TIP3 H1   HT     0.417000        1.0080           0
   12337 WT1  4363 TIP3 H2   HT     0.417000        1.0080           0
   12338 WT1  4364 TIP3 OH2  OT    -0.834000       15.9994           0
   12339 WT1  4364 TIP3 H1   HT     0.417000        1.0080           0
   12340 WT1  4364 TIP3 H2   HT     0.417000        1.0080           0
   12341 WT1  4365 TIP3 OH2  OT    -0.834000       15.9994           0
   12342 WT1  4365 TIP3 H1   HT     0.417000        1.0080           0
   12343 WT1  4365 TIP3 H2   HT     0.417000        1.0080           0
   12344 WT1  4366 TIP3 OH2  OT    -0.834000       15.9994           0
   12345 WT1  4366 TIP3 H1   HT     0.417000        1.0080           0
   12346 WT1  4366 TIP3 H2   HT     0.417000        1.0080           0
   12347 WT1  4368 TIP3 OH2  OT    -0.834000       15.9994           0
   12348 WT1  4368 TIP3 H1   HT     0.417000        1.0080           0
   12349 WT1  4368 TIP3 H2   HT     0.417000        1.0080           0
   12350 WT1  4370 TIP3 OH2  OT    -0.834000       15.9994           0
   12351 WT1  4370 TIP3 H1   HT     0.417000        1.0080           0
   12352 WT1  4370 TIP3 H2   HT     0.417000        1.0080           0
   12353 WT1  4371 TIP3 OH2  OT    -0.834000       15.9994           0
   12354 WT1  4371 TIP3 H1   HT     0.417000        1.0080           0
   12355 WT1  4371 TIP3 H2   HT     0.417000        1.0080           0
   12356 WT1  4372 TIP3 OH2  OT    -0.834000       15.9994           0
   12357 WT1  4372 TIP3 H1   HT     0.417000        1.0080           0
   12358 WT1  4372 TIP3 H2   HT     0.417000        1.0080           0
   12359 WT1  4373 TIP3 OH2  OT    -0.834000       15.9994           0
   12360 WT1  4373 TIP3 H1   HT     0.417000        1.0080           0
   12361 WT1  4373 TIP3 H2   HT     0.417000        1.0080           0
   12362 WT1  4375 TIP3 OH2  OT    -0.834000       15.9994           0
   12363 WT1  4375 TIP3 H1   HT     0.417000        1.0080           0
   12364 WT1  4375 TIP3 H2   HT     0.417000        1.0080           0
   12365 WT1  4376 TIP3 OH2  OT    -0.834000       15.9994           0
   12366 WT1  4376 TIP3 H1   HT     0.417000        1.0080           0
   12367 WT1  4376 TIP3 H2   HT     0.417000        1.0080           0
   12368 WT1  4377 TIP3 OH2  OT    -0.834000       15.9994           0
   12369 WT1  4377 TIP3 H1   HT     0.417000        1.0080           0
   12370 WT1  4377 TIP3 H2   HT     0.417000        1.0080           0
   12371 WT1  4378 TIP3 OH2  OT    -0.834000       15.9994           0
   12372 WT1  4378 TIP3 H1   HT     0.417000        1.0080           0
   12373 WT1  4378 TIP3 H2   HT     0.417000        1.0080           0
   12374 WT1  4379 TIP3 OH2  OT    -0.834000       15.9994           0
   12375 WT1  4379 TIP3 H1   HT     0.417000        1.0080           0
   12376 WT1  4379 TIP3 H2   HT     0.417000        1.0080           0
   12377 WT1  4380 TIP3 OH2  OT    -0.834000       15.9994           0
   12378 WT1  4380 TIP3 H1   HT     0.417000        1.0080           0
   12379 WT1  4380 TIP3 H2   HT     0.417000        1.0080           0
   12380 WT1  4381 TIP3 OH2  OT    -0.834000       15.9994           0
   12381 WT1  4381 TIP3 H1   HT     0.417000        1.0080           0
   12382 WT1  4381 TIP3 H2   HT     0.417000        1.0080           0
   12383 WT1  4382 TIP3 OH2  OT    -0.834000       15.9994           0
   12384 WT1  4382 TIP3 H1   HT     0.417000        1.0080           0
   12385 WT1  4382 TIP3 H2   HT     0.417000        1.0080           0
   12386 WT1  4383 TIP3 OH2  OT    -0.834000       15.9994           0
   12387 WT1  4383 TIP3 H1   HT     0.417000        1.0080           0
   12388 WT1  4383 TIP3 H2   HT     0.417000        1.0080           0
   12389 WT1  4384 TIP3 OH2  OT    -0.834000       15.9994           0
   12390 WT1  4384 TIP3 H1   HT     0.417000        1.0080           0
   12391 WT1  4384 TIP3 H2   HT     0.417000        1.0080           0
   12392 WT1  4385 TIP3 OH2  OT    -0.834000       15.9994           0
   12393 WT1  4385 TIP3 H1   HT     0.417000        1.0080           0
   12394 WT1  4385 TIP3 H2   HT     0.417000        1.0080           0
   12395 WT1  4386 TIP3 OH2  OT    -0.834000       15.9994           0
   12396 WT1  4386 TIP3 H1   HT     0.417000        1.0080           0
   12397 WT1  4386 TIP3 H2   HT     0.417000        1.0080           0
   12398 WT1  4387 TIP3 OH2  OT    -0.834000       15.9994           0
   12399 WT1  4387 TIP3 H1   HT     0.417000        1.0080           0
   12400 WT1  4387 TIP3 H2   HT     0.417000        1.0080           0
   12401 WT1  4388 TIP3 OH2  OT    -0.834000       15.9994           0
   12402 WT1  4388 TIP3 H1   HT     0.417000        1.0080           0
   12403 WT1  4388 TIP3 H2   HT     0.417000        1.0080           0
   12404 WT1  4389 TIP3 OH2  OT    -0.834000       15.9994           0
   12405 WT1  4389 TIP3 H1   HT     0.417000        1.0080           0
   12406 WT1  4389 TIP3 H2   HT     0.417000        1.0080           0
   12407 WT1  4390 TIP3 OH2  OT    -0.834000       15.9994           0
   12408 WT1  4390 TIP3 H1   HT     0.417000        1.0080           0
   12409 WT1  4390 TIP3 H2   HT     0.417000        1.0080           0
   12410 WT1  4391 TIP3 OH2  OT    -0.834000       15.9994           0
   12411 WT1  4391 TIP3 H1   HT     0.417000        1.0080           0
   12412 WT1  4391 TIP3 H2   HT     0.417000        1.0080           0
   12413 WT1  4392 TIP3 OH2  OT    -0.834000       15.9994           0
   12414 WT1  4392 TIP3 H1   HT     0.417000        1.0080           0
   12415 WT1  4392 TIP3 H2   HT     0.417000        1.0080           0
   12416 WT1  4393 TIP3 OH2  OT    -0.834000       15.9994           0
   12417 WT1  4393 TIP3 H1   HT     0.417000        1.0080           0
   12418 WT1  4393 TIP3 H2   HT     0.417000        1.0080           0
   12419 WT1  4394 TIP3 OH2  OT    -0.834000       15.9994           0
   12420 WT1  4394 TIP3 H1   HT     0.417000        1.0080           0
   12421 WT1  4394 TIP3 H2   HT     0.417000        1.0080           0
   12422 WT1  4395 TIP3 OH2  OT    -0.834000       15.9994           0
   12423 WT1  4395 TIP3 H1   HT     0.417000        1.0080           0
   12424 WT1  4395 TIP3 H2   HT     0.417000        1.0080           0
   12425 WT1  4396 TIP3 OH2  OT    -0.834000       15.9994           0
   12426 WT1  4396 TIP3 H1   HT     0.417000        1.0080           0
   12427 WT1  4396 TIP3 H2   HT     0.417000        1.0080           0
   12428 WT1  4397 TIP3 OH2  OT    -0.834000       15.9994           0
   12429 WT1  4397 TIP3 H1   HT     0.417000        1.0080           0
   12430 WT1  4397 TIP3 H2   HT     0.417000        1.0080           0
   12431 WT1  4398 TIP3 OH2  OT    -0.834000       15.9994           0
   12432 WT1  4398 TIP3 H1   HT     0.417000        1.0080           0
   12433 WT1  4398 TIP3 H2   HT     0.417000        1.0080           0
   12434 WT1  4399 TIP3 OH2  OT    -0.834000       15.9994           0
   12435 WT1  4399 TIP3 H1   HT     0.417000        1.0080           0
   12436 WT1  4399 TIP3 H2   HT     0.417000        1.0080           0
   12437 WT1  4400 TIP3 OH2  OT    -0.834000       15.9994           0
   12438 WT1  4400 TIP3 H1   HT     0.417000        1.0080           0
   12439 WT1  4400 TIP3 H2   HT     0.417000        1.0080           0
   12440 WT1  4401 TIP3 OH2  OT    -0.834000       15.9994           0
   12441 WT1  4401 TIP3 H1   HT     0.417000        1.0080           0
   12442 WT1  4401 TIP3 H2   HT     0.417000        1.0080           0
   12443 WT1  4403 TIP3 OH2  OT    -0.834000       15.9994           0
   12444 WT1  4403 TIP3 H1   HT     0.417000        1.0080           0
   12445 WT1  4403 TIP3 H2   HT     0.417000        1.0080           0
   12446 WT1  4404 TIP3 OH2  OT    -0.834000       15.9994           0
   12447 WT1  4404 TIP3 H1   HT     0.417000        1.0080           0
   12448 WT1  4404 TIP3 H2   HT     0.417000        1.0080           0
   12449 WT1  4405 TIP3 OH2  OT    -0.834000       15.9994           0
   12450 WT1  4405 TIP3 H1   HT     0.417000        1.0080           0
   12451 WT1  4405 TIP3 H2   HT     0.417000        1.0080           0
   12452 WT1  4406 TIP3 OH2  OT    -0.834000       15.9994           0
   12453 WT1  4406 TIP3 H1   HT     0.417000        1.0080           0
   12454 WT1  4406 TIP3 H2   HT     0.417000        1.0080           0
   12455 WT1  4407 TIP3 OH2  OT    -0.834000       15.9994           0
   12456 WT1  4407 TIP3 H1   HT     0.417000        1.0080           0
   12457 WT1  4407 TIP3 H2   HT     0.417000        1.0080           0
   12458 WT1  4408 TIP3 OH2  OT    -0.834000       15.9994           0
   12459 WT1  4408 TIP3 H1   HT     0.417000        1.0080           0
   12460 WT1  4408 TIP3 H2   HT     0.417000        1.0080           0
   12461 WT1  4409 TIP3 OH2  OT    -0.834000       15.9994           0
   12462 WT1  4409 TIP3 H1   HT     0.417000        1.0080           0
   12463 WT1  4409 TIP3 H2   HT     0.417000        1.0080           0
   12464 WT1  4410 TIP3 OH2  OT    -0.834000       15.9994           0
   12465 WT1  4410 TIP3 H1   HT     0.417000        1.0080           0
   12466 WT1  4410 TIP3 H2   HT     0.417000        1.0080           0
   12467 WT1  4411 TIP3 OH2  OT    -0.834000       15.9994           0
   12468 WT1  4411 TIP3 H1   HT     0.417000        1.0080           0
   12469 WT1  4411 TIP3 H2   HT     0.417000        1.0080           0
   12470 WT1  4412 TIP3 OH2  OT    -0.834000       15.9994           0
   12471 WT1  4412 TIP3 H1   HT     0.417000        1.0080           0
   12472 WT1  4412 TIP3 H2   HT     0.417000        1.0080           0
   12473 WT1  4414 TIP3 OH2  OT    -0.834000       15.9994           0
   12474 WT1  4414 TIP3 H1   HT     0.417000        1.0080           0
   12475 WT1  4414 TIP3 H2   HT     0.417000        1.0080           0
   12476 WT1  4415 TIP3 OH2  OT    -0.834000       15.9994           0
   12477 WT1  4415 TIP3 H1   HT     0.417000        1.0080           0
   12478 WT1  4415 TIP3 H2   HT     0.417000        1.0080           0
   12479 WT1  4416 TIP3 OH2  OT    -0.834000       15.9994           0
   12480 WT1  4416 TIP3 H1   HT     0.417000        1.0080           0
   12481 WT1  4416 TIP3 H2   HT     0.417000        1.0080           0
   12482 WT1  4417 TIP3 OH2  OT    -0.834000       15.9994           0
   12483 WT1  4417 TIP3 H1   HT     0.417000        1.0080           0
   12484 WT1  4417 TIP3 H2   HT     0.417000        1.0080           0
   12485 WT1  4418 TIP3 OH2  OT    -0.834000       15.9994           0
   12486 WT1  4418 TIP3 H1   HT     0.417000        1.0080           0
   12487 WT1  4418 TIP3 H2   HT     0.417000        1.0080           0
   12488 WT1  4421 TIP3 OH2  OT    -0.834000       15.9994           0
   12489 WT1  4421 TIP3 H1   HT     0.417000        1.0080           0
   12490 WT1  4421 TIP3 H2   HT     0.417000        1.0080           0
   12491 WT1  4422 TIP3 OH2  OT    -0.834000       15.9994           0
   12492 WT1  4422 TIP3 H1   HT     0.417000        1.0080           0
   12493 WT1  4422 TIP3 H2   HT     0.417000        1.0080           0
   12494 WT1  4424 TIP3 OH2  OT    -0.834000       15.9994           0
   12495 WT1  4424 TIP3 H1   HT     0.417000        1.0080           0
   12496 WT1  4424 TIP3 H2   HT     0.417000        1.0080           0
   12497 WT1  4426 TIP3 OH2  OT    -0.834000       15.9994           0
   12498 WT1  4426 TIP3 H1   HT     0.417000        1.0080           0
   12499 WT1  4426 TIP3 H2   HT     0.417000        1.0080           0
   12500 WT1  4428 TIP3 OH2  OT    -0.834000       15.9994           0
   12501 WT1  4428 TIP3 H1   HT     0.417000        1.0080           0
   12502 WT1  4428 TIP3 H2   HT     0.417000        1.0080           0
   12503 WT1  4429 TIP3 OH2  OT    -0.834000       15.9994           0
   12504 WT1  4429 TIP3 H1   HT     0.417000        1.0080           0
   12505 WT1  4429 TIP3 H2   HT     0.417000        1.0080           0
   12506 WT1  4430 TIP3 OH2  OT    -0.834000       15.9994           0
   12507 WT1  4430 TIP3 H1   HT     0.417000        1.0080           0
   12508 WT1  4430 TIP3 H2   HT     0.417000        1.0080           0
   12509 WT1  4431 TIP3 OH2  OT    -0.834000       15.9994           0
   12510 WT1  4431 TIP3 H1   HT     0.417000        1.0080           0
   12511 WT1  4431 TIP3 H2   HT     0.417000        1.0080           0
   12512 WT1  4432 TIP3 OH2  OT    -0.834000       15.9994           0
   12513 WT1  4432 TIP3 H1   HT     0.417000        1.0080           0
   12514 WT1  4432 TIP3 H2   HT     0.417000        1.0080           0
   12515 WT1  4434 TIP3 OH2  OT    -0.834000       15.9994           0
   12516 WT1  4434 TIP3 H1   HT     0.417000        1.0080           0
   12517 WT1  4434 TIP3 H2   HT     0.417000        1.0080           0
   12518 WT1  4436 TIP3 OH2  OT    -0.834000       15.9994           0
   12519 WT1  4436 TIP3 H1   HT     0.417000        1.0080           0
   12520 WT1  4436 TIP3 H2   HT     0.417000        1.0080           0
   12521 WT1  4437 TIP3 OH2  OT    -0.834000       15.9994           0
   12522 WT1  4437 TIP3 H1   HT     0.417000        1.0080           0
   12523 WT1  4437 TIP3 H2   HT     0.417000        1.0080           0
   12524 WT1  4439 TIP3 OH2  OT    -0.834000       15.9994           0
   12525 WT1  4439 TIP3 H1   HT     0.417000        1.0080           0
   12526 WT1  4439 TIP3 H2   HT     0.417000        1.0080           0
   12527 WT1  4440 TIP3 OH2  OT    -0.834000       15.9994           0
   12528 WT1  4440 TIP3 H1   HT     0.417000        1.0080           0
   12529 WT1  4440 TIP3 H2   HT     0.417000        1.0080           0
   12530 WT1  4441 TIP3 OH2  OT    -0.834000       15.9994           0
   12531 WT1  4441 TIP3 H1   HT     0.417000        1.0080           0
   12532 WT1  4441 TIP3 H2   HT     0.417000        1.0080           0
   12533 WT1  4442 TIP3 OH2  OT    -0.834000       15.9994           0
   12534 WT1  4442 TIP3 H1   HT     0.417000        1.0080           0
   12535 WT1  4442 TIP3 H2   HT     0.417000        1.0080           0
   12536 WT1  4443 TIP3 OH2  OT    -0.834000       15.9994           0
   12537 WT1  4443 TIP3 H1   HT     0.417000        1.0080           0
   12538 WT1  4443 TIP3 H2   HT     0.417000        1.0080           0
   12539 WT1  4444 TIP3 OH2  OT    -0.834000       15.9994           0
   12540 WT1  4444 TIP3 H1   HT     0.417000        1.0080           0
   12541 WT1  4444 TIP3 H2   HT     0.417000        1.0080           0
   12542 WT1  4445 TIP3 OH2  OT    -0.834000       15.9994           0
   12543 WT1  4445 TIP3 H1   HT     0.417000        1.0080           0
   12544 WT1  4445 TIP3 H2   HT     0.417000        1.0080           0
   12545 WT1  4446 TIP3 OH2  OT    -0.834000       15.9994           0
   12546 WT1  4446 TIP3 H1   HT     0.417000        1.0080           0
   12547 WT1  4446 TIP3 H2   HT     0.417000        1.0080           0
   12548 WT1  4447 TIP3 OH2  OT    -0.834000       15.9994           0
   12549 WT1  4447 TIP3 H1   HT     0.417000        1.0080           0
   12550 WT1  4447 TIP3 H2   HT     0.417000        1.0080           0
   12551 WT1  4448 TIP3 OH2  OT    -0.834000       15.9994           0
   12552 WT1  4448 TIP3 H1   HT     0.417000        1.0080           0
   12553 WT1  4448 TIP3 H2   HT     0.417000        1.0080           0
   12554 WT1  4449 TIP3 OH2  OT    -0.834000       15.9994           0
   12555 WT1  4449 TIP3 H1   HT     0.417000        1.0080           0
   12556 WT1  4449 TIP3 H2   HT     0.417000        1.0080           0
   12557 WT1  4450 TIP3 OH2  OT    -0.834000       15.9994           0
   12558 WT1  4450 TIP3 H1   HT     0.417000        1.0080           0
   12559 WT1  4450 TIP3 H2   HT     0.417000        1.0080           0
   12560 WT1  4451 TIP3 OH2  OT    -0.834000       15.9994           0
   12561 WT1  4451 TIP3 H1   HT     0.417000        1.0080           0
   12562 WT1  4451 TIP3 H2   HT     0.417000        1.0080           0
   12563 WT1  4452 TIP3 OH2  OT    -0.834000       15.9994           0
   12564 WT1  4452 TIP3 H1   HT     0.417000        1.0080           0
   12565 WT1  4452 TIP3 H2   HT     0.417000        1.0080           0
   12566 WT1  4453 TIP3 OH2  OT    -0.834000       15.9994           0
   12567 WT1  4453 TIP3 H1   HT     0.417000        1.0080           0
   12568 WT1  4453 TIP3 H2   HT     0.417000        1.0080           0
   12569 WT1  4454 TIP3 OH2  OT    -0.834000       15.9994           0
   12570 WT1  4454 TIP3 H1   HT     0.417000        1.0080           0
   12571 WT1  4454 TIP3 H2   HT     0.417000        1.0080           0
   12572 WT1  4455 TIP3 OH2  OT    -0.834000       15.9994           0
   12573 WT1  4455 TIP3 H1   HT     0.417000        1.0080           0
   12574 WT1  4455 TIP3 H2   HT     0.417000        1.0080           0
   12575 WT1  4456 TIP3 OH2  OT    -0.834000       15.9994           0
   12576 WT1  4456 TIP3 H1   HT     0.417000        1.0080           0
   12577 WT1  4456 TIP3 H2   HT     0.417000        1.0080           0
   12578 WT1  4458 TIP3 OH2  OT    -0.834000       15.9994           0
   12579 WT1  4458 TIP3 H1   HT     0.417000        1.0080           0
   12580 WT1  4458 TIP3 H2   HT     0.417000        1.0080           0
   12581 WT1  4460 TIP3 OH2  OT    -0.834000       15.9994           0
   12582 WT1  4460 TIP3 H1   HT     0.417000        1.0080           0
   12583 WT1  4460 TIP3 H2   HT     0.417000        1.0080           0
   12584 WT1  4461 TIP3 OH2  OT    -0.834000       15.9994           0
   12585 WT1  4461 TIP3 H1   HT     0.417000        1.0080           0
   12586 WT1  4461 TIP3 H2   HT     0.417000        1.0080           0
   12587 WT1  4463 TIP3 OH2  OT    -0.834000       15.9994           0
   12588 WT1  4463 TIP3 H1   HT     0.417000        1.0080           0
   12589 WT1  4463 TIP3 H2   HT     0.417000        1.0080           0
   12590 WT1  4464 TIP3 OH2  OT    -0.834000       15.9994           0
   12591 WT1  4464 TIP3 H1   HT     0.417000        1.0080           0
   12592 WT1  4464 TIP3 H2   HT     0.417000        1.0080           0
   12593 WT1  4465 TIP3 OH2  OT    -0.834000       15.9994           0
   12594 WT1  4465 TIP3 H1   HT     0.417000        1.0080           0
   12595 WT1  4465 TIP3 H2   HT     0.417000        1.0080           0
   12596 WT1  4466 TIP3 OH2  OT    -0.834000       15.9994           0
   12597 WT1  4466 TIP3 H1   HT     0.417000        1.0080           0
   12598 WT1  4466 TIP3 H2   HT     0.417000        1.0080           0
   12599 WT1  4468 TIP3 OH2  OT    -0.834000       15.9994           0
   12600 WT1  4468 TIP3 H1   HT     0.417000        1.0080           0
   12601 WT1  4468 TIP3 H2   HT     0.417000        1.0080           0
   12602 WT1  4469 TIP3 OH2  OT    -0.834000       15.9994           0
   12603 WT1  4469 TIP3 H1   HT     0.417000        1.0080           0
   12604 WT1  4469 TIP3 H2   HT     0.417000        1.0080           0
   12605 WT1  4471 TIP3 OH2  OT    -0.834000       15.9994           0
   12606 WT1  4471 TIP3 H1   HT     0.417000        1.0080           0
   12607 WT1  4471 TIP3 H2   HT     0.417000        1.0080           0
   12608 WT1  4472 TIP3 OH2  OT    -0.834000       15.9994           0
   12609 WT1  4472 TIP3 H1   HT     0.417000        1.0080           0
   12610 WT1  4472 TIP3 H2   HT     0.417000        1.0080           0
   12611 WT1  4473 TIP3 OH2  OT    -0.834000       15.9994           0
   12612 WT1  4473 TIP3 H1   HT     0.417000        1.0080           0
   12613 WT1  4473 TIP3 H2   HT     0.417000        1.0080           0
   12614 WT1  4474 TIP3 OH2  OT    -0.834000       15.9994           0
   12615 WT1  4474 TIP3 H1   HT     0.417000        1.0080           0
   12616 WT1  4474 TIP3 H2   HT     0.417000        1.0080           0
   12617 WT1  4475 TIP3 OH2  OT    -0.834000       15.9994           0
   12618 WT1  4475 TIP3 H1   HT     0.417000        1.0080           0
   12619 WT1  4475 TIP3 H2   HT     0.417000        1.0080           0
   12620 WT1  4477 TIP3 OH2  OT    -0.834000       15.9994           0
   12621 WT1  4477 TIP3 H1   HT     0.417000        1.0080           0
   12622 WT1  4477 TIP3 H2   HT     0.417000        1.0080           0
   12623 WT1  4478 TIP3 OH2  OT    -0.834000       15.9994           0
   12624 WT1  4478 TIP3 H1   HT     0.417000        1.0080           0
   12625 WT1  4478 TIP3 H2   HT     0.417000        1.0080           0
   12626 WT1  4479 TIP3 OH2  OT    -0.834000       15.9994           0
   12627 WT1  4479 TIP3 H1   HT     0.417000        1.0080           0
   12628 WT1  4479 TIP3 H2   HT     0.417000        1.0080           0
   12629 WT1  4480 TIP3 OH2  OT    -0.834000       15.9994           0
   12630 WT1  4480 TIP3 H1   HT     0.417000        1.0080           0
   12631 WT1  4480 TIP3 H2   HT     0.417000        1.0080           0
   12632 WT1  4481 TIP3 OH2  OT    -0.834000       15.9994           0
   12633 WT1  4481 TIP3 H1   HT     0.417000        1.0080           0
   12634 WT1  4481 TIP3 H2   HT     0.417000        1.0080           0
   12635 WT1  4482 TIP3 OH2  OT    -0.834000       15.9994           0
   12636 WT1  4482 TIP3 H1   HT     0.417000        1.0080           0
   12637 WT1  4482 TIP3 H2   HT     0.417000        1.0080           0
   12638 WT1  4483 TIP3 OH2  OT    -0.834000       15.9994           0
   12639 WT1  4483 TIP3 H1   HT     0.417000        1.0080           0
   12640 WT1  4483 TIP3 H2   HT     0.417000        1.0080           0
   12641 WT1  4484 TIP3 OH2  OT    -0.834000       15.9994           0
   12642 WT1  4484 TIP3 H1   HT     0.417000        1.0080           0
   12643 WT1  4484 TIP3 H2   HT     0.417000        1.0080           0
   12644 WT1  4485 TIP3 OH2  OT    -0.834000       15.9994           0
   12645 WT1  4485 TIP3 H1   HT     0.417000        1.0080           0
   12646 WT1  4485 TIP3 H2   HT     0.417000        1.0080           0
   12647 WT1  4487 TIP3 OH2  OT    -0.834000       15.9994           0
   12648 WT1  4487 TIP3 H1   HT     0.417000        1.0080           0
   12649 WT1  4487 TIP3 H2   HT     0.417000        1.0080           0
   12650 WT1  4488 TIP3 OH2  OT    -0.834000       15.9994           0
   12651 WT1  4488 TIP3 H1   HT     0.417000        1.0080           0
   12652 WT1  4488 TIP3 H2   HT     0.417000        1.0080           0
   12653 WT1  4489 TIP3 OH2  OT    -0.834000       15.9994           0
   12654 WT1  4489 TIP3 H1   HT     0.417000        1.0080           0
   12655 WT1  4489 TIP3 H2   HT     0.417000        1.0080           0
   12656 WT1  4490 TIP3 OH2  OT    -0.834000       15.9994           0
   12657 WT1  4490 TIP3 H1   HT     0.417000        1.0080           0
   12658 WT1  4490 TIP3 H2   HT     0.417000        1.0080           0
   12659 WT1  4491 TIP3 OH2  OT    -0.834000       15.9994           0
   12660 WT1  4491 TIP3 H1   HT     0.417000        1.0080           0
   12661 WT1  4491 TIP3 H2   HT     0.417000        1.0080           0
   12662 WT1  4493 TIP3 OH2  OT    -0.834000       15.9994           0
   12663 WT1  4493 TIP3 H1   HT     0.417000        1.0080           0
   12664 WT1  4493 TIP3 H2   HT     0.417000        1.0080           0
   12665 WT1  4497 TIP3 OH2  OT    -0.834000       15.9994           0
   12666 WT1  4497 TIP3 H1   HT     0.417000        1.0080           0
   12667 WT1  4497 TIP3 H2   HT     0.417000        1.0080           0
   12668 WT1  4498 TIP3 OH2  OT    -0.834000       15.9994           0
   12669 WT1  4498 TIP3 H1   HT     0.417000        1.0080           0
   12670 WT1  4498 TIP3 H2   HT     0.417000        1.0080           0
   12671 WT1  4499 TIP3 OH2  OT    -0.834000       15.9994           0
   12672 WT1  4499 TIP3 H1   HT     0.417000        1.0080           0
   12673 WT1  4499 TIP3 H2   HT     0.417000        1.0080           0
   12674 WT1  4500 TIP3 OH2  OT    -0.834000       15.9994           0
   12675 WT1  4500 TIP3 H1   HT     0.417000        1.0080           0
   12676 WT1  4500 TIP3 H2   HT     0.417000        1.0080           0
   12677 WT1  4501 TIP3 OH2  OT    -0.834000       15.9994           0
   12678 WT1  4501 TIP3 H1   HT     0.417000        1.0080           0
   12679 WT1  4501 TIP3 H2   HT     0.417000        1.0080           0
   12680 WT1  4502 TIP3 OH2  OT    -0.834000       15.9994           0
   12681 WT1  4502 TIP3 H1   HT     0.417000        1.0080           0
   12682 WT1  4502 TIP3 H2   HT     0.417000        1.0080           0
   12683 WT1  4504 TIP3 OH2  OT    -0.834000       15.9994           0
   12684 WT1  4504 TIP3 H1   HT     0.417000        1.0080           0
   12685 WT1  4504 TIP3 H2   HT     0.417000        1.0080           0
   12686 WT1  4505 TIP3 OH2  OT    -0.834000       15.9994           0
   12687 WT1  4505 TIP3 H1   HT     0.417000        1.0080           0
   12688 WT1  4505 TIP3 H2   HT     0.417000        1.0080           0
   12689 WT1  4506 TIP3 OH2  OT    -0.834000       15.9994           0
   12690 WT1  4506 TIP3 H1   HT     0.417000        1.0080           0
   12691 WT1  4506 TIP3 H2   HT     0.417000        1.0080           0
   12692 WT1  4508 TIP3 OH2  OT    -0.834000       15.9994           0
   12693 WT1  4508 TIP3 H1   HT     0.417000        1.0080           0
   12694 WT1  4508 TIP3 H2   HT     0.417000        1.0080           0
   12695 WT1  4509 TIP3 OH2  OT    -0.834000       15.9994           0
   12696 WT1  4509 TIP3 H1   HT     0.417000        1.0080           0
   12697 WT1  4509 TIP3 H2   HT     0.417000        1.0080           0
   12698 WT1  4510 TIP3 OH2  OT    -0.834000       15.9994           0
   12699 WT1  4510 TIP3 H1   HT     0.417000        1.0080           0
   12700 WT1  4510 TIP3 H2   HT     0.417000        1.0080           0
   12701 WT1  4511 TIP3 OH2  OT    -0.834000       15.9994           0
   12702 WT1  4511 TIP3 H1   HT     0.417000        1.0080           0
   12703 WT1  4511 TIP3 H2   HT     0.417000        1.0080           0
   12704 WT1  4512 TIP3 OH2  OT    -0.834000       15.9994           0
   12705 WT1  4512 TIP3 H1   HT     0.417000        1.0080           0
   12706 WT1  4512 TIP3 H2   HT     0.417000        1.0080           0
   12707 WT1  4514 TIP3 OH2  OT    -0.834000       15.9994           0
   12708 WT1  4514 TIP3 H1   HT     0.417000        1.0080           0
   12709 WT1  4514 TIP3 H2   HT     0.417000        1.0080           0
   12710 WT1  4515 TIP3 OH2  OT    -0.834000       15.9994           0
   12711 WT1  4515 TIP3 H1   HT     0.417000        1.0080           0
   12712 WT1  4515 TIP3 H2   HT     0.417000        1.0080           0
   12713 WT1  4516 TIP3 OH2  OT    -0.834000       15.9994           0
   12714 WT1  4516 TIP3 H1   HT     0.417000        1.0080           0
   12715 WT1  4516 TIP3 H2   HT     0.417000        1.0080           0
   12716 WT1  4517 TIP3 OH2  OT    -0.834000       15.9994           0
   12717 WT1  4517 TIP3 H1   HT     0.417000        1.0080           0
   12718 WT1  4517 TIP3 H2   HT     0.417000        1.0080           0
   12719 WT1  4518 TIP3 OH2  OT    -0.834000       15.9994           0
   12720 WT1  4518 TIP3 H1   HT     0.417000        1.0080           0
   12721 WT1  4518 TIP3 H2   HT     0.417000        1.0080           0
   12722 WT1  4519 TIP3 OH2  OT    -0.834000       15.9994           0
   12723 WT1  4519 TIP3 H1   HT     0.417000        1.0080           0
   12724 WT1  4519 TIP3 H2   HT     0.417000        1.0080           0
   12725 WT1  4520 TIP3 OH2  OT    -0.834000       15.9994           0
   12726 WT1  4520 TIP3 H1   HT     0.417000        1.0080           0
   12727 WT1  4520 TIP3 H2   HT     0.417000        1.0080           0
   12728 WT1  4521 TIP3 OH2  OT    -0.834000       15.9994           0
   12729 WT1  4521 TIP3 H1   HT     0.417000        1.0080           0
   12730 WT1  4521 TIP3 H2   HT     0.417000        1.0080           0
   12731 WT1  4522 TIP3 OH2  OT    -0.834000       15.9994           0
   12732 WT1  4522 TIP3 H1   HT     0.417000        1.0080           0
   12733 WT1  4522 TIP3 H2   HT     0.417000        1.0080           0
   12734 WT1  4523 TIP3 OH2  OT    -0.834000       15.9994           0
   12735 WT1  4523 TIP3 H1   HT     0.417000        1.0080           0
   12736 WT1  4523 TIP3 H2   HT     0.417000        1.0080           0
   12737 WT1  4524 TIP3 OH2  OT    -0.834000       15.9994           0
   12738 WT1  4524 TIP3 H1   HT     0.417000        1.0080           0
   12739 WT1  4524 TIP3 H2   HT     0.417000        1.0080           0
   12740 WT1  4526 TIP3 OH2  OT    -0.834000       15.9994           0
   12741 WT1  4526 TIP3 H1   HT     0.417000        1.0080           0
   12742 WT1  4526 TIP3 H2   HT     0.417000        1.0080           0
   12743 WT1  4527 TIP3 OH2  OT    -0.834000       15.9994           0
   12744 WT1  4527 TIP3 H1   HT     0.417000        1.0080           0
   12745 WT1  4527 TIP3 H2   HT     0.417000        1.0080           0
   12746 WT1  4528 TIP3 OH2  OT    -0.834000       15.9994           0
   12747 WT1  4528 TIP3 H1   HT     0.417000        1.0080           0
   12748 WT1  4528 TIP3 H2   HT     0.417000        1.0080           0
   12749 WT1  4530 TIP3 OH2  OT    -0.834000       15.9994           0
   12750 WT1  4530 TIP3 H1   HT     0.417000        1.0080           0
   12751 WT1  4530 TIP3 H2   HT     0.417000        1.0080           0
   12752 WT1  4531 TIP3 OH2  OT    -0.834000       15.9994           0
   12753 WT1  4531 TIP3 H1   HT     0.417000        1.0080           0
   12754 WT1  4531 TIP3 H2   HT     0.417000        1.0080           0
   12755 WT1  4532 TIP3 OH2  OT    -0.834000       15.9994           0
   12756 WT1  4532 TIP3 H1   HT     0.417000        1.0080           0
   12757 WT1  4532 TIP3 H2   HT     0.417000        1.0080           0
   12758 WT1  4533 TIP3 OH2  OT    -0.834000       15.9994           0
   12759 WT1  4533 TIP3 H1   HT     0.417000        1.0080           0
   12760 WT1  4533 TIP3 H2   HT     0.417000        1.0080           0
   12761 WT1  4534 TIP3 OH2  OT    -0.834000       15.9994           0
   12762 WT1  4534 TIP3 H1   HT     0.417000        1.0080           0
   12763 WT1  4534 TIP3 H2   HT     0.417000        1.0080           0
   12764 WT1  4535 TIP3 OH2  OT    -0.834000       15.9994           0
   12765 WT1  4535 TIP3 H1   HT     0.417000        1.0080           0
   12766 WT1  4535 TIP3 H2   HT     0.417000        1.0080           0
   12767 WT1  4536 TIP3 OH2  OT    -0.834000       15.9994           0
   12768 WT1  4536 TIP3 H1   HT     0.417000        1.0080           0
   12769 WT1  4536 TIP3 H2   HT     0.417000        1.0080           0
   12770 WT1  4537 TIP3 OH2  OT    -0.834000       15.9994           0
   12771 WT1  4537 TIP3 H1   HT     0.417000        1.0080           0
   12772 WT1  4537 TIP3 H2   HT     0.417000        1.0080           0
   12773 WT1  4538 TIP3 OH2  OT    -0.834000       15.9994           0
   12774 WT1  4538 TIP3 H1   HT     0.417000        1.0080           0
   12775 WT1  4538 TIP3 H2   HT     0.417000        1.0080           0
   12776 WT1  4539 TIP3 OH2  OT    -0.834000       15.9994           0
   12777 WT1  4539 TIP3 H1   HT     0.417000        1.0080           0
   12778 WT1  4539 TIP3 H2   HT     0.417000        1.0080           0
   12779 WT1  4541 TIP3 OH2  OT    -0.834000       15.9994           0
   12780 WT1  4541 TIP3 H1   HT     0.417000        1.0080           0
   12781 WT1  4541 TIP3 H2   HT     0.417000        1.0080           0
   12782 WT1  4542 TIP3 OH2  OT    -0.834000       15.9994           0
   12783 WT1  4542 TIP3 H1   HT     0.417000        1.0080           0
   12784 WT1  4542 TIP3 H2   HT     0.417000        1.0080           0
   12785 WT1  4543 TIP3 OH2  OT    -0.834000       15.9994           0
   12786 WT1  4543 TIP3 H1   HT     0.417000        1.0080           0
   12787 WT1  4543 TIP3 H2   HT     0.417000        1.0080           0
   12788 WT1  4544 TIP3 OH2  OT    -0.834000       15.9994           0
   12789 WT1  4544 TIP3 H1   HT     0.417000        1.0080           0
   12790 WT1  4544 TIP3 H2   HT     0.417000        1.0080           0
   12791 WT1  4546 TIP3 OH2  OT    -0.834000       15.9994           0
   12792 WT1  4546 TIP3 H1   HT     0.417000        1.0080           0
   12793 WT1  4546 TIP3 H2   HT     0.417000        1.0080           0
   12794 WT1  4547 TIP3 OH2  OT    -0.834000       15.9994           0
   12795 WT1  4547 TIP3 H1   HT     0.417000        1.0080           0
   12796 WT1  4547 TIP3 H2   HT     0.417000        1.0080           0
   12797 WT1  4548 TIP3 OH2  OT    -0.834000       15.9994           0
   12798 WT1  4548 TIP3 H1   HT     0.417000        1.0080           0
   12799 WT1  4548 TIP3 H2   HT     0.417000        1.0080           0
   12800 WT1  4549 TIP3 OH2  OT    -0.834000       15.9994           0
   12801 WT1  4549 TIP3 H1   HT     0.417000        1.0080           0
   12802 WT1  4549 TIP3 H2   HT     0.417000        1.0080           0
   12803 WT1  4550 TIP3 OH2  OT    -0.834000       15.9994           0
   12804 WT1  4550 TIP3 H1   HT     0.417000        1.0080           0
   12805 WT1  4550 TIP3 H2   HT     0.417000        1.0080           0
   12806 WT1  4552 TIP3 OH2  OT    -0.834000       15.9994           0
   12807 WT1  4552 TIP3 H1   HT     0.417000        1.0080           0
   12808 WT1  4552 TIP3 H2   HT     0.417000        1.0080           0
   12809 WT1  4553 TIP3 OH2  OT    -0.834000       15.9994           0
   12810 WT1  4553 TIP3 H1   HT     0.417000        1.0080           0
   12811 WT1  4553 TIP3 H2   HT     0.417000        1.0080           0
   12812 WT1  4554 TIP3 OH2  OT    -0.834000       15.9994           0
   12813 WT1  4554 TIP3 H1   HT     0.417000        1.0080           0
   12814 WT1  4554 TIP3 H2   HT     0.417000        1.0080           0
   12815 WT1  4555 TIP3 OH2  OT    -0.834000       15.9994           0
   12816 WT1  4555 TIP3 H1   HT     0.417000        1.0080           0
   12817 WT1  4555 TIP3 H2   HT     0.417000        1.0080           0
   12818 WT1  4556 TIP3 OH2  OT    -0.834000       15.9994           0
   12819 WT1  4556 TIP3 H1   HT     0.417000        1.0080           0
   12820 WT1  4556 TIP3 H2   HT     0.417000        1.0080           0
   12821 WT1  4557 TIP3 OH2  OT    -0.834000       15.9994           0
   12822 WT1  4557 TIP3 H1   HT     0.417000        1.0080           0
   12823 WT1  4557 TIP3 H2   HT     0.417000        1.0080           0
   12824 WT1  4558 TIP3 OH2  OT    -0.834000       15.9994           0
   12825 WT1  4558 TIP3 H1   HT     0.417000        1.0080           0
   12826 WT1  4558 TIP3 H2   HT     0.417000        1.0080           0
   12827 WT1  4559 TIP3 OH2  OT    -0.834000       15.9994           0
   12828 WT1  4559 TIP3 H1   HT     0.417000        1.0080           0
   12829 WT1  4559 TIP3 H2   HT     0.417000        1.0080           0
   12830 WT1  4560 TIP3 OH2  OT    -0.834000       15.9994           0
   12831 WT1  4560 TIP3 H1   HT     0.417000        1.0080           0
   12832 WT1  4560 TIP3 H2   HT     0.417000        1.0080           0
   12833 WT1  4561 TIP3 OH2  OT    -0.834000       15.9994           0
   12834 WT1  4561 TIP3 H1   HT     0.417000        1.0080           0
   12835 WT1  4561 TIP3 H2   HT     0.417000        1.0080           0
   12836 WT1  4562 TIP3 OH2  OT    -0.834000       15.9994           0
   12837 WT1  4562 TIP3 H1   HT     0.417000        1.0080           0
   12838 WT1  4562 TIP3 H2   HT     0.417000        1.0080           0
   12839 WT1  4563 TIP3 OH2  OT    -0.834000       15.9994           0
   12840 WT1  4563 TIP3 H1   HT     0.417000        1.0080           0
   12841 WT1  4563 TIP3 H2   HT     0.417000        1.0080           0
   12842 WT1  4564 TIP3 OH2  OT    -0.834000       15.9994           0
   12843 WT1  4564 TIP3 H1   HT     0.417000        1.0080           0
   12844 WT1  4564 TIP3 H2   HT     0.417000        1.0080           0
   12845 WT1  4565 TIP3 OH2  OT    -0.834000       15.9994           0
   12846 WT1  4565 TIP3 H1   HT     0.417000        1.0080           0
   12847 WT1  4565 TIP3 H2   HT     0.417000        1.0080           0
   12848 WT1  4566 TIP3 OH2  OT    -0.834000       15.9994           0
   12849 WT1  4566 TIP3 H1   HT     0.417000        1.0080           0
   12850 WT1  4566 TIP3 H2   HT     0.417000        1.0080           0
   12851 WT1  4568 TIP3 OH2  OT    -0.834000       15.9994           0
   12852 WT1  4568 TIP3 H1   HT     0.417000        1.0080           0
   12853 WT1  4568 TIP3 H2   HT     0.417000        1.0080           0
   12854 WT1  4569 TIP3 OH2  OT    -0.834000       15.9994           0
   12855 WT1  4569 TIP3 H1   HT     0.417000        1.0080           0
   12856 WT1  4569 TIP3 H2   HT     0.417000        1.0080           0
   12857 WT1  4570 TIP3 OH2  OT    -0.834000       15.9994           0
   12858 WT1  4570 TIP3 H1   HT     0.417000        1.0080           0
   12859 WT1  4570 TIP3 H2   HT     0.417000        1.0080           0
   12860 WT1  4572 TIP3 OH2  OT    -0.834000       15.9994           0
   12861 WT1  4572 TIP3 H1   HT     0.417000        1.0080           0
   12862 WT1  4572 TIP3 H2   HT     0.417000        1.0080           0
   12863 WT1  4574 TIP3 OH2  OT    -0.834000       15.9994           0
   12864 WT1  4574 TIP3 H1   HT     0.417000        1.0080           0
   12865 WT1  4574 TIP3 H2   HT     0.417000        1.0080           0
   12866 WT1  4575 TIP3 OH2  OT    -0.834000       15.9994           0
   12867 WT1  4575 TIP3 H1   HT     0.417000        1.0080           0
   12868 WT1  4575 TIP3 H2   HT     0.417000        1.0080           0
   12869 WT1  4576 TIP3 OH2  OT    -0.834000       15.9994           0
   12870 WT1  4576 TIP3 H1   HT     0.417000        1.0080           0
   12871 WT1  4576 TIP3 H2   HT     0.417000        1.0080           0
   12872 WT1  4577 TIP3 OH2  OT    -0.834000       15.9994           0
   12873 WT1  4577 TIP3 H1   HT     0.417000        1.0080           0
   12874 WT1  4577 TIP3 H2   HT     0.417000        1.0080           0
   12875 WT1  4578 TIP3 OH2  OT    -0.834000       15.9994           0
   12876 WT1  4578 TIP3 H1   HT     0.417000        1.0080           0
   12877 WT1  4578 TIP3 H2   HT     0.417000        1.0080           0
   12878 WT1  4579 TIP3 OH2  OT    -0.834000       15.9994           0
   12879 WT1  4579 TIP3 H1   HT     0.417000        1.0080           0
   12880 WT1  4579 TIP3 H2   HT     0.417000        1.0080           0
   12881 WT1  4581 TIP3 OH2  OT    -0.834000       15.9994           0
   12882 WT1  4581 TIP3 H1   HT     0.417000        1.0080           0
   12883 WT1  4581 TIP3 H2   HT     0.417000        1.0080           0
   12884 WT1  4582 TIP3 OH2  OT    -0.834000       15.9994           0
   12885 WT1  4582 TIP3 H1   HT     0.417000        1.0080           0
   12886 WT1  4582 TIP3 H2   HT     0.417000        1.0080           0
   12887 WT1  4583 TIP3 OH2  OT    -0.834000       15.9994           0
   12888 WT1  4583 TIP3 H1   HT     0.417000        1.0080           0
   12889 WT1  4583 TIP3 H2   HT     0.417000        1.0080           0
   12890 WT1  4584 TIP3 OH2  OT    -0.834000       15.9994           0
   12891 WT1  4584 TIP3 H1   HT     0.417000        1.0080           0
   12892 WT1  4584 TIP3 H2   HT     0.417000        1.0080           0
   12893 WT1  4585 TIP3 OH2  OT    -0.834000       15.9994           0
   12894 WT1  4585 TIP3 H1   HT     0.417000        1.0080           0
   12895 WT1  4585 TIP3 H2   HT     0.417000        1.0080           0
   12896 WT1  4586 TIP3 OH2  OT    -0.834000       15.9994           0
   12897 WT1  4586 TIP3 H1   HT     0.417000        1.0080           0
   12898 WT1  4586 TIP3 H2   HT     0.417000        1.0080           0
   12899 WT1  4588 TIP3 OH2  OT    -0.834000       15.9994           0
   12900 WT1  4588 TIP3 H1   HT     0.417000        1.0080           0
   12901 WT1  4588 TIP3 H2   HT     0.417000        1.0080           0
   12902 WT1  4589 TIP3 OH2  OT    -0.834000       15.9994           0
   12903 WT1  4589 TIP3 H1   HT     0.417000        1.0080           0
   12904 WT1  4589 TIP3 H2   HT     0.417000        1.0080           0
   12905 WT1  4590 TIP3 OH2  OT    -0.834000       15.9994           0
   12906 WT1  4590 TIP3 H1   HT     0.417000        1.0080           0
   12907 WT1  4590 TIP3 H2   HT     0.417000        1.0080           0
   12908 WT1  4593 TIP3 OH2  OT    -0.834000       15.9994           0
   12909 WT1  4593 TIP3 H1   HT     0.417000        1.0080           0
   12910 WT1  4593 TIP3 H2   HT     0.417000        1.0080           0
   12911 WT1  4594 TIP3 OH2  OT    -0.834000       15.9994           0
   12912 WT1  4594 TIP3 H1   HT     0.417000        1.0080           0
   12913 WT1  4594 TIP3 H2   HT     0.417000        1.0080           0
   12914 WT1  4596 TIP3 OH2  OT    -0.834000       15.9994           0
   12915 WT1  4596 TIP3 H1   HT     0.417000        1.0080           0
   12916 WT1  4596 TIP3 H2   HT     0.417000        1.0080           0
   12917 WT1  4597 TIP3 OH2  OT    -0.834000       15.9994           0
   12918 WT1  4597 TIP3 H1   HT     0.417000        1.0080           0
   12919 WT1  4597 TIP3 H2   HT     0.417000        1.0080           0
   12920 WT1  4598 TIP3 OH2  OT    -0.834000       15.9994           0
   12921 WT1  4598 TIP3 H1   HT     0.417000        1.0080           0
   12922 WT1  4598 TIP3 H2   HT     0.417000        1.0080           0
   12923 WT1  4599 TIP3 OH2  OT    -0.834000       15.9994           0
   12924 WT1  4599 TIP3 H1   HT     0.417000        1.0080           0
   12925 WT1  4599 TIP3 H2   HT     0.417000        1.0080           0
   12926 WT1  4600 TIP3 OH2  OT    -0.834000       15.9994           0
   12927 WT1  4600 TIP3 H1   HT     0.417000        1.0080           0
   12928 WT1  4600 TIP3 H2   HT     0.417000        1.0080           0
   12929 WT1  4601 TIP3 OH2  OT    -0.834000       15.9994           0
   12930 WT1  4601 TIP3 H1   HT     0.417000        1.0080           0
   12931 WT1  4601 TIP3 H2   HT     0.417000        1.0080           0
   12932 WT1  4602 TIP3 OH2  OT    -0.834000       15.9994           0
   12933 WT1  4602 TIP3 H1   HT     0.417000        1.0080           0
   12934 WT1  4602 TIP3 H2   HT     0.417000        1.0080           0
   12935 WT1  4603 TIP3 OH2  OT    -0.834000       15.9994           0
   12936 WT1  4603 TIP3 H1   HT     0.417000        1.0080           0
   12937 WT1  4603 TIP3 H2   HT     0.417000        1.0080           0
   12938 WT1  4604 TIP3 OH2  OT    -0.834000       15.9994           0
   12939 WT1  4604 TIP3 H1   HT     0.417000        1.0080           0
   12940 WT1  4604 TIP3 H2   HT     0.417000        1.0080           0
   12941 WT1  4605 TIP3 OH2  OT    -0.834000       15.9994           0
   12942 WT1  4605 TIP3 H1   HT     0.417000        1.0080           0
   12943 WT1  4605 TIP3 H2   HT     0.417000        1.0080           0
   12944 WT1  4607 TIP3 OH2  OT    -0.834000       15.9994           0
   12945 WT1  4607 TIP3 H1   HT     0.417000        1.0080           0
   12946 WT1  4607 TIP3 H2   HT     0.417000        1.0080           0
   12947 WT1  4609 TIP3 OH2  OT    -0.834000       15.9994           0
   12948 WT1  4609 TIP3 H1   HT     0.417000        1.0080           0
   12949 WT1  4609 TIP3 H2   HT     0.417000        1.0080           0
   12950 WT1  4611 TIP3 OH2  OT    -0.834000       15.9994           0
   12951 WT1  4611 TIP3 H1   HT     0.417000        1.0080           0
   12952 WT1  4611 TIP3 H2   HT     0.417000        1.0080           0
   12953 WT1  4612 TIP3 OH2  OT    -0.834000       15.9994           0
   12954 WT1  4612 TIP3 H1   HT     0.417000        1.0080           0
   12955 WT1  4612 TIP3 H2   HT     0.417000        1.0080           0
   12956 WT1  4613 TIP3 OH2  OT    -0.834000       15.9994           0
   12957 WT1  4613 TIP3 H1   HT     0.417000        1.0080           0
   12958 WT1  4613 TIP3 H2   HT     0.417000        1.0080           0
   12959 WT1  4614 TIP3 OH2  OT    -0.834000       15.9994           0
   12960 WT1  4614 TIP3 H1   HT     0.417000        1.0080           0
   12961 WT1  4614 TIP3 H2   HT     0.417000        1.0080           0
   12962 WT1  4615 TIP3 OH2  OT    -0.834000       15.9994           0
   12963 WT1  4615 TIP3 H1   HT     0.417000        1.0080           0
   12964 WT1  4615 TIP3 H2   HT     0.417000        1.0080           0
   12965 WT1  4616 TIP3 OH2  OT    -0.834000       15.9994           0
   12966 WT1  4616 TIP3 H1   HT     0.417000        1.0080           0
   12967 WT1  4616 TIP3 H2   HT     0.417000        1.0080           0
   12968 WT1  4617 TIP3 OH2  OT    -0.834000       15.9994           0
   12969 WT1  4617 TIP3 H1   HT     0.417000        1.0080           0
   12970 WT1  4617 TIP3 H2   HT     0.417000        1.0080           0
   12971 WT1  4619 TIP3 OH2  OT    -0.834000       15.9994           0
   12972 WT1  4619 TIP3 H1   HT     0.417000        1.0080           0
   12973 WT1  4619 TIP3 H2   HT     0.417000        1.0080           0
   12974 WT1  4620 TIP3 OH2  OT    -0.834000       15.9994           0
   12975 WT1  4620 TIP3 H1   HT     0.417000        1.0080           0
   12976 WT1  4620 TIP3 H2   HT     0.417000        1.0080           0
   12977 WT1  4621 TIP3 OH2  OT    -0.834000       15.9994           0
   12978 WT1  4621 TIP3 H1   HT     0.417000        1.0080           0
   12979 WT1  4621 TIP3 H2   HT     0.417000        1.0080           0
   12980 WT1  4622 TIP3 OH2  OT    -0.834000       15.9994           0
   12981 WT1  4622 TIP3 H1   HT     0.417000        1.0080           0
   12982 WT1  4622 TIP3 H2   HT     0.417000        1.0080           0
   12983 WT1  4624 TIP3 OH2  OT    -0.834000       15.9994           0
   12984 WT1  4624 TIP3 H1   HT     0.417000        1.0080           0
   12985 WT1  4624 TIP3 H2   HT     0.417000        1.0080           0
   12986 WT1  4625 TIP3 OH2  OT    -0.834000       15.9994           0
   12987 WT1  4625 TIP3 H1   HT     0.417000        1.0080           0
   12988 WT1  4625 TIP3 H2   HT     0.417000        1.0080           0
   12989 WT1  4626 TIP3 OH2  OT    -0.834000       15.9994           0
   12990 WT1  4626 TIP3 H1   HT     0.417000        1.0080           0
   12991 WT1  4626 TIP3 H2   HT     0.417000        1.0080           0
   12992 WT1  4627 TIP3 OH2  OT    -0.834000       15.9994           0
   12993 WT1  4627 TIP3 H1   HT     0.417000        1.0080           0
   12994 WT1  4627 TIP3 H2   HT     0.417000        1.0080           0
   12995 WT1  4628 TIP3 OH2  OT    -0.834000       15.9994           0
   12996 WT1  4628 TIP3 H1   HT     0.417000        1.0080           0
   12997 WT1  4628 TIP3 H2   HT     0.417000        1.0080           0
   12998 WT1  4629 TIP3 OH2  OT    -0.834000       15.9994           0
   12999 WT1  4629 TIP3 H1   HT     0.417000        1.0080           0
   13000 WT1  4629 TIP3 H2   HT     0.417000        1.0080           0
   13001 WT1  4631 TIP3 OH2  OT    -0.834000       15.9994           0
   13002 WT1  4631 TIP3 H1   HT     0.417000        1.0080           0
   13003 WT1  4631 TIP3 H2   HT     0.417000        1.0080           0
   13004 WT1  4632 TIP3 OH2  OT    -0.834000       15.9994           0
   13005 WT1  4632 TIP3 H1   HT     0.417000        1.0080           0
   13006 WT1  4632 TIP3 H2   HT     0.417000        1.0080           0
   13007 WT1  4633 TIP3 OH2  OT    -0.834000       15.9994           0
   13008 WT1  4633 TIP3 H1   HT     0.417000        1.0080           0
   13009 WT1  4633 TIP3 H2   HT     0.417000        1.0080           0
   13010 WT1  4634 TIP3 OH2  OT    -0.834000       15.9994           0
   13011 WT1  4634 TIP3 H1   HT     0.417000        1.0080           0
   13012 WT1  4634 TIP3 H2   HT     0.417000        1.0080           0
   13013 WT1  4635 TIP3 OH2  OT    -0.834000       15.9994           0
   13014 WT1  4635 TIP3 H1   HT     0.417000        1.0080           0
   13015 WT1  4635 TIP3 H2   HT     0.417000        1.0080           0
   13016 WT1  4638 TIP3 OH2  OT    -0.834000       15.9994           0
   13017 WT1  4638 TIP3 H1   HT     0.417000        1.0080           0
   13018 WT1  4638 TIP3 H2   HT     0.417000        1.0080           0
   13019 WT1  4639 TIP3 OH2  OT    -0.834000       15.9994           0
   13020 WT1  4639 TIP3 H1   HT     0.417000        1.0080           0
   13021 WT1  4639 TIP3 H2   HT     0.417000        1.0080           0
   13022 WT1  4640 TIP3 OH2  OT    -0.834000       15.9994           0
   13023 WT1  4640 TIP3 H1   HT     0.417000        1.0080           0
   13024 WT1  4640 TIP3 H2   HT     0.417000        1.0080           0
   13025 WT1  4641 TIP3 OH2  OT    -0.834000       15.9994           0
   13026 WT1  4641 TIP3 H1   HT     0.417000        1.0080           0
   13027 WT1  4641 TIP3 H2   HT     0.417000        1.0080           0
   13028 WT1  4642 TIP3 OH2  OT    -0.834000       15.9994           0
   13029 WT1  4642 TIP3 H1   HT     0.417000        1.0080           0
   13030 WT1  4642 TIP3 H2   HT     0.417000        1.0080           0
   13031 WT1  4643 TIP3 OH2  OT    -0.834000       15.9994           0
   13032 WT1  4643 TIP3 H1   HT     0.417000        1.0080           0
   13033 WT1  4643 TIP3 H2   HT     0.417000        1.0080           0
   13034 WT1  4644 TIP3 OH2  OT    -0.834000       15.9994           0
   13035 WT1  4644 TIP3 H1   HT     0.417000        1.0080           0
   13036 WT1  4644 TIP3 H2   HT     0.417000        1.0080           0
   13037 WT1  4647 TIP3 OH2  OT    -0.834000       15.9994           0
   13038 WT1  4647 TIP3 H1   HT     0.417000        1.0080           0
   13039 WT1  4647 TIP3 H2   HT     0.417000        1.0080           0
   13040 WT1  4648 TIP3 OH2  OT    -0.834000       15.9994           0
   13041 WT1  4648 TIP3 H1   HT     0.417000        1.0080           0
   13042 WT1  4648 TIP3 H2   HT     0.417000        1.0080           0
   13043 WT1  4649 TIP3 OH2  OT    -0.834000       15.9994           0
   13044 WT1  4649 TIP3 H1   HT     0.417000        1.0080           0
   13045 WT1  4649 TIP3 H2   HT     0.417000        1.0080           0
   13046 WT1  4651 TIP3 OH2  OT    -0.834000       15.9994           0
   13047 WT1  4651 TIP3 H1   HT     0.417000        1.0080           0
   13048 WT1  4651 TIP3 H2   HT     0.417000        1.0080           0
   13049 WT1  4653 TIP3 OH2  OT    -0.834000       15.9994           0
   13050 WT1  4653 TIP3 H1   HT     0.417000        1.0080           0
   13051 WT1  4653 TIP3 H2   HT     0.417000        1.0080           0
   13052 WT1  4654 TIP3 OH2  OT    -0.834000       15.9994           0
   13053 WT1  4654 TIP3 H1   HT     0.417000        1.0080           0
   13054 WT1  4654 TIP3 H2   HT     0.417000        1.0080           0
   13055 WT1  4656 TIP3 OH2  OT    -0.834000       15.9994           0
   13056 WT1  4656 TIP3 H1   HT     0.417000        1.0080           0
   13057 WT1  4656 TIP3 H2   HT     0.417000        1.0080           0
   13058 WT1  4658 TIP3 OH2  OT    -0.834000       15.9994           0
   13059 WT1  4658 TIP3 H1   HT     0.417000        1.0080           0
   13060 WT1  4658 TIP3 H2   HT     0.417000        1.0080           0
   13061 WT1  4659 TIP3 OH2  OT    -0.834000       15.9994           0
   13062 WT1  4659 TIP3 H1   HT     0.417000        1.0080           0
   13063 WT1  4659 TIP3 H2   HT     0.417000        1.0080           0
   13064 WT1  4663 TIP3 OH2  OT    -0.834000       15.9994           0
   13065 WT1  4663 TIP3 H1   HT     0.417000        1.0080           0
   13066 WT1  4663 TIP3 H2   HT     0.417000        1.0080           0
   13067 WT1  4664 TIP3 OH2  OT    -0.834000       15.9994           0
   13068 WT1  4664 TIP3 H1   HT     0.417000        1.0080           0
   13069 WT1  4664 TIP3 H2   HT     0.417000        1.0080           0
   13070 WT1  4665 TIP3 OH2  OT    -0.834000       15.9994           0
   13071 WT1  4665 TIP3 H1   HT     0.417000        1.0080           0
   13072 WT1  4665 TIP3 H2   HT     0.417000        1.0080           0
   13073 WT1  4666 TIP3 OH2  OT    -0.834000       15.9994           0
   13074 WT1  4666 TIP3 H1   HT     0.417000        1.0080           0
   13075 WT1  4666 TIP3 H2   HT     0.417000        1.0080           0
   13076 WT1  4667 TIP3 OH2  OT    -0.834000       15.9994           0
   13077 WT1  4667 TIP3 H1   HT     0.417000        1.0080           0
   13078 WT1  4667 TIP3 H2   HT     0.417000        1.0080           0
   13079 WT1  4668 TIP3 OH2  OT    -0.834000       15.9994           0
   13080 WT1  4668 TIP3 H1   HT     0.417000        1.0080           0
   13081 WT1  4668 TIP3 H2   HT     0.417000        1.0080           0
   13082 WT1  4669 TIP3 OH2  OT    -0.834000       15.9994           0
   13083 WT1  4669 TIP3 H1   HT     0.417000        1.0080           0
   13084 WT1  4669 TIP3 H2   HT     0.417000        1.0080           0
   13085 WT1  4670 TIP3 OH2  OT    -0.834000       15.9994           0
   13086 WT1  4670 TIP3 H1   HT     0.417000        1.0080           0
   13087 WT1  4670 TIP3 H2   HT     0.417000        1.0080           0
   13088 WT1  4673 TIP3 OH2  OT    -0.834000       15.9994           0
   13089 WT1  4673 TIP3 H1   HT     0.417000        1.0080           0
   13090 WT1  4673 TIP3 H2   HT     0.417000        1.0080           0
   13091 WT1  4675 TIP3 OH2  OT    -0.834000       15.9994           0
   13092 WT1  4675 TIP3 H1   HT     0.417000        1.0080           0
   13093 WT1  4675 TIP3 H2   HT     0.417000        1.0080           0
   13094 WT1  4676 TIP3 OH2  OT    -0.834000       15.9994           0
   13095 WT1  4676 TIP3 H1   HT     0.417000        1.0080           0
   13096 WT1  4676 TIP3 H2   HT     0.417000        1.0080           0
   13097 WT1  4677 TIP3 OH2  OT    -0.834000       15.9994           0
   13098 WT1  4677 TIP3 H1   HT     0.417000        1.0080           0
   13099 WT1  4677 TIP3 H2   HT     0.417000        1.0080           0
   13100 WT1  4678 TIP3 OH2  OT    -0.834000       15.9994           0
   13101 WT1  4678 TIP3 H1   HT     0.417000        1.0080           0
   13102 WT1  4678 TIP3 H2   HT     0.417000        1.0080           0
   13103 WT1  4680 TIP3 OH2  OT    -0.834000       15.9994           0
   13104 WT1  4680 TIP3 H1   HT     0.417000        1.0080           0
   13105 WT1  4680 TIP3 H2   HT     0.417000        1.0080           0
   13106 WT1  4681 TIP3 OH2  OT    -0.834000       15.9994           0
   13107 WT1  4681 TIP3 H1   HT     0.417000        1.0080           0
   13108 WT1  4681 TIP3 H2   HT     0.417000        1.0080           0
   13109 WT1  4682 TIP3 OH2  OT    -0.834000       15.9994           0
   13110 WT1  4682 TIP3 H1   HT     0.417000        1.0080           0
   13111 WT1  4682 TIP3 H2   HT     0.417000        1.0080           0
   13112 WT1  4683 TIP3 OH2  OT    -0.834000       15.9994           0
   13113 WT1  4683 TIP3 H1   HT     0.417000        1.0080           0
   13114 WT1  4683 TIP3 H2   HT     0.417000        1.0080           0
   13115 WT1  4684 TIP3 OH2  OT    -0.834000       15.9994           0
   13116 WT1  4684 TIP3 H1   HT     0.417000        1.0080           0
   13117 WT1  4684 TIP3 H2   HT     0.417000        1.0080           0
   13118 WT1  4685 TIP3 OH2  OT    -0.834000       15.9994           0
   13119 WT1  4685 TIP3 H1   HT     0.417000        1.0080           0
   13120 WT1  4685 TIP3 H2   HT     0.417000        1.0080           0
   13121 WT1  4686 TIP3 OH2  OT    -0.834000       15.9994           0
   13122 WT1  4686 TIP3 H1   HT     0.417000        1.0080           0
   13123 WT1  4686 TIP3 H2   HT     0.417000        1.0080           0
   13124 WT1  4687 TIP3 OH2  OT    -0.834000       15.9994           0
   13125 WT1  4687 TIP3 H1   HT     0.417000        1.0080           0
   13126 WT1  4687 TIP3 H2   HT     0.417000        1.0080           0
   13127 WT1  4688 TIP3 OH2  OT    -0.834000       15.9994           0
   13128 WT1  4688 TIP3 H1   HT     0.417000        1.0080           0
   13129 WT1  4688 TIP3 H2   HT     0.417000        1.0080           0
   13130 WT1  4689 TIP3 OH2  OT    -0.834000       15.9994           0
   13131 WT1  4689 TIP3 H1   HT     0.417000        1.0080           0
   13132 WT1  4689 TIP3 H2   HT     0.417000        1.0080           0
   13133 WT1  4690 TIP3 OH2  OT    -0.834000       15.9994           0
   13134 WT1  4690 TIP3 H1   HT     0.417000        1.0080           0
   13135 WT1  4690 TIP3 H2   HT     0.417000        1.0080           0
   13136 WT1  4691 TIP3 OH2  OT    -0.834000       15.9994           0
   13137 WT1  4691 TIP3 H1   HT     0.417000        1.0080           0
   13138 WT1  4691 TIP3 H2   HT     0.417000        1.0080           0
   13139 WT1  4693 TIP3 OH2  OT    -0.834000       15.9994           0
   13140 WT1  4693 TIP3 H1   HT     0.417000        1.0080           0
   13141 WT1  4693 TIP3 H2   HT     0.417000        1.0080           0
   13142 WT1  4694 TIP3 OH2  OT    -0.834000       15.9994           0
   13143 WT1  4694 TIP3 H1   HT     0.417000        1.0080           0
   13144 WT1  4694 TIP3 H2   HT     0.417000        1.0080           0
   13145 WT1  4695 TIP3 OH2  OT    -0.834000       15.9994           0
   13146 WT1  4695 TIP3 H1   HT     0.417000        1.0080           0
   13147 WT1  4695 TIP3 H2   HT     0.417000        1.0080           0
   13148 WT1  4696 TIP3 OH2  OT    -0.834000       15.9994           0
   13149 WT1  4696 TIP3 H1   HT     0.417000        1.0080           0
   13150 WT1  4696 TIP3 H2   HT     0.417000        1.0080           0
   13151 WT1  4697 TIP3 OH2  OT    -0.834000       15.9994           0
   13152 WT1  4697 TIP3 H1   HT     0.417000        1.0080           0
   13153 WT1  4697 TIP3 H2   HT     0.417000        1.0080           0
   13154 WT1  4699 TIP3 OH2  OT    -0.834000       15.9994           0
   13155 WT1  4699 TIP3 H1   HT     0.417000        1.0080           0
   13156 WT1  4699 TIP3 H2   HT     0.417000        1.0080           0
   13157 WT1  4700 TIP3 OH2  OT    -0.834000       15.9994           0
   13158 WT1  4700 TIP3 H1   HT     0.417000        1.0080           0
   13159 WT1  4700 TIP3 H2   HT     0.417000        1.0080           0
   13160 WT1  4701 TIP3 OH2  OT    -0.834000       15.9994           0
   13161 WT1  4701 TIP3 H1   HT     0.417000        1.0080           0
   13162 WT1  4701 TIP3 H2   HT     0.417000        1.0080           0
   13163 WT1  4705 TIP3 OH2  OT    -0.834000       15.9994           0
   13164 WT1  4705 TIP3 H1   HT     0.417000        1.0080           0
   13165 WT1  4705 TIP3 H2   HT     0.417000        1.0080           0
   13166 WT1  4706 TIP3 OH2  OT    -0.834000       15.9994           0
   13167 WT1  4706 TIP3 H1   HT     0.417000        1.0080           0
   13168 WT1  4706 TIP3 H2   HT     0.417000        1.0080           0
   13169 WT1  4707 TIP3 OH2  OT    -0.834000       15.9994           0
   13170 WT1  4707 TIP3 H1   HT     0.417000        1.0080           0
   13171 WT1  4707 TIP3 H2   HT     0.417000        1.0080           0
   13172 WT1  4708 TIP3 OH2  OT    -0.834000       15.9994           0
   13173 WT1  4708 TIP3 H1   HT     0.417000        1.0080           0
   13174 WT1  4708 TIP3 H2   HT     0.417000        1.0080           0
   13175 WT1  4710 TIP3 OH2  OT    -0.834000       15.9994           0
   13176 WT1  4710 TIP3 H1   HT     0.417000        1.0080           0
   13177 WT1  4710 TIP3 H2   HT     0.417000        1.0080           0
   13178 WT1  4711 TIP3 OH2  OT    -0.834000       15.9994           0
   13179 WT1  4711 TIP3 H1   HT     0.417000        1.0080           0
   13180 WT1  4711 TIP3 H2   HT     0.417000        1.0080           0
   13181 WT1  4712 TIP3 OH2  OT    -0.834000       15.9994           0
   13182 WT1  4712 TIP3 H1   HT     0.417000        1.0080           0
   13183 WT1  4712 TIP3 H2   HT     0.417000        1.0080           0
   13184 WT1  4713 TIP3 OH2  OT    -0.834000       15.9994           0
   13185 WT1  4713 TIP3 H1   HT     0.417000        1.0080           0
   13186 WT1  4713 TIP3 H2   HT     0.417000        1.0080           0
   13187 WT1  4714 TIP3 OH2  OT    -0.834000       15.9994           0
   13188 WT1  4714 TIP3 H1   HT     0.417000        1.0080           0
   13189 WT1  4714 TIP3 H2   HT     0.417000        1.0080           0
   13190 WT1  4716 TIP3 OH2  OT    -0.834000       15.9994           0
   13191 WT1  4716 TIP3 H1   HT     0.417000        1.0080           0
   13192 WT1  4716 TIP3 H2   HT     0.417000        1.0080           0
   13193 WT1  4717 TIP3 OH2  OT    -0.834000       15.9994           0
   13194 WT1  4717 TIP3 H1   HT     0.417000        1.0080           0
   13195 WT1  4717 TIP3 H2   HT     0.417000        1.0080           0
   13196 WT1  4718 TIP3 OH2  OT    -0.834000       15.9994           0
   13197 WT1  4718 TIP3 H1   HT     0.417000        1.0080           0
   13198 WT1  4718 TIP3 H2   HT     0.417000        1.0080           0
   13199 WT1  4719 TIP3 OH2  OT    -0.834000       15.9994           0
   13200 WT1  4719 TIP3 H1   HT     0.417000        1.0080           0
   13201 WT1  4719 TIP3 H2   HT     0.417000        1.0080           0
   13202 WT1  4720 TIP3 OH2  OT    -0.834000       15.9994           0
   13203 WT1  4720 TIP3 H1   HT     0.417000        1.0080           0
   13204 WT1  4720 TIP3 H2   HT     0.417000        1.0080           0
   13205 WT1  4721 TIP3 OH2  OT    -0.834000       15.9994           0
   13206 WT1  4721 TIP3 H1   HT     0.417000        1.0080           0
   13207 WT1  4721 TIP3 H2   HT     0.417000        1.0080           0
   13208 WT1  4722 TIP3 OH2  OT    -0.834000       15.9994           0
   13209 WT1  4722 TIP3 H1   HT     0.417000        1.0080           0
   13210 WT1  4722 TIP3 H2   HT     0.417000        1.0080           0
   13211 WT1  4724 TIP3 OH2  OT    -0.834000       15.9994           0
   13212 WT1  4724 TIP3 H1   HT     0.417000        1.0080           0
   13213 WT1  4724 TIP3 H2   HT     0.417000        1.0080           0
   13214 WT1  4725 TIP3 OH2  OT    -0.834000       15.9994           0
   13215 WT1  4725 TIP3 H1   HT     0.417000        1.0080           0
   13216 WT1  4725 TIP3 H2   HT     0.417000        1.0080           0
   13217 WT1  4727 TIP3 OH2  OT    -0.834000       15.9994           0
   13218 WT1  4727 TIP3 H1   HT     0.417000        1.0080           0
   13219 WT1  4727 TIP3 H2   HT     0.417000        1.0080           0
   13220 WT1  4728 TIP3 OH2  OT    -0.834000       15.9994           0
   13221 WT1  4728 TIP3 H1   HT     0.417000        1.0080           0
   13222 WT1  4728 TIP3 H2   HT     0.417000        1.0080           0
   13223 WT1  4729 TIP3 OH2  OT    -0.834000       15.9994           0
   13224 WT1  4729 TIP3 H1   HT     0.417000        1.0080           0
   13225 WT1  4729 TIP3 H2   HT     0.417000        1.0080           0
   13226 WT1  4730 TIP3 OH2  OT    -0.834000       15.9994           0
   13227 WT1  4730 TIP3 H1   HT     0.417000        1.0080           0
   13228 WT1  4730 TIP3 H2   HT     0.417000        1.0080           0
   13229 WT1  4732 TIP3 OH2  OT    -0.834000       15.9994           0
   13230 WT1  4732 TIP3 H1   HT     0.417000        1.0080           0
   13231 WT1  4732 TIP3 H2   HT     0.417000        1.0080           0
   13232 WT1  4733 TIP3 OH2  OT    -0.834000       15.9994           0
   13233 WT1  4733 TIP3 H1   HT     0.417000        1.0080           0
   13234 WT1  4733 TIP3 H2   HT     0.417000        1.0080           0
   13235 WT1  4734 TIP3 OH2  OT    -0.834000       15.9994           0
   13236 WT1  4734 TIP3 H1   HT     0.417000        1.0080           0
   13237 WT1  4734 TIP3 H2   HT     0.417000        1.0080           0
   13238 WT1  4735 TIP3 OH2  OT    -0.834000       15.9994           0
   13239 WT1  4735 TIP3 H1   HT     0.417000        1.0080           0
   13240 WT1  4735 TIP3 H2   HT     0.417000        1.0080           0
   13241 WT1  4736 TIP3 OH2  OT    -0.834000       15.9994           0
   13242 WT1  4736 TIP3 H1   HT     0.417000        1.0080           0
   13243 WT1  4736 TIP3 H2   HT     0.417000        1.0080           0
   13244 WT1  4737 TIP3 OH2  OT    -0.834000       15.9994           0
   13245 WT1  4737 TIP3 H1   HT     0.417000        1.0080           0
   13246 WT1  4737 TIP3 H2   HT     0.417000        1.0080           0
   13247 WT1  4738 TIP3 OH2  OT    -0.834000       15.9994           0
   13248 WT1  4738 TIP3 H1   HT     0.417000        1.0080           0
   13249 WT1  4738 TIP3 H2   HT     0.417000        1.0080           0
   13250 WT1  4742 TIP3 OH2  OT    -0.834000       15.9994           0
   13251 WT1  4742 TIP3 H1   HT     0.417000        1.0080           0
   13252 WT1  4742 TIP3 H2   HT     0.417000        1.0080           0
   13253 WT1  4743 TIP3 OH2  OT    -0.834000       15.9994           0
   13254 WT1  4743 TIP3 H1   HT     0.417000        1.0080           0
   13255 WT1  4743 TIP3 H2   HT     0.417000        1.0080           0
   13256 WT1  4744 TIP3 OH2  OT    -0.834000       15.9994           0
   13257 WT1  4744 TIP3 H1   HT     0.417000        1.0080           0
   13258 WT1  4744 TIP3 H2   HT     0.417000        1.0080           0
   13259 WT1  4745 TIP3 OH2  OT    -0.834000       15.9994           0
   13260 WT1  4745 TIP3 H1   HT     0.417000        1.0080           0
   13261 WT1  4745 TIP3 H2   HT     0.417000        1.0080           0
   13262 WT1  4746 TIP3 OH2  OT    -0.834000       15.9994           0
   13263 WT1  4746 TIP3 H1   HT     0.417000        1.0080           0
   13264 WT1  4746 TIP3 H2   HT     0.417000        1.0080           0
   13265 WT1  4747 TIP3 OH2  OT    -0.834000       15.9994           0
   13266 WT1  4747 TIP3 H1   HT     0.417000        1.0080           0
   13267 WT1  4747 TIP3 H2   HT     0.417000        1.0080           0
   13268 WT1  4748 TIP3 OH2  OT    -0.834000       15.9994           0
   13269 WT1  4748 TIP3 H1   HT     0.417000        1.0080           0
   13270 WT1  4748 TIP3 H2   HT     0.417000        1.0080           0
   13271 WT1  4749 TIP3 OH2  OT    -0.834000       15.9994           0
   13272 WT1  4749 TIP3 H1   HT     0.417000        1.0080           0
   13273 WT1  4749 TIP3 H2   HT     0.417000        1.0080           0
   13274 WT1  4750 TIP3 OH2  OT    -0.834000       15.9994           0
   13275 WT1  4750 TIP3 H1   HT     0.417000        1.0080           0
   13276 WT1  4750 TIP3 H2   HT     0.417000        1.0080           0
   13277 WT1  4751 TIP3 OH2  OT    -0.834000       15.9994           0
   13278 WT1  4751 TIP3 H1   HT     0.417000        1.0080           0
   13279 WT1  4751 TIP3 H2   HT     0.417000        1.0080           0
   13280 WT1  4752 TIP3 OH2  OT    -0.834000       15.9994           0
   13281 WT1  4752 TIP3 H1   HT     0.417000        1.0080           0
   13282 WT1  4752 TIP3 H2   HT     0.417000        1.0080           0
   13283 WT1  4753 TIP3 OH2  OT    -0.834000       15.9994           0
   13284 WT1  4753 TIP3 H1   HT     0.417000        1.0080           0
   13285 WT1  4753 TIP3 H2   HT     0.417000        1.0080           0
   13286 WT1  4754 TIP3 OH2  OT    -0.834000       15.9994           0
   13287 WT1  4754 TIP3 H1   HT     0.417000        1.0080           0
   13288 WT1  4754 TIP3 H2   HT     0.417000        1.0080           0
   13289 WT1  4755 TIP3 OH2  OT    -0.834000       15.9994           0
   13290 WT1  4755 TIP3 H1   HT     0.417000        1.0080           0
   13291 WT1  4755 TIP3 H2   HT     0.417000        1.0080           0
   13292 WT1  4756 TIP3 OH2  OT    -0.834000       15.9994           0
   13293 WT1  4756 TIP3 H1   HT     0.417000        1.0080           0
   13294 WT1  4756 TIP3 H2   HT     0.417000        1.0080           0
   13295 WT1  4757 TIP3 OH2  OT    -0.834000       15.9994           0
   13296 WT1  4757 TIP3 H1   HT     0.417000        1.0080           0
   13297 WT1  4757 TIP3 H2   HT     0.417000        1.0080           0
   13298 WT1  4758 TIP3 OH2  OT    -0.834000       15.9994           0
   13299 WT1  4758 TIP3 H1   HT     0.417000        1.0080           0
   13300 WT1  4758 TIP3 H2   HT     0.417000        1.0080           0
   13301 WT1  4759 TIP3 OH2  OT    -0.834000       15.9994           0
   13302 WT1  4759 TIP3 H1   HT     0.417000        1.0080           0
   13303 WT1  4759 TIP3 H2   HT     0.417000        1.0080           0
   13304 WT1  4760 TIP3 OH2  OT    -0.834000       15.9994           0
   13305 WT1  4760 TIP3 H1   HT     0.417000        1.0080           0
   13306 WT1  4760 TIP3 H2   HT     0.417000        1.0080           0
   13307 WT1  4761 TIP3 OH2  OT    -0.834000       15.9994           0
   13308 WT1  4761 TIP3 H1   HT     0.417000        1.0080           0
   13309 WT1  4761 TIP3 H2   HT     0.417000        1.0080           0
   13310 WT1  4762 TIP3 OH2  OT    -0.834000       15.9994           0
   13311 WT1  4762 TIP3 H1   HT     0.417000        1.0080           0
   13312 WT1  4762 TIP3 H2   HT     0.417000        1.0080           0
   13313 WT1  4765 TIP3 OH2  OT    -0.834000       15.9994           0
   13314 WT1  4765 TIP3 H1   HT     0.417000        1.0080           0
   13315 WT1  4765 TIP3 H2   HT     0.417000        1.0080           0
   13316 WT1  4767 TIP3 OH2  OT    -0.834000       15.9994           0
   13317 WT1  4767 TIP3 H1   HT     0.417000        1.0080           0
   13318 WT1  4767 TIP3 H2   HT     0.417000        1.0080           0
   13319 WT1  4768 TIP3 OH2  OT    -0.834000       15.9994           0
   13320 WT1  4768 TIP3 H1   HT     0.417000        1.0080           0
   13321 WT1  4768 TIP3 H2   HT     0.417000        1.0080           0
   13322 WT1  4769 TIP3 OH2  OT    -0.834000       15.9994           0
   13323 WT1  4769 TIP3 H1   HT     0.417000        1.0080           0
   13324 WT1  4769 TIP3 H2   HT     0.417000        1.0080           0
   13325 WT1  4770 TIP3 OH2  OT    -0.834000       15.9994           0
   13326 WT1  4770 TIP3 H1   HT     0.417000        1.0080           0
   13327 WT1  4770 TIP3 H2   HT     0.417000        1.0080           0
   13328 WT1  4771 TIP3 OH2  OT    -0.834000       15.9994           0
   13329 WT1  4771 TIP3 H1   HT     0.417000        1.0080           0
   13330 WT1  4771 TIP3 H2   HT     0.417000        1.0080           0
   13331 WT1  4772 TIP3 OH2  OT    -0.834000       15.9994           0
   13332 WT1  4772 TIP3 H1   HT     0.417000        1.0080           0
   13333 WT1  4772 TIP3 H2   HT     0.417000        1.0080           0
   13334 WT1  4773 TIP3 OH2  OT    -0.834000       15.9994           0
   13335 WT1  4773 TIP3 H1   HT     0.417000        1.0080           0
   13336 WT1  4773 TIP3 H2   HT     0.417000        1.0080           0
   13337 WT1  4774 TIP3 OH2  OT    -0.834000       15.9994           0
   13338 WT1  4774 TIP3 H1   HT     0.417000        1.0080           0
   13339 WT1  4774 TIP3 H2   HT     0.417000        1.0080           0
   13340 WT1  4777 TIP3 OH2  OT    -0.834000       15.9994           0
   13341 WT1  4777 TIP3 H1   HT     0.417000        1.0080           0
   13342 WT1  4777 TIP3 H2   HT     0.417000        1.0080           0
   13343 WT1  4779 TIP3 OH2  OT    -0.834000       15.9994           0
   13344 WT1  4779 TIP3 H1   HT     0.417000        1.0080           0
   13345 WT1  4779 TIP3 H2   HT     0.417000        1.0080           0
   13346 WT1  4780 TIP3 OH2  OT    -0.834000       15.9994           0
   13347 WT1  4780 TIP3 H1   HT     0.417000        1.0080           0
   13348 WT1  4780 TIP3 H2   HT     0.417000        1.0080           0
   13349 WT1  4781 TIP3 OH2  OT    -0.834000       15.9994           0
   13350 WT1  4781 TIP3 H1   HT     0.417000        1.0080           0
   13351 WT1  4781 TIP3 H2   HT     0.417000        1.0080           0
   13352 WT1  4782 TIP3 OH2  OT    -0.834000       15.9994           0
   13353 WT1  4782 TIP3 H1   HT     0.417000        1.0080           0
   13354 WT1  4782 TIP3 H2   HT     0.417000        1.0080           0
   13355 WT1  4783 TIP3 OH2  OT    -0.834000       15.9994           0
   13356 WT1  4783 TIP3 H1   HT     0.417000        1.0080           0
   13357 WT1  4783 TIP3 H2   HT     0.417000        1.0080           0
   13358 WT1  4784 TIP3 OH2  OT    -0.834000       15.9994           0
   13359 WT1  4784 TIP3 H1   HT     0.417000        1.0080           0
   13360 WT1  4784 TIP3 H2   HT     0.417000        1.0080           0
   13361 WT1  4785 TIP3 OH2  OT    -0.834000       15.9994           0
   13362 WT1  4785 TIP3 H1   HT     0.417000        1.0080           0
   13363 WT1  4785 TIP3 H2   HT     0.417000        1.0080           0
   13364 WT1  4786 TIP3 OH2  OT    -0.834000       15.9994           0
   13365 WT1  4786 TIP3 H1   HT     0.417000        1.0080           0
   13366 WT1  4786 TIP3 H2   HT     0.417000        1.0080           0
   13367 WT1  4787 TIP3 OH2  OT    -0.834000       15.9994           0
   13368 WT1  4787 TIP3 H1   HT     0.417000        1.0080           0
   13369 WT1  4787 TIP3 H2   HT     0.417000        1.0080           0
   13370 WT1  4788 TIP3 OH2  OT    -0.834000       15.9994           0
   13371 WT1  4788 TIP3 H1   HT     0.417000        1.0080           0
   13372 WT1  4788 TIP3 H2   HT     0.417000        1.0080           0
   13373 WT1  4789 TIP3 OH2  OT    -0.834000       15.9994           0
   13374 WT1  4789 TIP3 H1   HT     0.417000        1.0080           0
   13375 WT1  4789 TIP3 H2   HT     0.417000        1.0080           0
   13376 WT1  4790 TIP3 OH2  OT    -0.834000       15.9994           0
   13377 WT1  4790 TIP3 H1   HT     0.417000        1.0080           0
   13378 WT1  4790 TIP3 H2   HT     0.417000        1.0080           0
   13379 WT1  4791 TIP3 OH2  OT    -0.834000       15.9994           0
   13380 WT1  4791 TIP3 H1   HT     0.417000        1.0080           0
   13381 WT1  4791 TIP3 H2   HT     0.417000        1.0080           0
   13382 WT1  4792 TIP3 OH2  OT    -0.834000       15.9994           0
   13383 WT1  4792 TIP3 H1   HT     0.417000        1.0080           0
   13384 WT1  4792 TIP3 H2   HT     0.417000        1.0080           0
   13385 WT1  4793 TIP3 OH2  OT    -0.834000       15.9994           0
   13386 WT1  4793 TIP3 H1   HT     0.417000        1.0080           0
   13387 WT1  4793 TIP3 H2   HT     0.417000        1.0080           0
   13388 WT1  4795 TIP3 OH2  OT    -0.834000       15.9994           0
   13389 WT1  4795 TIP3 H1   HT     0.417000        1.0080           0
   13390 WT1  4795 TIP3 H2   HT     0.417000        1.0080           0
   13391 WT1  4796 TIP3 OH2  OT    -0.834000       15.9994           0
   13392 WT1  4796 TIP3 H1   HT     0.417000        1.0080           0
   13393 WT1  4796 TIP3 H2   HT     0.417000        1.0080           0
   13394 WT1  4797 TIP3 OH2  OT    -0.834000       15.9994           0
   13395 WT1  4797 TIP3 H1   HT     0.417000        1.0080           0
   13396 WT1  4797 TIP3 H2   HT     0.417000        1.0080           0
   13397 WT1  4798 TIP3 OH2  OT    -0.834000       15.9994           0
   13398 WT1  4798 TIP3 H1   HT     0.417000        1.0080           0
   13399 WT1  4798 TIP3 H2   HT     0.417000        1.0080           0
   13400 WT1  4799 TIP3 OH2  OT    -0.834000       15.9994           0
   13401 WT1  4799 TIP3 H1   HT     0.417000        1.0080           0
   13402 WT1  4799 TIP3 H2   HT     0.417000        1.0080           0
   13403 WT1  4801 TIP3 OH2  OT    -0.834000       15.9994           0
   13404 WT1  4801 TIP3 H1   HT     0.417000        1.0080           0
   13405 WT1  4801 TIP3 H2   HT     0.417000        1.0080           0
   13406 WT1  4802 TIP3 OH2  OT    -0.834000       15.9994           0
   13407 WT1  4802 TIP3 H1   HT     0.417000        1.0080           0
   13408 WT1  4802 TIP3 H2   HT     0.417000        1.0080           0
   13409 WT1  4804 TIP3 OH2  OT    -0.834000       15.9994           0
   13410 WT1  4804 TIP3 H1   HT     0.417000        1.0080           0
   13411 WT1  4804 TIP3 H2   HT     0.417000        1.0080           0
   13412 WT1  4805 TIP3 OH2  OT    -0.834000       15.9994           0
   13413 WT1  4805 TIP3 H1   HT     0.417000        1.0080           0
   13414 WT1  4805 TIP3 H2   HT     0.417000        1.0080           0
   13415 WT1  4806 TIP3 OH2  OT    -0.834000       15.9994           0
   13416 WT1  4806 TIP3 H1   HT     0.417000        1.0080           0
   13417 WT1  4806 TIP3 H2   HT     0.417000        1.0080           0
   13418 WT1  4807 TIP3 OH2  OT    -0.834000       15.9994           0
   13419 WT1  4807 TIP3 H1   HT     0.417000        1.0080           0
   13420 WT1  4807 TIP3 H2   HT     0.417000        1.0080           0
   13421 WT1  4808 TIP3 OH2  OT    -0.834000       15.9994           0
   13422 WT1  4808 TIP3 H1   HT     0.417000        1.0080           0
   13423 WT1  4808 TIP3 H2   HT     0.417000        1.0080           0
   13424 WT1  4809 TIP3 OH2  OT    -0.834000       15.9994           0
   13425 WT1  4809 TIP3 H1   HT     0.417000        1.0080           0
   13426 WT1  4809 TIP3 H2   HT     0.417000        1.0080           0
   13427 WT1  4810 TIP3 OH2  OT    -0.834000       15.9994           0
   13428 WT1  4810 TIP3 H1   HT     0.417000        1.0080           0
   13429 WT1  4810 TIP3 H2   HT     0.417000        1.0080           0
   13430 WT1  4811 TIP3 OH2  OT    -0.834000       15.9994           0
   13431 WT1  4811 TIP3 H1   HT     0.417000        1.0080           0
   13432 WT1  4811 TIP3 H2   HT     0.417000        1.0080           0
   13433 WT1  4812 TIP3 OH2  OT    -0.834000       15.9994           0
   13434 WT1  4812 TIP3 H1   HT     0.417000        1.0080           0
   13435 WT1  4812 TIP3 H2   HT     0.417000        1.0080           0
   13436 WT1  4813 TIP3 OH2  OT    -0.834000       15.9994           0
   13437 WT1  4813 TIP3 H1   HT     0.417000        1.0080           0
   13438 WT1  4813 TIP3 H2   HT     0.417000        1.0080           0
   13439 WT1  4814 TIP3 OH2  OT    -0.834000       15.9994           0
   13440 WT1  4814 TIP3 H1   HT     0.417000        1.0080           0
   13441 WT1  4814 TIP3 H2   HT     0.417000        1.0080           0
   13442 WT1  4815 TIP3 OH2  OT    -0.834000       15.9994           0
   13443 WT1  4815 TIP3 H1   HT     0.417000        1.0080           0
   13444 WT1  4815 TIP3 H2   HT     0.417000        1.0080           0
   13445 WT1  4816 TIP3 OH2  OT    -0.834000       15.9994           0
   13446 WT1  4816 TIP3 H1   HT     0.417000        1.0080           0
   13447 WT1  4816 TIP3 H2   HT     0.417000        1.0080           0
   13448 WT1  4817 TIP3 OH2  OT    -0.834000       15.9994           0
   13449 WT1  4817 TIP3 H1   HT     0.417000        1.0080           0
   13450 WT1  4817 TIP3 H2   HT     0.417000        1.0080           0
   13451 WT1  4818 TIP3 OH2  OT    -0.834000       15.9994           0
   13452 WT1  4818 TIP3 H1   HT     0.417000        1.0080           0
   13453 WT1  4818 TIP3 H2   HT     0.417000        1.0080           0
   13454 WT1  4819 TIP3 OH2  OT    -0.834000       15.9994           0
   13455 WT1  4819 TIP3 H1   HT     0.417000        1.0080           0
   13456 WT1  4819 TIP3 H2   HT     0.417000        1.0080           0
   13457 WT1  4820 TIP3 OH2  OT    -0.834000       15.9994           0
   13458 WT1  4820 TIP3 H1   HT     0.417000        1.0080           0
   13459 WT1  4820 TIP3 H2   HT     0.417000        1.0080           0
   13460 WT1  4821 TIP3 OH2  OT    -0.834000       15.9994           0
   13461 WT1  4821 TIP3 H1   HT     0.417000        1.0080           0
   13462 WT1  4821 TIP3 H2   HT     0.417000        1.0080           0
   13463 WT1  4822 TIP3 OH2  OT    -0.834000       15.9994           0
   13464 WT1  4822 TIP3 H1   HT     0.417000        1.0080           0
   13465 WT1  4822 TIP3 H2   HT     0.417000        1.0080           0
   13466 WT1  4824 TIP3 OH2  OT    -0.834000       15.9994           0
   13467 WT1  4824 TIP3 H1   HT     0.417000        1.0080           0
   13468 WT1  4824 TIP3 H2   HT     0.417000        1.0080           0
   13469 WT1  4826 TIP3 OH2  OT    -0.834000       15.9994           0
   13470 WT1  4826 TIP3 H1   HT     0.417000        1.0080           0
   13471 WT1  4826 TIP3 H2   HT     0.417000        1.0080           0
   13472 WT1  4827 TIP3 OH2  OT    -0.834000       15.9994           0
   13473 WT1  4827 TIP3 H1   HT     0.417000        1.0080           0
   13474 WT1  4827 TIP3 H2   HT     0.417000        1.0080           0
   13475 WT1  4828 TIP3 OH2  OT    -0.834000       15.9994           0
   13476 WT1  4828 TIP3 H1   HT     0.417000        1.0080           0
   13477 WT1  4828 TIP3 H2   HT     0.417000        1.0080           0
   13478 WT1  4829 TIP3 OH2  OT    -0.834000       15.9994           0
   13479 WT1  4829 TIP3 H1   HT     0.417000        1.0080           0
   13480 WT1  4829 TIP3 H2   HT     0.417000        1.0080           0
   13481 WT1  4830 TIP3 OH2  OT    -0.834000       15.9994           0
   13482 WT1  4830 TIP3 H1   HT     0.417000        1.0080           0
   13483 WT1  4830 TIP3 H2   HT     0.417000        1.0080           0
   13484 WT1  4831 TIP3 OH2  OT    -0.834000       15.9994           0
   13485 WT1  4831 TIP3 H1   HT     0.417000        1.0080           0
   13486 WT1  4831 TIP3 H2   HT     0.417000        1.0080           0
   13487 WT1  4832 TIP3 OH2  OT    -0.834000       15.9994           0
   13488 WT1  4832 TIP3 H1   HT     0.417000        1.0080           0
   13489 WT1  4832 TIP3 H2   HT     0.417000        1.0080           0
   13490 WT1  4833 TIP3 OH2  OT    -0.834000       15.9994           0
   13491 WT1  4833 TIP3 H1   HT     0.417000        1.0080           0
   13492 WT1  4833 TIP3 H2   HT     0.417000        1.0080           0
   13493 WT1  4834 TIP3 OH2  OT    -0.834000       15.9994           0
   13494 WT1  4834 TIP3 H1   HT     0.417000        1.0080           0
   13495 WT1  4834 TIP3 H2   HT     0.417000        1.0080           0
   13496 WT1  4835 TIP3 OH2  OT    -0.834000       15.9994           0
   13497 WT1  4835 TIP3 H1   HT     0.417000        1.0080           0
   13498 WT1  4835 TIP3 H2   HT     0.417000        1.0080           0
   13499 WT1  4836 TIP3 OH2  OT    -0.834000       15.9994           0
   13500 WT1  4836 TIP3 H1   HT     0.417000        1.0080           0
   13501 WT1  4836 TIP3 H2   HT     0.417000        1.0080           0
   13502 WT1  4837 TIP3 OH2  OT    -0.834000       15.9994           0
   13503 WT1  4837 TIP3 H1   HT     0.417000        1.0080           0
   13504 WT1  4837 TIP3 H2   HT     0.417000        1.0080           0
   13505 WT1  4838 TIP3 OH2  OT    -0.834000       15.9994           0
   13506 WT1  4838 TIP3 H1   HT     0.417000        1.0080           0
   13507 WT1  4838 TIP3 H2   HT     0.417000        1.0080           0
   13508 WT1  4839 TIP3 OH2  OT    -0.834000       15.9994           0
   13509 WT1  4839 TIP3 H1   HT     0.417000        1.0080           0
   13510 WT1  4839 TIP3 H2   HT     0.417000        1.0080           0
   13511 WT1  4840 TIP3 OH2  OT    -0.834000       15.9994           0
   13512 WT1  4840 TIP3 H1   HT     0.417000        1.0080           0
   13513 WT1  4840 TIP3 H2   HT     0.417000        1.0080           0
   13514 WT1  4841 TIP3 OH2  OT    -0.834000       15.9994           0
   13515 WT1  4841 TIP3 H1   HT     0.417000        1.0080           0
   13516 WT1  4841 TIP3 H2   HT     0.417000        1.0080           0
   13517 WT1  4842 TIP3 OH2  OT    -0.834000       15.9994           0
   13518 WT1  4842 TIP3 H1   HT     0.417000        1.0080           0
   13519 WT1  4842 TIP3 H2   HT     0.417000        1.0080           0
   13520 WT1  4843 TIP3 OH2  OT    -0.834000       15.9994           0
   13521 WT1  4843 TIP3 H1   HT     0.417000        1.0080           0
   13522 WT1  4843 TIP3 H2   HT     0.417000        1.0080           0
   13523 WT1  4844 TIP3 OH2  OT    -0.834000       15.9994           0
   13524 WT1  4844 TIP3 H1   HT     0.417000        1.0080           0
   13525 WT1  4844 TIP3 H2   HT     0.417000        1.0080           0
   13526 WT1  4845 TIP3 OH2  OT    -0.834000       15.9994           0
   13527 WT1  4845 TIP3 H1   HT     0.417000        1.0080           0
   13528 WT1  4845 TIP3 H2   HT     0.417000        1.0080           0
   13529 WT1  4846 TIP3 OH2  OT    -0.834000       15.9994           0
   13530 WT1  4846 TIP3 H1   HT     0.417000        1.0080           0
   13531 WT1  4846 TIP3 H2   HT     0.417000        1.0080           0
   13532 WT1  4847 TIP3 OH2  OT    -0.834000       15.9994           0
   13533 WT1  4847 TIP3 H1   HT     0.417000        1.0080           0
   13534 WT1  4847 TIP3 H2   HT     0.417000        1.0080           0
   13535 WT1  4848 TIP3 OH2  OT    -0.834000       15.9994           0
   13536 WT1  4848 TIP3 H1   HT     0.417000        1.0080           0
   13537 WT1  4848 TIP3 H2   HT     0.417000        1.0080           0
   13538 WT1  4849 TIP3 OH2  OT    -0.834000       15.9994           0
   13539 WT1  4849 TIP3 H1   HT     0.417000        1.0080           0
   13540 WT1  4849 TIP3 H2   HT     0.417000        1.0080           0
   13541 WT1  4850 TIP3 OH2  OT    -0.834000       15.9994           0
   13542 WT1  4850 TIP3 H1   HT     0.417000        1.0080           0
   13543 WT1  4850 TIP3 H2   HT     0.417000        1.0080           0
   13544 WT1  4851 TIP3 OH2  OT    -0.834000       15.9994           0
   13545 WT1  4851 TIP3 H1   HT     0.417000        1.0080           0
   13546 WT1  4851 TIP3 H2   HT     0.417000        1.0080           0
   13547 WT1  4852 TIP3 OH2  OT    -0.834000       15.9994           0
   13548 WT1  4852 TIP3 H1   HT     0.417000        1.0080           0
   13549 WT1  4852 TIP3 H2   HT     0.417000        1.0080           0
   13550 WT1  4853 TIP3 OH2  OT    -0.834000       15.9994           0
   13551 WT1  4853 TIP3 H1   HT     0.417000        1.0080           0
   13552 WT1  4853 TIP3 H2   HT     0.417000        1.0080           0
   13553 WT1  4854 TIP3 OH2  OT    -0.834000       15.9994           0
   13554 WT1  4854 TIP3 H1   HT     0.417000        1.0080           0
   13555 WT1  4854 TIP3 H2   HT     0.417000        1.0080           0
   13556 WT1  4855 TIP3 OH2  OT    -0.834000       15.9994           0
   13557 WT1  4855 TIP3 H1   HT     0.417000        1.0080           0
   13558 WT1  4855 TIP3 H2   HT     0.417000        1.0080           0
   13559 WT1  4856 TIP3 OH2  OT    -0.834000       15.9994           0
   13560 WT1  4856 TIP3 H1   HT     0.417000        1.0080           0
   13561 WT1  4856 TIP3 H2   HT     0.417000        1.0080           0
   13562 WT1  4857 TIP3 OH2  OT    -0.834000       15.9994           0
   13563 WT1  4857 TIP3 H1   HT     0.417000        1.0080           0
   13564 WT1  4857 TIP3 H2   HT     0.417000        1.0080           0
   13565 WT1  4858 TIP3 OH2  OT    -0.834000       15.9994           0
   13566 WT1  4858 TIP3 H1   HT     0.417000        1.0080           0
   13567 WT1  4858 TIP3 H2   HT     0.417000        1.0080           0
   13568 WT1  4860 TIP3 OH2  OT    -0.834000       15.9994           0
   13569 WT1  4860 TIP3 H1   HT     0.417000        1.0080           0
   13570 WT1  4860 TIP3 H2   HT     0.417000        1.0080           0
   13571 WT1  4861 TIP3 OH2  OT    -0.834000       15.9994           0
   13572 WT1  4861 TIP3 H1   HT     0.417000        1.0080           0
   13573 WT1  4861 TIP3 H2   HT     0.417000        1.0080           0
   13574 WT1  4862 TIP3 OH2  OT    -0.834000       15.9994           0
   13575 WT1  4862 TIP3 H1   HT     0.417000        1.0080           0
   13576 WT1  4862 TIP3 H2   HT     0.417000        1.0080           0
   13577 WT1  4863 TIP3 OH2  OT    -0.834000       15.9994           0
   13578 WT1  4863 TIP3 H1   HT     0.417000        1.0080           0
   13579 WT1  4863 TIP3 H2   HT     0.417000        1.0080           0
   13580 WT1  4864 TIP3 OH2  OT    -0.834000       15.9994           0
   13581 WT1  4864 TIP3 H1   HT     0.417000        1.0080           0
   13582 WT1  4864 TIP3 H2   HT     0.417000        1.0080           0
   13583 WT1  4865 TIP3 OH2  OT    -0.834000       15.9994           0
   13584 WT1  4865 TIP3 H1   HT     0.417000        1.0080           0
   13585 WT1  4865 TIP3 H2   HT     0.417000        1.0080           0
   13586 WT1  4866 TIP3 OH2  OT    -0.834000       15.9994           0
   13587 WT1  4866 TIP3 H1   HT     0.417000        1.0080           0
   13588 WT1  4866 TIP3 H2   HT     0.417000        1.0080           0
   13589 WT1  4867 TIP3 OH2  OT    -0.834000       15.9994           0
   13590 WT1  4867 TIP3 H1   HT     0.417000        1.0080           0
   13591 WT1  4867 TIP3 H2   HT     0.417000        1.0080           0
   13592 WT1  4869 TIP3 OH2  OT    -0.834000       15.9994           0
   13593 WT1  4869 TIP3 H1   HT     0.417000        1.0080           0
   13594 WT1  4869 TIP3 H2   HT     0.417000        1.0080           0
   13595 WT1  4870 TIP3 OH2  OT    -0.834000       15.9994           0
   13596 WT1  4870 TIP3 H1   HT     0.417000        1.0080           0
   13597 WT1  4870 TIP3 H2   HT     0.417000        1.0080           0
   13598 WT1  4871 TIP3 OH2  OT    -0.834000       15.9994           0
   13599 WT1  4871 TIP3 H1   HT     0.417000        1.0080           0
   13600 WT1  4871 TIP3 H2   HT     0.417000        1.0080           0
   13601 WT1  4872 TIP3 OH2  OT    -0.834000       15.9994           0
   13602 WT1  4872 TIP3 H1   HT     0.417000        1.0080           0
   13603 WT1  4872 TIP3 H2   HT     0.417000        1.0080           0
   13604 WT1  4873 TIP3 OH2  OT    -0.834000       15.9994           0
   13605 WT1  4873 TIP3 H1   HT     0.417000        1.0080           0
   13606 WT1  4873 TIP3 H2   HT     0.417000        1.0080           0
   13607 WT1  4874 TIP3 OH2  OT    -0.834000       15.9994           0
   13608 WT1  4874 TIP3 H1   HT     0.417000        1.0080           0
   13609 WT1  4874 TIP3 H2   HT     0.417000        1.0080           0
   13610 WT1  4875 TIP3 OH2  OT    -0.834000       15.9994           0
   13611 WT1  4875 TIP3 H1   HT     0.417000        1.0080           0
   13612 WT1  4875 TIP3 H2   HT     0.417000        1.0080           0
   13613 WT1  4876 TIP3 OH2  OT    -0.834000       15.9994           0
   13614 WT1  4876 TIP3 H1   HT     0.417000        1.0080           0
   13615 WT1  4876 TIP3 H2   HT     0.417000        1.0080           0
   13616 WT1  4877 TIP3 OH2  OT    -0.834000       15.9994           0
   13617 WT1  4877 TIP3 H1   HT     0.417000        1.0080           0
   13618 WT1  4877 TIP3 H2   HT     0.417000        1.0080           0
   13619 WT1  4878 TIP3 OH2  OT    -0.834000       15.9994           0
   13620 WT1  4878 TIP3 H1   HT     0.417000        1.0080           0
   13621 WT1  4878 TIP3 H2   HT     0.417000        1.0080           0
   13622 WT1  4879 TIP3 OH2  OT    -0.834000       15.9994           0
   13623 WT1  4879 TIP3 H1   HT     0.417000        1.0080           0
   13624 WT1  4879 TIP3 H2   HT     0.417000        1.0080           0
   13625 WT1  4880 TIP3 OH2  OT    -0.834000       15.9994           0
   13626 WT1  4880 TIP3 H1   HT     0.417000        1.0080           0
   13627 WT1  4880 TIP3 H2   HT     0.417000        1.0080           0
   13628 WT1  4881 TIP3 OH2  OT    -0.834000       15.9994           0
   13629 WT1  4881 TIP3 H1   HT     0.417000        1.0080           0
   13630 WT1  4881 TIP3 H2   HT     0.417000        1.0080           0
   13631 WT1  4882 TIP3 OH2  OT    -0.834000       15.9994           0
   13632 WT1  4882 TIP3 H1   HT     0.417000        1.0080           0
   13633 WT1  4882 TIP3 H2   HT     0.417000        1.0080           0
   13634 WT1  4883 TIP3 OH2  OT    -0.834000       15.9994           0
   13635 WT1  4883 TIP3 H1   HT     0.417000        1.0080           0
   13636 WT1  4883 TIP3 H2   HT     0.417000        1.0080           0
   13637 WT1  4885 TIP3 OH2  OT    -0.834000       15.9994           0
   13638 WT1  4885 TIP3 H1   HT     0.417000        1.0080           0
   13639 WT1  4885 TIP3 H2   HT     0.417000        1.0080           0
   13640 WT1  4886 TIP3 OH2  OT    -0.834000       15.9994           0
   13641 WT1  4886 TIP3 H1   HT     0.417000        1.0080           0
   13642 WT1  4886 TIP3 H2   HT     0.417000        1.0080           0
   13643 WT1  4887 TIP3 OH2  OT    -0.834000       15.9994           0
   13644 WT1  4887 TIP3 H1   HT     0.417000        1.0080           0
   13645 WT1  4887 TIP3 H2   HT     0.417000        1.0080           0
   13646 WT1  4888 TIP3 OH2  OT    -0.834000       15.9994           0
   13647 WT1  4888 TIP3 H1   HT     0.417000        1.0080           0
   13648 WT1  4888 TIP3 H2   HT     0.417000        1.0080           0
   13649 WT1  4889 TIP3 OH2  OT    -0.834000       15.9994           0
   13650 WT1  4889 TIP3 H1   HT     0.417000        1.0080           0
   13651 WT1  4889 TIP3 H2   HT     0.417000        1.0080           0
   13652 WT1  4890 TIP3 OH2  OT    -0.834000       15.9994           0
   13653 WT1  4890 TIP3 H1   HT     0.417000        1.0080           0
   13654 WT1  4890 TIP3 H2   HT     0.417000        1.0080           0
   13655 WT1  4891 TIP3 OH2  OT    -0.834000       15.9994           0
   13656 WT1  4891 TIP3 H1   HT     0.417000        1.0080           0
   13657 WT1  4891 TIP3 H2   HT     0.417000        1.0080           0
   13658 WT1  4893 TIP3 OH2  OT    -0.834000       15.9994           0
   13659 WT1  4893 TIP3 H1   HT     0.417000        1.0080           0
   13660 WT1  4893 TIP3 H2   HT     0.417000        1.0080           0
   13661 WT1  4894 TIP3 OH2  OT    -0.834000       15.9994           0
   13662 WT1  4894 TIP3 H1   HT     0.417000        1.0080           0
   13663 WT1  4894 TIP3 H2   HT     0.417000        1.0080           0
   13664 WT1  4895 TIP3 OH2  OT    -0.834000       15.9994           0
   13665 WT1  4895 TIP3 H1   HT     0.417000        1.0080           0
   13666 WT1  4895 TIP3 H2   HT     0.417000        1.0080           0
   13667 WT1  4896 TIP3 OH2  OT    -0.834000       15.9994           0
   13668 WT1  4896 TIP3 H1   HT     0.417000        1.0080           0
   13669 WT1  4896 TIP3 H2   HT     0.417000        1.0080           0
   13670 WT1  4897 TIP3 OH2  OT    -0.834000       15.9994           0
   13671 WT1  4897 TIP3 H1   HT     0.417000        1.0080           0
   13672 WT1  4897 TIP3 H2   HT     0.417000        1.0080           0
   13673 WT1  4898 TIP3 OH2  OT    -0.834000       15.9994           0
   13674 WT1  4898 TIP3 H1   HT     0.417000        1.0080           0
   13675 WT1  4898 TIP3 H2   HT     0.417000        1.0080           0
   13676 WT1  4899 TIP3 OH2  OT    -0.834000       15.9994           0
   13677 WT1  4899 TIP3 H1   HT     0.417000        1.0080           0
   13678 WT1  4899 TIP3 H2   HT     0.417000        1.0080           0
   13679 WT1  4900 TIP3 OH2  OT    -0.834000       15.9994           0
   13680 WT1  4900 TIP3 H1   HT     0.417000        1.0080           0
   13681 WT1  4900 TIP3 H2   HT     0.417000        1.0080           0
   13682 WT1  4903 TIP3 OH2  OT    -0.834000       15.9994           0
   13683 WT1  4903 TIP3 H1   HT     0.417000        1.0080           0
   13684 WT1  4903 TIP3 H2   HT     0.417000        1.0080           0
   13685 WT1  4904 TIP3 OH2  OT    -0.834000       15.9994           0
   13686 WT1  4904 TIP3 H1   HT     0.417000        1.0080           0
   13687 WT1  4904 TIP3 H2   HT     0.417000        1.0080           0
   13688 WT1  4905 TIP3 OH2  OT    -0.834000       15.9994           0
   13689 WT1  4905 TIP3 H1   HT     0.417000        1.0080           0
   13690 WT1  4905 TIP3 H2   HT     0.417000        1.0080           0
   13691 WT1  4906 TIP3 OH2  OT    -0.834000       15.9994           0
   13692 WT1  4906 TIP3 H1   HT     0.417000        1.0080           0
   13693 WT1  4906 TIP3 H2   HT     0.417000        1.0080           0
   13694 WT1  4907 TIP3 OH2  OT    -0.834000       15.9994           0
   13695 WT1  4907 TIP3 H1   HT     0.417000        1.0080           0
   13696 WT1  4907 TIP3 H2   HT     0.417000        1.0080           0
   13697 WT1  4908 TIP3 OH2  OT    -0.834000       15.9994           0
   13698 WT1  4908 TIP3 H1   HT     0.417000        1.0080           0
   13699 WT1  4908 TIP3 H2   HT     0.417000        1.0080           0
   13700 WT1  4909 TIP3 OH2  OT    -0.834000       15.9994           0
   13701 WT1  4909 TIP3 H1   HT     0.417000        1.0080           0
   13702 WT1  4909 TIP3 H2   HT     0.417000        1.0080           0
   13703 WT1  4910 TIP3 OH2  OT    -0.834000       15.9994           0
   13704 WT1  4910 TIP3 H1   HT     0.417000        1.0080           0
   13705 WT1  4910 TIP3 H2   HT     0.417000        1.0080           0
   13706 WT1  4911 TIP3 OH2  OT    -0.834000       15.9994           0
   13707 WT1  4911 TIP3 H1   HT     0.417000        1.0080           0
   13708 WT1  4911 TIP3 H2   HT     0.417000        1.0080           0
   13709 WT1  4912 TIP3 OH2  OT    -0.834000       15.9994           0
   13710 WT1  4912 TIP3 H1   HT     0.417000        1.0080           0
   13711 WT1  4912 TIP3 H2   HT     0.417000        1.0080           0
   13712 WT1  4913 TIP3 OH2  OT    -0.834000       15.9994           0
   13713 WT1  4913 TIP3 H1   HT     0.417000        1.0080           0
   13714 WT1  4913 TIP3 H2   HT     0.417000        1.0080           0
   13715 WT1  4914 TIP3 OH2  OT    -0.834000       15.9994           0
   13716 WT1  4914 TIP3 H1   HT     0.417000        1.0080           0
   13717 WT1  4914 TIP3 H2   HT     0.417000        1.0080           0
   13718 WT1  4915 TIP3 OH2  OT    -0.834000       15.9994           0
   13719 WT1  4915 TIP3 H1   HT     0.417000        1.0080           0
   13720 WT1  4915 TIP3 H2   HT     0.417000        1.0080           0
   13721 WT1  4916 TIP3 OH2  OT    -0.834000       15.9994           0
   13722 WT1  4916 TIP3 H1   HT     0.417000        1.0080           0
   13723 WT1  4916 TIP3 H2   HT     0.417000        1.0080           0
   13724 WT1  4918 TIP3 OH2  OT    -0.834000       15.9994           0
   13725 WT1  4918 TIP3 H1   HT     0.417000        1.0080           0
   13726 WT1  4918 TIP3 H2   HT     0.417000        1.0080           0
   13727 WT1  4919 TIP3 OH2  OT    -0.834000       15.9994           0
   13728 WT1  4919 TIP3 H1   HT     0.417000        1.0080           0
   13729 WT1  4919 TIP3 H2   HT     0.417000        1.0080           0
   13730 WT1  4921 TIP3 OH2  OT    -0.834000       15.9994           0
   13731 WT1  4921 TIP3 H1   HT     0.417000        1.0080           0
   13732 WT1  4921 TIP3 H2   HT     0.417000        1.0080           0
   13733 WT1  4922 TIP3 OH2  OT    -0.834000       15.9994           0
   13734 WT1  4922 TIP3 H1   HT     0.417000        1.0080           0
   13735 WT1  4922 TIP3 H2   HT     0.417000        1.0080           0
   13736 WT1  4923 TIP3 OH2  OT    -0.834000       15.9994           0
   13737 WT1  4923 TIP3 H1   HT     0.417000        1.0080           0
   13738 WT1  4923 TIP3 H2   HT     0.417000        1.0080           0
   13739 WT1  4924 TIP3 OH2  OT    -0.834000       15.9994           0
   13740 WT1  4924 TIP3 H1   HT     0.417000        1.0080           0
   13741 WT1  4924 TIP3 H2   HT     0.417000        1.0080           0
   13742 WT1  4925 TIP3 OH2  OT    -0.834000       15.9994           0
   13743 WT1  4925 TIP3 H1   HT     0.417000        1.0080           0
   13744 WT1  4925 TIP3 H2   HT     0.417000        1.0080           0
   13745 WT1  4926 TIP3 OH2  OT    -0.834000       15.9994           0
   13746 WT1  4926 TIP3 H1   HT     0.417000        1.0080           0
   13747 WT1  4926 TIP3 H2   HT     0.417000        1.0080           0
   13748 WT1  4927 TIP3 OH2  OT    -0.834000       15.9994           0
   13749 WT1  4927 TIP3 H1   HT     0.417000        1.0080           0
   13750 WT1  4927 TIP3 H2   HT     0.417000        1.0080           0
   13751 WT1  4928 TIP3 OH2  OT    -0.834000       15.9994           0
   13752 WT1  4928 TIP3 H1   HT     0.417000        1.0080           0
   13753 WT1  4928 TIP3 H2   HT     0.417000        1.0080           0
   13754 WT1  4929 TIP3 OH2  OT    -0.834000       15.9994           0
   13755 WT1  4929 TIP3 H1   HT     0.417000        1.0080           0
   13756 WT1  4929 TIP3 H2   HT     0.417000        1.0080           0
   13757 WT1  4930 TIP3 OH2  OT    -0.834000       15.9994           0
   13758 WT1  4930 TIP3 H1   HT     0.417000        1.0080           0
   13759 WT1  4930 TIP3 H2   HT     0.417000        1.0080           0
   13760 WT1  4931 TIP3 OH2  OT    -0.834000       15.9994           0
   13761 WT1  4931 TIP3 H1   HT     0.417000        1.0080           0
   13762 WT1  4931 TIP3 H2   HT     0.417000        1.0080           0
   13763 WT1  4932 TIP3 OH2  OT    -0.834000       15.9994           0
   13764 WT1  4932 TIP3 H1   HT     0.417000        1.0080           0
   13765 WT1  4932 TIP3 H2   HT     0.417000        1.0080           0
   13766 WT1  4933 TIP3 OH2  OT    -0.834000       15.9994           0
   13767 WT1  4933 TIP3 H1   HT     0.417000        1.0080           0
   13768 WT1  4933 TIP3 H2   HT     0.417000        1.0080           0
   13769 WT1  4934 TIP3 OH2  OT    -0.834000       15.9994           0
   13770 WT1  4934 TIP3 H1   HT     0.417000        1.0080           0
   13771 WT1  4934 TIP3 H2   HT     0.417000        1.0080           0
   13772 WT1  4935 TIP3 OH2  OT    -0.834000       15.9994           0
   13773 WT1  4935 TIP3 H1   HT     0.417000        1.0080           0
   13774 WT1  4935 TIP3 H2   HT     0.417000        1.0080           0
   13775 WT1  4936 TIP3 OH2  OT    -0.834000       15.9994           0
   13776 WT1  4936 TIP3 H1   HT     0.417000        1.0080           0
   13777 WT1  4936 TIP3 H2   HT     0.417000        1.0080           0
   13778 WT1  4937 TIP3 OH2  OT    -0.834000       15.9994           0
   13779 WT1  4937 TIP3 H1   HT     0.417000        1.0080           0
   13780 WT1  4937 TIP3 H2   HT     0.417000        1.0080           0
   13781 WT1  4938 TIP3 OH2  OT    -0.834000       15.9994           0
   13782 WT1  4938 TIP3 H1   HT     0.417000        1.0080           0
   13783 WT1  4938 TIP3 H2   HT     0.417000        1.0080           0
   13784 WT1  4939 TIP3 OH2  OT    -0.834000       15.9994           0
   13785 WT1  4939 TIP3 H1   HT     0.417000        1.0080           0
   13786 WT1  4939 TIP3 H2   HT     0.417000        1.0080           0
   13787 WT1  4940 TIP3 OH2  OT    -0.834000       15.9994           0
   13788 WT1  4940 TIP3 H1   HT     0.417000        1.0080           0
   13789 WT1  4940 TIP3 H2   HT     0.417000        1.0080           0
   13790 WT1  4941 TIP3 OH2  OT    -0.834000       15.9994           0
   13791 WT1  4941 TIP3 H1   HT     0.417000        1.0080           0
   13792 WT1  4941 TIP3 H2   HT     0.417000        1.0080           0
   13793 WT1  4942 TIP3 OH2  OT    -0.834000       15.9994           0
   13794 WT1  4942 TIP3 H1   HT     0.417000        1.0080           0
   13795 WT1  4942 TIP3 H2   HT     0.417000        1.0080           0
   13796 WT1  4943 TIP3 OH2  OT    -0.834000       15.9994           0
   13797 WT1  4943 TIP3 H1   HT     0.417000        1.0080           0
   13798 WT1  4943 TIP3 H2   HT     0.417000        1.0080           0
   13799 WT1  4944 TIP3 OH2  OT    -0.834000       15.9994           0
   13800 WT1  4944 TIP3 H1   HT     0.417000        1.0080           0
   13801 WT1  4944 TIP3 H2   HT     0.417000        1.0080           0
   13802 WT1  4945 TIP3 OH2  OT    -0.834000       15.9994           0
   13803 WT1  4945 TIP3 H1   HT     0.417000        1.0080           0
   13804 WT1  4945 TIP3 H2   HT     0.417000        1.0080           0
   13805 WT1  4946 TIP3 OH2  OT    -0.834000       15.9994           0
   13806 WT1  4946 TIP3 H1   HT     0.417000        1.0080           0
   13807 WT1  4946 TIP3 H2   HT     0.417000        1.0080           0
   13808 WT1  4947 TIP3 OH2  OT    -0.834000       15.9994           0
   13809 WT1  4947 TIP3 H1   HT     0.417000        1.0080           0
   13810 WT1  4947 TIP3 H2   HT     0.417000        1.0080           0
   13811 WT1  4948 TIP3 OH2  OT    -0.834000       15.9994           0
   13812 WT1  4948 TIP3 H1   HT     0.417000        1.0080           0
   13813 WT1  4948 TIP3 H2   HT     0.417000        1.0080           0
   13814 WT1  4949 TIP3 OH2  OT    -0.834000       15.9994           0
   13815 WT1  4949 TIP3 H1   HT     0.417000        1.0080           0
   13816 WT1  4949 TIP3 H2   HT     0.417000        1.0080           0
   13817 WT1  4950 TIP3 OH2  OT    -0.834000       15.9994           0
   13818 WT1  4950 TIP3 H1   HT     0.417000        1.0080           0
   13819 WT1  4950 TIP3 H2   HT     0.417000        1.0080           0
   13820 WT1  4951 TIP3 OH2  OT    -0.834000       15.9994           0
   13821 WT1  4951 TIP3 H1   HT     0.417000        1.0080           0
   13822 WT1  4951 TIP3 H2   HT     0.417000        1.0080           0
   13823 WT1  4952 TIP3 OH2  OT    -0.834000       15.9994           0
   13824 WT1  4952 TIP3 H1   HT     0.417000        1.0080           0
   13825 WT1  4952 TIP3 H2   HT     0.417000        1.0080           0
   13826 WT1  4953 TIP3 OH2  OT    -0.834000       15.9994           0
   13827 WT1  4953 TIP3 H1   HT     0.417000        1.0080           0
   13828 WT1  4953 TIP3 H2   HT     0.417000        1.0080           0
   13829 WT1  4954 TIP3 OH2  OT    -0.834000       15.9994           0
   13830 WT1  4954 TIP3 H1   HT     0.417000        1.0080           0
   13831 WT1  4954 TIP3 H2   HT     0.417000        1.0080           0
   13832 WT1  4955 TIP3 OH2  OT    -0.834000       15.9994           0
   13833 WT1  4955 TIP3 H1   HT     0.417000        1.0080           0
   13834 WT1  4955 TIP3 H2   HT     0.417000        1.0080           0
   13835 WT1  4956 TIP3 OH2  OT    -0.834000       15.9994           0
   13836 WT1  4956 TIP3 H1   HT     0.417000        1.0080           0
   13837 WT1  4956 TIP3 H2   HT     0.417000        1.0080           0
   13838 WT1  4957 TIP3 OH2  OT    -0.834000       15.9994           0
   13839 WT1  4957 TIP3 H1   HT     0.417000        1.0080           0
   13840 WT1  4957 TIP3 H2   HT     0.417000        1.0080           0
   13841 WT1  4959 TIP3 OH2  OT    -0.834000       15.9994           0
   13842 WT1  4959 TIP3 H1   HT     0.417000        1.0080           0
   13843 WT1  4959 TIP3 H2   HT     0.417000        1.0080           0
   13844 WT1  4960 TIP3 OH2  OT    -0.834000       15.9994           0
   13845 WT1  4960 TIP3 H1   HT     0.417000        1.0080           0
   13846 WT1  4960 TIP3 H2   HT     0.417000        1.0080           0
   13847 WT1  4961 TIP3 OH2  OT    -0.834000       15.9994           0
   13848 WT1  4961 TIP3 H1   HT     0.417000        1.0080           0
   13849 WT1  4961 TIP3 H2   HT     0.417000        1.0080           0
   13850 WT1  4962 TIP3 OH2  OT    -0.834000       15.9994           0
   13851 WT1  4962 TIP3 H1   HT     0.417000        1.0080           0
   13852 WT1  4962 TIP3 H2   HT     0.417000        1.0080           0
   13853 WT1  4963 TIP3 OH2  OT    -0.834000       15.9994           0
   13854 WT1  4963 TIP3 H1   HT     0.417000        1.0080           0
   13855 WT1  4963 TIP3 H2   HT     0.417000        1.0080           0
   13856 WT1  4964 TIP3 OH2  OT    -0.834000       15.9994           0
   13857 WT1  4964 TIP3 H1   HT     0.417000        1.0080           0
   13858 WT1  4964 TIP3 H2   HT     0.417000        1.0080           0
   13859 WT1  4965 TIP3 OH2  OT    -0.834000       15.9994           0
   13860 WT1  4965 TIP3 H1   HT     0.417000        1.0080           0
   13861 WT1  4965 TIP3 H2   HT     0.417000        1.0080           0
   13862 WT1  4966 TIP3 OH2  OT    -0.834000       15.9994           0
   13863 WT1  4966 TIP3 H1   HT     0.417000        1.0080           0
   13864 WT1  4966 TIP3 H2   HT     0.417000        1.0080           0
   13865 WT1  4968 TIP3 OH2  OT    -0.834000       15.9994           0
   13866 WT1  4968 TIP3 H1   HT     0.417000        1.0080           0
   13867 WT1  4968 TIP3 H2   HT     0.417000        1.0080           0
   13868 WT1  4970 TIP3 OH2  OT    -0.834000       15.9994           0
   13869 WT1  4970 TIP3 H1   HT     0.417000        1.0080           0
   13870 WT1  4970 TIP3 H2   HT     0.417000        1.0080           0
   13871 WT1  4971 TIP3 OH2  OT    -0.834000       15.9994           0
   13872 WT1  4971 TIP3 H1   HT     0.417000        1.0080           0
   13873 WT1  4971 TIP3 H2   HT     0.417000        1.0080           0
   13874 WT1  4972 TIP3 OH2  OT    -0.834000       15.9994           0
   13875 WT1  4972 TIP3 H1   HT     0.417000        1.0080           0
   13876 WT1  4972 TIP3 H2   HT     0.417000        1.0080           0
   13877 WT1  4973 TIP3 OH2  OT    -0.834000       15.9994           0
   13878 WT1  4973 TIP3 H1   HT     0.417000        1.0080           0
   13879 WT1  4973 TIP3 H2   HT     0.417000        1.0080           0
   13880 WT1  4974 TIP3 OH2  OT    -0.834000       15.9994           0
   13881 WT1  4974 TIP3 H1   HT     0.417000        1.0080           0
   13882 WT1  4974 TIP3 H2   HT     0.417000        1.0080           0
   13883 WT1  4975 TIP3 OH2  OT    -0.834000       15.9994           0
   13884 WT1  4975 TIP3 H1   HT     0.417000        1.0080           0
   13885 WT1  4975 TIP3 H2   HT     0.417000        1.0080           0
   13886 WT1  4976 TIP3 OH2  OT    -0.834000       15.9994           0
   13887 WT1  4976 TIP3 H1   HT     0.417000        1.0080           0
   13888 WT1  4976 TIP3 H2   HT     0.417000        1.0080           0
   13889 WT1  4977 TIP3 OH2  OT    -0.834000       15.9994           0
   13890 WT1  4977 TIP3 H1   HT     0.417000        1.0080           0
   13891 WT1  4977 TIP3 H2   HT     0.417000        1.0080           0
   13892 WT1  4978 TIP3 OH2  OT    -0.834000       15.9994           0
   13893 WT1  4978 TIP3 H1   HT     0.417000        1.0080           0
   13894 WT1  4978 TIP3 H2   HT     0.417000        1.0080           0
   13895 WT1  4979 TIP3 OH2  OT    -0.834000       15.9994           0
   13896 WT1  4979 TIP3 H1   HT     0.417000        1.0080           0
   13897 WT1  4979 TIP3 H2   HT     0.417000        1.0080           0
   13898 WT1  4980 TIP3 OH2  OT    -0.834000       15.9994           0
   13899 WT1  4980 TIP3 H1   HT     0.417000        1.0080           0
   13900 WT1  4980 TIP3 H2   HT     0.417000        1.0080           0
   13901 WT1  4981 TIP3 OH2  OT    -0.834000       15.9994           0
   13902 WT1  4981 TIP3 H1   HT     0.417000        1.0080           0
   13903 WT1  4981 TIP3 H2   HT     0.417000        1.0080           0
   13904 WT1  4982 TIP3 OH2  OT    -0.834000       15.9994           0
   13905 WT1  4982 TIP3 H1   HT     0.417000        1.0080           0
   13906 WT1  4982 TIP3 H2   HT     0.417000        1.0080           0
   13907 WT1  4983 TIP3 OH2  OT    -0.834000       15.9994           0
   13908 WT1  4983 TIP3 H1   HT     0.417000        1.0080           0
   13909 WT1  4983 TIP3 H2   HT     0.417000        1.0080           0
   13910 WT1  4984 TIP3 OH2  OT    -0.834000       15.9994           0
   13911 WT1  4984 TIP3 H1   HT     0.417000        1.0080           0
   13912 WT1  4984 TIP3 H2   HT     0.417000        1.0080           0
   13913 WT1  4985 TIP3 OH2  OT    -0.834000       15.9994           0
   13914 WT1  4985 TIP3 H1   HT     0.417000        1.0080           0
   13915 WT1  4985 TIP3 H2   HT     0.417000        1.0080           0
   13916 WT1  4986 TIP3 OH2  OT    -0.834000       15.9994           0
   13917 WT1  4986 TIP3 H1   HT     0.417000        1.0080           0
   13918 WT1  4986 TIP3 H2   HT     0.417000        1.0080           0
   13919 WT1  4987 TIP3 OH2  OT    -0.834000       15.9994           0
   13920 WT1  4987 TIP3 H1   HT     0.417000        1.0080           0
   13921 WT1  4987 TIP3 H2   HT     0.417000        1.0080           0
   13922 WT1  4989 TIP3 OH2  OT    -0.834000       15.9994           0
   13923 WT1  4989 TIP3 H1   HT     0.417000        1.0080           0
   13924 WT1  4989 TIP3 H2   HT     0.417000        1.0080           0
   13925 WT1  4990 TIP3 OH2  OT    -0.834000       15.9994           0
   13926 WT1  4990 TIP3 H1   HT     0.417000        1.0080           0
   13927 WT1  4990 TIP3 H2   HT     0.417000        1.0080           0
   13928 WT1  4991 TIP3 OH2  OT    -0.834000       15.9994           0
   13929 WT1  4991 TIP3 H1   HT     0.417000        1.0080           0
   13930 WT1  4991 TIP3 H2   HT     0.417000        1.0080           0
   13931 WT1  4992 TIP3 OH2  OT    -0.834000       15.9994           0
   13932 WT1  4992 TIP3 H1   HT     0.417000        1.0080           0
   13933 WT1  4992 TIP3 H2   HT     0.417000        1.0080           0
   13934 WT1  4993 TIP3 OH2  OT    -0.834000       15.9994           0
   13935 WT1  4993 TIP3 H1   HT     0.417000        1.0080           0
   13936 WT1  4993 TIP3 H2   HT     0.417000        1.0080           0
   13937 WT1  4994 TIP3 OH2  OT    -0.834000       15.9994           0
   13938 WT1  4994 TIP3 H1   HT     0.417000        1.0080           0
   13939 WT1  4994 TIP3 H2   HT     0.417000        1.0080           0
   13940 WT1  4995 TIP3 OH2  OT    -0.834000       15.9994           0
   13941 WT1  4995 TIP3 H1   HT     0.417000        1.0080           0
   13942 WT1  4995 TIP3 H2   HT     0.417000        1.0080           0
   13943 WT1  4996 TIP3 OH2  OT    -0.834000       15.9994           0
   13944 WT1  4996 TIP3 H1   HT     0.417000        1.0080           0
   13945 WT1  4996 TIP3 H2   HT     0.417000        1.0080           0
   13946 WT1  4997 TIP3 OH2  OT    -0.834000       15.9994           0
   13947 WT1  4997 TIP3 H1   HT     0.417000        1.0080           0
   13948 WT1  4997 TIP3 H2   HT     0.417000        1.0080           0
   13949 WT1  4998 TIP3 OH2  OT    -0.834000       15.9994           0
   13950 WT1  4998 TIP3 H1   HT     0.417000        1.0080           0
   13951 WT1  4998 TIP3 H2   HT     0.417000        1.0080           0
   13952 WT1  4999 TIP3 OH2  OT    -0.834000       15.9994           0
   13953 WT1  4999 TIP3 H1   HT     0.417000        1.0080           0
   13954 WT1  4999 TIP3 H2   HT     0.417000        1.0080           0
   13955 WT1  5000 TIP3 OH2  OT    -0.834000       15.9994           0
   13956 WT1  5000 TIP3 H1   HT     0.417000        1.0080           0
   13957 WT1  5000 TIP3 H2   HT     0.417000        1.0080           0
   13958 WT1  5001 TIP3 OH2  OT    -0.834000       15.9994           0
   13959 WT1  5001 TIP3 H1   HT     0.417000        1.0080           0
   13960 WT1  5001 TIP3 H2   HT     0.417000        1.0080           0
   13961 WT1  5002 TIP3 OH2  OT    -0.834000       15.9994           0
   13962 WT1  5002 TIP3 H1   HT     0.417000        1.0080           0
   13963 WT1  5002 TIP3 H2   HT     0.417000        1.0080           0
   13964 WT1  5003 TIP3 OH2  OT    -0.834000       15.9994           0
   13965 WT1  5003 TIP3 H1   HT     0.417000        1.0080           0
   13966 WT1  5003 TIP3 H2   HT     0.417000        1.0080           0
   13967 WT1  5004 TIP3 OH2  OT    -0.834000       15.9994           0
   13968 WT1  5004 TIP3 H1   HT     0.417000        1.0080           0
   13969 WT1  5004 TIP3 H2   HT     0.417000        1.0080           0
   13970 WT1  5005 TIP3 OH2  OT    -0.834000       15.9994           0
   13971 WT1  5005 TIP3 H1   HT     0.417000        1.0080           0
   13972 WT1  5005 TIP3 H2   HT     0.417000        1.0080           0
   13973 WT1  5006 TIP3 OH2  OT    -0.834000       15.9994           0
   13974 WT1  5006 TIP3 H1   HT     0.417000        1.0080           0
   13975 WT1  5006 TIP3 H2   HT     0.417000        1.0080           0
   13976 WT1  5008 TIP3 OH2  OT    -0.834000       15.9994           0
   13977 WT1  5008 TIP3 H1   HT     0.417000        1.0080           0
   13978 WT1  5008 TIP3 H2   HT     0.417000        1.0080           0
   13979 WT1  5009 TIP3 OH2  OT    -0.834000       15.9994           0
   13980 WT1  5009 TIP3 H1   HT     0.417000        1.0080           0
   13981 WT1  5009 TIP3 H2   HT     0.417000        1.0080           0
   13982 WT1  5010 TIP3 OH2  OT    -0.834000       15.9994           0
   13983 WT1  5010 TIP3 H1   HT     0.417000        1.0080           0
   13984 WT1  5010 TIP3 H2   HT     0.417000        1.0080           0
   13985 WT1  5012 TIP3 OH2  OT    -0.834000       15.9994           0
   13986 WT1  5012 TIP3 H1   HT     0.417000        1.0080           0
   13987 WT1  5012 TIP3 H2   HT     0.417000        1.0080           0
   13988 WT1  5013 TIP3 OH2  OT    -0.834000       15.9994           0
   13989 WT1  5013 TIP3 H1   HT     0.417000        1.0080           0
   13990 WT1  5013 TIP3 H2   HT     0.417000        1.0080           0
   13991 WT1  5014 TIP3 OH2  OT    -0.834000       15.9994           0
   13992 WT1  5014 TIP3 H1   HT     0.417000        1.0080           0
   13993 WT1  5014 TIP3 H2   HT     0.417000        1.0080           0
   13994 WT1  5015 TIP3 OH2  OT    -0.834000       15.9994           0
   13995 WT1  5015 TIP3 H1   HT     0.417000        1.0080           0
   13996 WT1  5015 TIP3 H2   HT     0.417000        1.0080           0
   13997 WT1  5016 TIP3 OH2  OT    -0.834000       15.9994           0
   13998 WT1  5016 TIP3 H1   HT     0.417000        1.0080           0
   13999 WT1  5016 TIP3 H2   HT     0.417000        1.0080           0
   14000 WT1  5017 TIP3 OH2  OT    -0.834000       15.9994           0
   14001 WT1  5017 TIP3 H1   HT     0.417000        1.0080           0
   14002 WT1  5017 TIP3 H2   HT     0.417000        1.0080           0
   14003 WT1  5018 TIP3 OH2  OT    -0.834000       15.9994           0
   14004 WT1  5018 TIP3 H1   HT     0.417000        1.0080           0
   14005 WT1  5018 TIP3 H2   HT     0.417000        1.0080           0
   14006 WT1  5019 TIP3 OH2  OT    -0.834000       15.9994           0
   14007 WT1  5019 TIP3 H1   HT     0.417000        1.0080           0
   14008 WT1  5019 TIP3 H2   HT     0.417000        1.0080           0
   14009 WT1  5021 TIP3 OH2  OT    -0.834000       15.9994           0
   14010 WT1  5021 TIP3 H1   HT     0.417000        1.0080           0
   14011 WT1  5021 TIP3 H2   HT     0.417000        1.0080           0
   14012 WT1  5022 TIP3 OH2  OT    -0.834000       15.9994           0
   14013 WT1  5022 TIP3 H1   HT     0.417000        1.0080           0
   14014 WT1  5022 TIP3 H2   HT     0.417000        1.0080           0
   14015 WT1  5023 TIP3 OH2  OT    -0.834000       15.9994           0
   14016 WT1  5023 TIP3 H1   HT     0.417000        1.0080           0
   14017 WT1  5023 TIP3 H2   HT     0.417000        1.0080           0
   14018 WT1  5024 TIP3 OH2  OT    -0.834000       15.9994           0
   14019 WT1  5024 TIP3 H1   HT     0.417000        1.0080           0
   14020 WT1  5024 TIP3 H2   HT     0.417000        1.0080           0
   14021 WT1  5025 TIP3 OH2  OT    -0.834000       15.9994           0
   14022 WT1  5025 TIP3 H1   HT     0.417000        1.0080           0
   14023 WT1  5025 TIP3 H2   HT     0.417000        1.0080           0
   14024 WT1  5029 TIP3 OH2  OT    -0.834000       15.9994           0
   14025 WT1  5029 TIP3 H1   HT     0.417000        1.0080           0
   14026 WT1  5029 TIP3 H2   HT     0.417000        1.0080           0
   14027 WT1  5032 TIP3 OH2  OT    -0.834000       15.9994           0
   14028 WT1  5032 TIP3 H1   HT     0.417000        1.0080           0
   14029 WT1  5032 TIP3 H2   HT     0.417000        1.0080           0
   14030 WT1  5034 TIP3 OH2  OT    -0.834000       15.9994           0
   14031 WT1  5034 TIP3 H1   HT     0.417000        1.0080           0
   14032 WT1  5034 TIP3 H2   HT     0.417000        1.0080           0
   14033 WT1  5036 TIP3 OH2  OT    -0.834000       15.9994           0
   14034 WT1  5036 TIP3 H1   HT     0.417000        1.0080           0
   14035 WT1  5036 TIP3 H2   HT     0.417000        1.0080           0
   14036 WT1  5037 TIP3 OH2  OT    -0.834000       15.9994           0
   14037 WT1  5037 TIP3 H1   HT     0.417000        1.0080           0
   14038 WT1  5037 TIP3 H2   HT     0.417000        1.0080           0
   14039 WT1  5038 TIP3 OH2  OT    -0.834000       15.9994           0
   14040 WT1  5038 TIP3 H1   HT     0.417000        1.0080           0
   14041 WT1  5038 TIP3 H2   HT     0.417000        1.0080           0
   14042 WT1  5040 TIP3 OH2  OT    -0.834000       15.9994           0
   14043 WT1  5040 TIP3 H1   HT     0.417000        1.0080           0
   14044 WT1  5040 TIP3 H2   HT     0.417000        1.0080           0
   14045 WT1  5041 TIP3 OH2  OT    -0.834000       15.9994           0
   14046 WT1  5041 TIP3 H1   HT     0.417000        1.0080           0
   14047 WT1  5041 TIP3 H2   HT     0.417000        1.0080           0
   14048 WT1  5043 TIP3 OH2  OT    -0.834000       15.9994           0
   14049 WT1  5043 TIP3 H1   HT     0.417000        1.0080           0
   14050 WT1  5043 TIP3 H2   HT     0.417000        1.0080           0
   14051 WT1  5044 TIP3 OH2  OT    -0.834000       15.9994           0
   14052 WT1  5044 TIP3 H1   HT     0.417000        1.0080           0
   14053 WT1  5044 TIP3 H2   HT     0.417000        1.0080           0
   14054 WT1  5045 TIP3 OH2  OT    -0.834000       15.9994           0
   14055 WT1  5045 TIP3 H1   HT     0.417000        1.0080           0
   14056 WT1  5045 TIP3 H2   HT     0.417000        1.0080           0
   14057 WT1  5046 TIP3 OH2  OT    -0.834000       15.9994           0
   14058 WT1  5046 TIP3 H1   HT     0.417000        1.0080           0
   14059 WT1  5046 TIP3 H2   HT     0.417000        1.0080           0
   14060 WT1  5047 TIP3 OH2  OT    -0.834000       15.9994           0
   14061 WT1  5047 TIP3 H1   HT     0.417000        1.0080           0
   14062 WT1  5047 TIP3 H2   HT     0.417000        1.0080           0
   14063 WT1  5048 TIP3 OH2  OT    -0.834000       15.9994           0
   14064 WT1  5048 TIP3 H1   HT     0.417000        1.0080           0
   14065 WT1  5048 TIP3 H2   HT     0.417000        1.0080           0
   14066 WT1  5049 TIP3 OH2  OT    -0.834000       15.9994           0
   14067 WT1  5049 TIP3 H1   HT     0.417000        1.0080           0
   14068 WT1  5049 TIP3 H2   HT     0.417000        1.0080           0
   14069 WT1  5051 TIP3 OH2  OT    -0.834000       15.9994           0
   14070 WT1  5051 TIP3 H1   HT     0.417000        1.0080           0
   14071 WT1  5051 TIP3 H2   HT     0.417000        1.0080           0
   14072 WT1  5052 TIP3 OH2  OT    -0.834000       15.9994           0
   14073 WT1  5052 TIP3 H1   HT     0.417000        1.0080           0
   14074 WT1  5052 TIP3 H2   HT     0.417000        1.0080           0
   14075 WT1  5053 TIP3 OH2  OT    -0.834000       15.9994           0
   14076 WT1  5053 TIP3 H1   HT     0.417000        1.0080           0
   14077 WT1  5053 TIP3 H2   HT     0.417000        1.0080           0
   14078 WT1  5055 TIP3 OH2  OT    -0.834000       15.9994           0
   14079 WT1  5055 TIP3 H1   HT     0.417000        1.0080           0
   14080 WT1  5055 TIP3 H2   HT     0.417000        1.0080           0
   14081 WT1  5056 TIP3 OH2  OT    -0.834000       15.9994           0
   14082 WT1  5056 TIP3 H1   HT     0.417000        1.0080           0
   14083 WT1  5056 TIP3 H2   HT     0.417000        1.0080           0
   14084 WT1  5058 TIP3 OH2  OT    -0.834000       15.9994           0
   14085 WT1  5058 TIP3 H1   HT     0.417000        1.0080           0
   14086 WT1  5058 TIP3 H2   HT     0.417000        1.0080           0
   14087 WT1  5059 TIP3 OH2  OT    -0.834000       15.9994           0
   14088 WT1  5059 TIP3 H1   HT     0.417000        1.0080           0
   14089 WT1  5059 TIP3 H2   HT     0.417000        1.0080           0
   14090 WT1  5060 TIP3 OH2  OT    -0.834000       15.9994           0
   14091 WT1  5060 TIP3 H1   HT     0.417000        1.0080           0
   14092 WT1  5060 TIP3 H2   HT     0.417000        1.0080           0
   14093 WT1  5062 TIP3 OH2  OT    -0.834000       15.9994           0
   14094 WT1  5062 TIP3 H1   HT     0.417000        1.0080           0
   14095 WT1  5062 TIP3 H2   HT     0.417000        1.0080           0
   14096 WT1  5063 TIP3 OH2  OT    -0.834000       15.9994           0
   14097 WT1  5063 TIP3 H1   HT     0.417000        1.0080           0
   14098 WT1  5063 TIP3 H2   HT     0.417000        1.0080           0
   14099 WT1  5064 TIP3 OH2  OT    -0.834000       15.9994           0
   14100 WT1  5064 TIP3 H1   HT     0.417000        1.0080           0
   14101 WT1  5064 TIP3 H2   HT     0.417000        1.0080           0
   14102 WT1  5065 TIP3 OH2  OT    -0.834000       15.9994           0
   14103 WT1  5065 TIP3 H1   HT     0.417000        1.0080           0
   14104 WT1  5065 TIP3 H2   HT     0.417000        1.0080           0
   14105 WT1  5066 TIP3 OH2  OT    -0.834000       15.9994           0
   14106 WT1  5066 TIP3 H1   HT     0.417000        1.0080           0
   14107 WT1  5066 TIP3 H2   HT     0.417000        1.0080           0
   14108 WT1  5067 TIP3 OH2  OT    -0.834000       15.9994           0
   14109 WT1  5067 TIP3 H1   HT     0.417000        1.0080           0
   14110 WT1  5067 TIP3 H2   HT     0.417000        1.0080           0
   14111 WT1  5068 TIP3 OH2  OT    -0.834000       15.9994           0
   14112 WT1  5068 TIP3 H1   HT     0.417000        1.0080           0
   14113 WT1  5068 TIP3 H2   HT     0.417000        1.0080           0
   14114 WT1  5069 TIP3 OH2  OT    -0.834000       15.9994           0
   14115 WT1  5069 TIP3 H1   HT     0.417000        1.0080           0
   14116 WT1  5069 TIP3 H2   HT     0.417000        1.0080           0
   14117 WT1  5071 TIP3 OH2  OT    -0.834000       15.9994           0
   14118 WT1  5071 TIP3 H1   HT     0.417000        1.0080           0
   14119 WT1  5071 TIP3 H2   HT     0.417000        1.0080           0
   14120 WT1  5072 TIP3 OH2  OT    -0.834000       15.9994           0
   14121 WT1  5072 TIP3 H1   HT     0.417000        1.0080           0
   14122 WT1  5072 TIP3 H2   HT     0.417000        1.0080           0
   14123 WT1  5073 TIP3 OH2  OT    -0.834000       15.9994           0
   14124 WT1  5073 TIP3 H1   HT     0.417000        1.0080           0
   14125 WT1  5073 TIP3 H2   HT     0.417000        1.0080           0
   14126 WT1  5074 TIP3 OH2  OT    -0.834000       15.9994           0
   14127 WT1  5074 TIP3 H1   HT     0.417000        1.0080           0
   14128 WT1  5074 TIP3 H2   HT     0.417000        1.0080           0
   14129 WT1  5076 TIP3 OH2  OT    -0.834000       15.9994           0
   14130 WT1  5076 TIP3 H1   HT     0.417000        1.0080           0
   14131 WT1  5076 TIP3 H2   HT     0.417000        1.0080           0
   14132 WT1  5077 TIP3 OH2  OT    -0.834000       15.9994           0
   14133 WT1  5077 TIP3 H1   HT     0.417000        1.0080           0
   14134 WT1  5077 TIP3 H2   HT     0.417000        1.0080           0
   14135 WT1  5078 TIP3 OH2  OT    -0.834000       15.9994           0
   14136 WT1  5078 TIP3 H1   HT     0.417000        1.0080           0
   14137 WT1  5078 TIP3 H2   HT     0.417000        1.0080           0
   14138 WT1  5079 TIP3 OH2  OT    -0.834000       15.9994           0
   14139 WT1  5079 TIP3 H1   HT     0.417000        1.0080           0
   14140 WT1  5079 TIP3 H2   HT     0.417000        1.0080           0
   14141 WT1  5080 TIP3 OH2  OT    -0.834000       15.9994           0
   14142 WT1  5080 TIP3 H1   HT     0.417000        1.0080           0
   14143 WT1  5080 TIP3 H2   HT     0.417000        1.0080           0
   14144 WT1  5081 TIP3 OH2  OT    -0.834000       15.9994           0
   14145 WT1  5081 TIP3 H1   HT     0.417000        1.0080           0
   14146 WT1  5081 TIP3 H2   HT     0.417000        1.0080           0
   14147 WT1  5083 TIP3 OH2  OT    -0.834000       15.9994           0
   14148 WT1  5083 TIP3 H1   HT     0.417000        1.0080           0
   14149 WT1  5083 TIP3 H2   HT     0.417000        1.0080           0
   14150 WT1  5084 TIP3 OH2  OT    -0.834000       15.9994           0
   14151 WT1  5084 TIP3 H1   HT     0.417000        1.0080           0
   14152 WT1  5084 TIP3 H2   HT     0.417000        1.0080           0
   14153 WT1  5086 TIP3 OH2  OT    -0.834000       15.9994           0
   14154 WT1  5086 TIP3 H1   HT     0.417000        1.0080           0
   14155 WT1  5086 TIP3 H2   HT     0.417000        1.0080           0
   14156 WT1  5087 TIP3 OH2  OT    -0.834000       15.9994           0
   14157 WT1  5087 TIP3 H1   HT     0.417000        1.0080           0
   14158 WT1  5087 TIP3 H2   HT     0.417000        1.0080           0
   14159 WT1  5089 TIP3 OH2  OT    -0.834000       15.9994           0
   14160 WT1  5089 TIP3 H1   HT     0.417000        1.0080           0
   14161 WT1  5089 TIP3 H2   HT     0.417000        1.0080           0
   14162 WT1  5090 TIP3 OH2  OT    -0.834000       15.9994           0
   14163 WT1  5090 TIP3 H1   HT     0.417000        1.0080           0
   14164 WT1  5090 TIP3 H2   HT     0.417000        1.0080           0
   14165 WT1  5091 TIP3 OH2  OT    -0.834000       15.9994           0
   14166 WT1  5091 TIP3 H1   HT     0.417000        1.0080           0
   14167 WT1  5091 TIP3 H2   HT     0.417000        1.0080           0
   14168 WT1  5094 TIP3 OH2  OT    -0.834000       15.9994           0
   14169 WT1  5094 TIP3 H1   HT     0.417000        1.0080           0
   14170 WT1  5094 TIP3 H2   HT     0.417000        1.0080           0
   14171 WT1  5095 TIP3 OH2  OT    -0.834000       15.9994           0
   14172 WT1  5095 TIP3 H1   HT     0.417000        1.0080           0
   14173 WT1  5095 TIP3 H2   HT     0.417000        1.0080           0
   14174 WT1  5096 TIP3 OH2  OT    -0.834000       15.9994           0
   14175 WT1  5096 TIP3 H1   HT     0.417000        1.0080           0
   14176 WT1  5096 TIP3 H2   HT     0.417000        1.0080           0
   14177 WT1  5097 TIP3 OH2  OT    -0.834000       15.9994           0
   14178 WT1  5097 TIP3 H1   HT     0.417000        1.0080           0
   14179 WT1  5097 TIP3 H2   HT     0.417000        1.0080           0
   14180 WT1  5098 TIP3 OH2  OT    -0.834000       15.9994           0
   14181 WT1  5098 TIP3 H1   HT     0.417000        1.0080           0
   14182 WT1  5098 TIP3 H2   HT     0.417000        1.0080           0
   14183 WT1  5101 TIP3 OH2  OT    -0.834000       15.9994           0
   14184 WT1  5101 TIP3 H1   HT     0.417000        1.0080           0
   14185 WT1  5101 TIP3 H2   HT     0.417000        1.0080           0
   14186 WT1  5105 TIP3 OH2  OT    -0.834000       15.9994           0
   14187 WT1  5105 TIP3 H1   HT     0.417000        1.0080           0
   14188 WT1  5105 TIP3 H2   HT     0.417000        1.0080           0
   14189 WT1  5106 TIP3 OH2  OT    -0.834000       15.9994           0
   14190 WT1  5106 TIP3 H1   HT     0.417000        1.0080           0
   14191 WT1  5106 TIP3 H2   HT     0.417000        1.0080           0
   14192 WT1  5107 TIP3 OH2  OT    -0.834000       15.9994           0
   14193 WT1  5107 TIP3 H1   HT     0.417000        1.0080           0
   14194 WT1  5107 TIP3 H2   HT     0.417000        1.0080           0
   14195 WT1  5108 TIP3 OH2  OT    -0.834000       15.9994           0
   14196 WT1  5108 TIP3 H1   HT     0.417000        1.0080           0
   14197 WT1  5108 TIP3 H2   HT     0.417000        1.0080           0
   14198 WT1  5109 TIP3 OH2  OT    -0.834000       15.9994           0
   14199 WT1  5109 TIP3 H1   HT     0.417000        1.0080           0
   14200 WT1  5109 TIP3 H2   HT     0.417000        1.0080           0
   14201 WT1  5110 TIP3 OH2  OT    -0.834000       15.9994           0
   14202 WT1  5110 TIP3 H1   HT     0.417000        1.0080           0
   14203 WT1  5110 TIP3 H2   HT     0.417000        1.0080           0
   14204 WT1  5111 TIP3 OH2  OT    -0.834000       15.9994           0
   14205 WT1  5111 TIP3 H1   HT     0.417000        1.0080           0
   14206 WT1  5111 TIP3 H2   HT     0.417000        1.0080           0
   14207 WT1  5112 TIP3 OH2  OT    -0.834000       15.9994           0
   14208 WT1  5112 TIP3 H1   HT     0.417000        1.0080           0
   14209 WT1  5112 TIP3 H2   HT     0.417000        1.0080           0
   14210 WT1  5113 TIP3 OH2  OT    -0.834000       15.9994           0
   14211 WT1  5113 TIP3 H1   HT     0.417000        1.0080           0
   14212 WT1  5113 TIP3 H2   HT     0.417000        1.0080           0
   14213 WT1  5114 TIP3 OH2  OT    -0.834000       15.9994           0
   14214 WT1  5114 TIP3 H1   HT     0.417000        1.0080           0
   14215 WT1  5114 TIP3 H2   HT     0.417000        1.0080           0
   14216 WT1  5116 TIP3 OH2  OT    -0.834000       15.9994           0
   14217 WT1  5116 TIP3 H1   HT     0.417000        1.0080           0
   14218 WT1  5116 TIP3 H2   HT     0.417000        1.0080           0
   14219 WT1  5119 TIP3 OH2  OT    -0.834000       15.9994           0
   14220 WT1  5119 TIP3 H1   HT     0.417000        1.0080           0
   14221 WT1  5119 TIP3 H2   HT     0.417000        1.0080           0
   14222 WT1  5122 TIP3 OH2  OT    -0.834000       15.9994           0
   14223 WT1  5122 TIP3 H1   HT     0.417000        1.0080           0
   14224 WT1  5122 TIP3 H2   HT     0.417000        1.0080           0
   14225 WT1  5124 TIP3 OH2  OT    -0.834000       15.9994           0
   14226 WT1  5124 TIP3 H1   HT     0.417000        1.0080           0
   14227 WT1  5124 TIP3 H2   HT     0.417000        1.0080           0
   14228 WT1  5126 TIP3 OH2  OT    -0.834000       15.9994           0
   14229 WT1  5126 TIP3 H1   HT     0.417000        1.0080           0
   14230 WT1  5126 TIP3 H2   HT     0.417000        1.0080           0
   14231 WT1  5127 TIP3 OH2  OT    -0.834000       15.9994           0
   14232 WT1  5127 TIP3 H1   HT     0.417000        1.0080           0
   14233 WT1  5127 TIP3 H2   HT     0.417000        1.0080           0
   14234 WT1  5129 TIP3 OH2  OT    -0.834000       15.9994           0
   14235 WT1  5129 TIP3 H1   HT     0.417000        1.0080           0
   14236 WT1  5129 TIP3 H2   HT     0.417000        1.0080           0
   14237 WT1  5130 TIP3 OH2  OT    -0.834000       15.9994           0
   14238 WT1  5130 TIP3 H1   HT     0.417000        1.0080           0
   14239 WT1  5130 TIP3 H2   HT     0.417000        1.0080           0
   14240 WT1  5131 TIP3 OH2  OT    -0.834000       15.9994           0
   14241 WT1  5131 TIP3 H1   HT     0.417000        1.0080           0
   14242 WT1  5131 TIP3 H2   HT     0.417000        1.0080           0
   14243 WT1  5132 TIP3 OH2  OT    -0.834000       15.9994           0
   14244 WT1  5132 TIP3 H1   HT     0.417000        1.0080           0
   14245 WT1  5132 TIP3 H2   HT     0.417000        1.0080           0
   14246 WT1  5133 TIP3 OH2  OT    -0.834000       15.9994           0
   14247 WT1  5133 TIP3 H1   HT     0.417000        1.0080           0
   14248 WT1  5133 TIP3 H2   HT     0.417000        1.0080           0
   14249 WT1  5134 TIP3 OH2  OT    -0.834000       15.9994           0
   14250 WT1  5134 TIP3 H1   HT     0.417000        1.0080           0
   14251 WT1  5134 TIP3 H2   HT     0.417000        1.0080           0
   14252 WT1  5135 TIP3 OH2  OT    -0.834000       15.9994           0
   14253 WT1  5135 TIP3 H1   HT     0.417000        1.0080           0
   14254 WT1  5135 TIP3 H2   HT     0.417000        1.0080           0
   14255 WT1  5137 TIP3 OH2  OT    -0.834000       15.9994           0
   14256 WT1  5137 TIP3 H1   HT     0.417000        1.0080           0
   14257 WT1  5137 TIP3 H2   HT     0.417000        1.0080           0
   14258 WT1  5138 TIP3 OH2  OT    -0.834000       15.9994           0
   14259 WT1  5138 TIP3 H1   HT     0.417000        1.0080           0
   14260 WT1  5138 TIP3 H2   HT     0.417000        1.0080           0
   14261 WT1  5139 TIP3 OH2  OT    -0.834000       15.9994           0
   14262 WT1  5139 TIP3 H1   HT     0.417000        1.0080           0
   14263 WT1  5139 TIP3 H2   HT     0.417000        1.0080           0
   14264 WT1  5141 TIP3 OH2  OT    -0.834000       15.9994           0
   14265 WT1  5141 TIP3 H1   HT     0.417000        1.0080           0
   14266 WT1  5141 TIP3 H2   HT     0.417000        1.0080           0
   14267 WT1  5142 TIP3 OH2  OT    -0.834000       15.9994           0
   14268 WT1  5142 TIP3 H1   HT     0.417000        1.0080           0
   14269 WT1  5142 TIP3 H2   HT     0.417000        1.0080           0
   14270 WT1  5143 TIP3 OH2  OT    -0.834000       15.9994           0
   14271 WT1  5143 TIP3 H1   HT     0.417000        1.0080           0
   14272 WT1  5143 TIP3 H2   HT     0.417000        1.0080           0
   14273 WT1  5144 TIP3 OH2  OT    -0.834000       15.9994           0
   14274 WT1  5144 TIP3 H1   HT     0.417000        1.0080           0
   14275 WT1  5144 TIP3 H2   HT     0.417000        1.0080           0
   14276 WT1  5145 TIP3 OH2  OT    -0.834000       15.9994           0
   14277 WT1  5145 TIP3 H1   HT     0.417000        1.0080           0
   14278 WT1  5145 TIP3 H2   HT     0.417000        1.0080           0
   14279 WT1  5147 TIP3 OH2  OT    -0.834000       15.9994           0
   14280 WT1  5147 TIP3 H1   HT     0.417000        1.0080           0
   14281 WT1  5147 TIP3 H2   HT     0.417000        1.0080           0
   14282 WT1  5148 TIP3 OH2  OT    -0.834000       15.9994           0
   14283 WT1  5148 TIP3 H1   HT     0.417000        1.0080           0
   14284 WT1  5148 TIP3 H2   HT     0.417000        1.0080           0
   14285 WT1  5149 TIP3 OH2  OT    -0.834000       15.9994           0
   14286 WT1  5149 TIP3 H1   HT     0.417000        1.0080           0
   14287 WT1  5149 TIP3 H2   HT     0.417000        1.0080           0
   14288 WT1  5150 TIP3 OH2  OT    -0.834000       15.9994           0
   14289 WT1  5150 TIP3 H1   HT     0.417000        1.0080           0
   14290 WT1  5150 TIP3 H2   HT     0.417000        1.0080           0
   14291 WT1  5151 TIP3 OH2  OT    -0.834000       15.9994           0
   14292 WT1  5151 TIP3 H1   HT     0.417000        1.0080           0
   14293 WT1  5151 TIP3 H2   HT     0.417000        1.0080           0
   14294 WT1  5152 TIP3 OH2  OT    -0.834000       15.9994           0
   14295 WT1  5152 TIP3 H1   HT     0.417000        1.0080           0
   14296 WT1  5152 TIP3 H2   HT     0.417000        1.0080           0
   14297 WT1  5153 TIP3 OH2  OT    -0.834000       15.9994           0
   14298 WT1  5153 TIP3 H1   HT     0.417000        1.0080           0
   14299 WT1  5153 TIP3 H2   HT     0.417000        1.0080           0
   14300 WT1  5154 TIP3 OH2  OT    -0.834000       15.9994           0
   14301 WT1  5154 TIP3 H1   HT     0.417000        1.0080           0
   14302 WT1  5154 TIP3 H2   HT     0.417000        1.0080           0
   14303 WT1  5156 TIP3 OH2  OT    -0.834000       15.9994           0
   14304 WT1  5156 TIP3 H1   HT     0.417000        1.0080           0
   14305 WT1  5156 TIP3 H2   HT     0.417000        1.0080           0
   14306 WT1  5157 TIP3 OH2  OT    -0.834000       15.9994           0
   14307 WT1  5157 TIP3 H1   HT     0.417000        1.0080           0
   14308 WT1  5157 TIP3 H2   HT     0.417000        1.0080           0
   14309 WT1  5160 TIP3 OH2  OT    -0.834000       15.9994           0
   14310 WT1  5160 TIP3 H1   HT     0.417000        1.0080           0
   14311 WT1  5160 TIP3 H2   HT     0.417000        1.0080           0
   14312 WT1  5161 TIP3 OH2  OT    -0.834000       15.9994           0
   14313 WT1  5161 TIP3 H1   HT     0.417000        1.0080           0
   14314 WT1  5161 TIP3 H2   HT     0.417000        1.0080           0
   14315 WT1  5162 TIP3 OH2  OT    -0.834000       15.9994           0
   14316 WT1  5162 TIP3 H1   HT     0.417000        1.0080           0
   14317 WT1  5162 TIP3 H2   HT     0.417000        1.0080           0
   14318 WT1  5163 TIP3 OH2  OT    -0.834000       15.9994           0
   14319 WT1  5163 TIP3 H1   HT     0.417000        1.0080           0
   14320 WT1  5163 TIP3 H2   HT     0.417000        1.0080           0
   14321 WT1  5164 TIP3 OH2  OT    -0.834000       15.9994           0
   14322 WT1  5164 TIP3 H1   HT     0.417000        1.0080           0
   14323 WT1  5164 TIP3 H2   HT     0.417000        1.0080           0
   14324 WT1  5165 TIP3 OH2  OT    -0.834000       15.9994           0
   14325 WT1  5165 TIP3 H1   HT     0.417000        1.0080           0
   14326 WT1  5165 TIP3 H2   HT     0.417000        1.0080           0
   14327 WT1  5166 TIP3 OH2  OT    -0.834000       15.9994           0
   14328 WT1  5166 TIP3 H1   HT     0.417000        1.0080           0
   14329 WT1  5166 TIP3 H2   HT     0.417000        1.0080           0
   14330 WT1  5167 TIP3 OH2  OT    -0.834000       15.9994           0
   14331 WT1  5167 TIP3 H1   HT     0.417000        1.0080           0
   14332 WT1  5167 TIP3 H2   HT     0.417000        1.0080           0
   14333 WT1  5168 TIP3 OH2  OT    -0.834000       15.9994           0
   14334 WT1  5168 TIP3 H1   HT     0.417000        1.0080           0
   14335 WT1  5168 TIP3 H2   HT     0.417000        1.0080           0
   14336 WT1  5169 TIP3 OH2  OT    -0.834000       15.9994           0
   14337 WT1  5169 TIP3 H1   HT     0.417000        1.0080           0
   14338 WT1  5169 TIP3 H2   HT     0.417000        1.0080           0
   14339 WT1  5171 TIP3 OH2  OT    -0.834000       15.9994           0
   14340 WT1  5171 TIP3 H1   HT     0.417000        1.0080           0
   14341 WT1  5171 TIP3 H2   HT     0.417000        1.0080           0
   14342 WT1  5172 TIP3 OH2  OT    -0.834000       15.9994           0
   14343 WT1  5172 TIP3 H1   HT     0.417000        1.0080           0
   14344 WT1  5172 TIP3 H2   HT     0.417000        1.0080           0
   14345 WT1  5173 TIP3 OH2  OT    -0.834000       15.9994           0
   14346 WT1  5173 TIP3 H1   HT     0.417000        1.0080           0
   14347 WT1  5173 TIP3 H2   HT     0.417000        1.0080           0
   14348 WT1  5174 TIP3 OH2  OT    -0.834000       15.9994           0
   14349 WT1  5174 TIP3 H1   HT     0.417000        1.0080           0
   14350 WT1  5174 TIP3 H2   HT     0.417000        1.0080           0
   14351 WT1  5176 TIP3 OH2  OT    -0.834000       15.9994           0
   14352 WT1  5176 TIP3 H1   HT     0.417000        1.0080           0
   14353 WT1  5176 TIP3 H2   HT     0.417000        1.0080           0
   14354 WT1  5177 TIP3 OH2  OT    -0.834000       15.9994           0
   14355 WT1  5177 TIP3 H1   HT     0.417000        1.0080           0
   14356 WT1  5177 TIP3 H2   HT     0.417000        1.0080           0
   14357 WT1  5178 TIP3 OH2  OT    -0.834000       15.9994           0
   14358 WT1  5178 TIP3 H1   HT     0.417000        1.0080           0
   14359 WT1  5178 TIP3 H2   HT     0.417000        1.0080           0
   14360 WT1  5179 TIP3 OH2  OT    -0.834000       15.9994           0
   14361 WT1  5179 TIP3 H1   HT     0.417000        1.0080           0
   14362 WT1  5179 TIP3 H2   HT     0.417000        1.0080           0
   14363 WT1  5180 TIP3 OH2  OT    -0.834000       15.9994           0
   14364 WT1  5180 TIP3 H1   HT     0.417000        1.0080           0
   14365 WT1  5180 TIP3 H2   HT     0.417000        1.0080           0
   14366 WT1  5181 TIP3 OH2  OT    -0.834000       15.9994           0
   14367 WT1  5181 TIP3 H1   HT     0.417000        1.0080           0
   14368 WT1  5181 TIP3 H2   HT     0.417000        1.0080           0
   14369 WT1  5182 TIP3 OH2  OT    -0.834000       15.9994           0
   14370 WT1  5182 TIP3 H1   HT     0.417000        1.0080           0
   14371 WT1  5182 TIP3 H2   HT     0.417000        1.0080           0
   14372 WT1  5183 TIP3 OH2  OT    -0.834000       15.9994           0
   14373 WT1  5183 TIP3 H1   HT     0.417000        1.0080           0
   14374 WT1  5183 TIP3 H2   HT     0.417000        1.0080           0
   14375 WT1  5184 TIP3 OH2  OT    -0.834000       15.9994           0
   14376 WT1  5184 TIP3 H1   HT     0.417000        1.0080           0
   14377 WT1  5184 TIP3 H2   HT     0.417000        1.0080           0
   14378 WT1  5185 TIP3 OH2  OT    -0.834000       15.9994           0
   14379 WT1  5185 TIP3 H1   HT     0.417000        1.0080           0
   14380 WT1  5185 TIP3 H2   HT     0.417000        1.0080           0
   14381 WT1  5186 TIP3 OH2  OT    -0.834000       15.9994           0
   14382 WT1  5186 TIP3 H1   HT     0.417000        1.0080           0
   14383 WT1  5186 TIP3 H2   HT     0.417000        1.0080           0
   14384 WT1  5188 TIP3 OH2  OT    -0.834000       15.9994           0
   14385 WT1  5188 TIP3 H1   HT     0.417000        1.0080           0
   14386 WT1  5188 TIP3 H2   HT     0.417000        1.0080           0
   14387 WT1  5189 TIP3 OH2  OT    -0.834000       15.9994           0
   14388 WT1  5189 TIP3 H1   HT     0.417000        1.0080           0
   14389 WT1  5189 TIP3 H2   HT     0.417000        1.0080           0
   14390 WT1  5191 TIP3 OH2  OT    -0.834000       15.9994           0
   14391 WT1  5191 TIP3 H1   HT     0.417000        1.0080           0
   14392 WT1  5191 TIP3 H2   HT     0.417000        1.0080           0
   14393 WT1  5192 TIP3 OH2  OT    -0.834000       15.9994           0
   14394 WT1  5192 TIP3 H1   HT     0.417000        1.0080           0
   14395 WT1  5192 TIP3 H2   HT     0.417000        1.0080           0
   14396 WT1  5193 TIP3 OH2  OT    -0.834000       15.9994           0
   14397 WT1  5193 TIP3 H1   HT     0.417000        1.0080           0
   14398 WT1  5193 TIP3 H2   HT     0.417000        1.0080           0
   14399 WT1  5194 TIP3 OH2  OT    -0.834000       15.9994           0
   14400 WT1  5194 TIP3 H1   HT     0.417000        1.0080           0
   14401 WT1  5194 TIP3 H2   HT     0.417000        1.0080           0
   14402 WT1  5197 TIP3 OH2  OT    -0.834000       15.9994           0
   14403 WT1  5197 TIP3 H1   HT     0.417000        1.0080           0
   14404 WT1  5197 TIP3 H2   HT     0.417000        1.0080           0
   14405 WT1  5198 TIP3 OH2  OT    -0.834000       15.9994           0
   14406 WT1  5198 TIP3 H1   HT     0.417000        1.0080           0
   14407 WT1  5198 TIP3 H2   HT     0.417000        1.0080           0
   14408 WT1  5199 TIP3 OH2  OT    -0.834000       15.9994           0
   14409 WT1  5199 TIP3 H1   HT     0.417000        1.0080           0
   14410 WT1  5199 TIP3 H2   HT     0.417000        1.0080           0
   14411 WT1  5200 TIP3 OH2  OT    -0.834000       15.9994           0
   14412 WT1  5200 TIP3 H1   HT     0.417000        1.0080           0
   14413 WT1  5200 TIP3 H2   HT     0.417000        1.0080           0
   14414 WT1  5201 TIP3 OH2  OT    -0.834000       15.9994           0
   14415 WT1  5201 TIP3 H1   HT     0.417000        1.0080           0
   14416 WT1  5201 TIP3 H2   HT     0.417000        1.0080           0
   14417 WT1  5202 TIP3 OH2  OT    -0.834000       15.9994           0
   14418 WT1  5202 TIP3 H1   HT     0.417000        1.0080           0
   14419 WT1  5202 TIP3 H2   HT     0.417000        1.0080           0
   14420 WT1  5203 TIP3 OH2  OT    -0.834000       15.9994           0
   14421 WT1  5203 TIP3 H1   HT     0.417000        1.0080           0
   14422 WT1  5203 TIP3 H2   HT     0.417000        1.0080           0
   14423 WT1  5204 TIP3 OH2  OT    -0.834000       15.9994           0
   14424 WT1  5204 TIP3 H1   HT     0.417000        1.0080           0
   14425 WT1  5204 TIP3 H2   HT     0.417000        1.0080           0
   14426 WT1  5205 TIP3 OH2  OT    -0.834000       15.9994           0
   14427 WT1  5205 TIP3 H1   HT     0.417000        1.0080           0
   14428 WT1  5205 TIP3 H2   HT     0.417000        1.0080           0
   14429 WT1  5206 TIP3 OH2  OT    -0.834000       15.9994           0
   14430 WT1  5206 TIP3 H1   HT     0.417000        1.0080           0
   14431 WT1  5206 TIP3 H2   HT     0.417000        1.0080           0
   14432 WT1  5207 TIP3 OH2  OT    -0.834000       15.9994           0
   14433 WT1  5207 TIP3 H1   HT     0.417000        1.0080           0
   14434 WT1  5207 TIP3 H2   HT     0.417000        1.0080           0
   14435 WT1  5208 TIP3 OH2  OT    -0.834000       15.9994           0
   14436 WT1  5208 TIP3 H1   HT     0.417000        1.0080           0
   14437 WT1  5208 TIP3 H2   HT     0.417000        1.0080           0
   14438 WT1  5211 TIP3 OH2  OT    -0.834000       15.9994           0
   14439 WT1  5211 TIP3 H1   HT     0.417000        1.0080           0
   14440 WT1  5211 TIP3 H2   HT     0.417000        1.0080           0
   14441 WT1  5212 TIP3 OH2  OT    -0.834000       15.9994           0
   14442 WT1  5212 TIP3 H1   HT     0.417000        1.0080           0
   14443 WT1  5212 TIP3 H2   HT     0.417000        1.0080           0
   14444 WT1  5213 TIP3 OH2  OT    -0.834000       15.9994           0
   14445 WT1  5213 TIP3 H1   HT     0.417000        1.0080           0
   14446 WT1  5213 TIP3 H2   HT     0.417000        1.0080           0
   14447 WT1  5215 TIP3 OH2  OT    -0.834000       15.9994           0
   14448 WT1  5215 TIP3 H1   HT     0.417000        1.0080           0
   14449 WT1  5215 TIP3 H2   HT     0.417000        1.0080           0
   14450 WT1  5216 TIP3 OH2  OT    -0.834000       15.9994           0
   14451 WT1  5216 TIP3 H1   HT     0.417000        1.0080           0
   14452 WT1  5216 TIP3 H2   HT     0.417000        1.0080           0
   14453 WT1  5217 TIP3 OH2  OT    -0.834000       15.9994           0
   14454 WT1  5217 TIP3 H1   HT     0.417000        1.0080           0
   14455 WT1  5217 TIP3 H2   HT     0.417000        1.0080           0
   14456 WT1  5218 TIP3 OH2  OT    -0.834000       15.9994           0
   14457 WT1  5218 TIP3 H1   HT     0.417000        1.0080           0
   14458 WT1  5218 TIP3 H2   HT     0.417000        1.0080           0
   14459 WT1  5219 TIP3 OH2  OT    -0.834000       15.9994           0
   14460 WT1  5219 TIP3 H1   HT     0.417000        1.0080           0
   14461 WT1  5219 TIP3 H2   HT     0.417000        1.0080           0
   14462 WT1  5220 TIP3 OH2  OT    -0.834000       15.9994           0
   14463 WT1  5220 TIP3 H1   HT     0.417000        1.0080           0
   14464 WT1  5220 TIP3 H2   HT     0.417000        1.0080           0
   14465 WT1  5221 TIP3 OH2  OT    -0.834000       15.9994           0
   14466 WT1  5221 TIP3 H1   HT     0.417000        1.0080           0
   14467 WT1  5221 TIP3 H2   HT     0.417000        1.0080           0
   14468 WT1  5222 TIP3 OH2  OT    -0.834000       15.9994           0
   14469 WT1  5222 TIP3 H1   HT     0.417000        1.0080           0
   14470 WT1  5222 TIP3 H2   HT     0.417000        1.0080           0
   14471 WT1  5224 TIP3 OH2  OT    -0.834000       15.9994           0
   14472 WT1  5224 TIP3 H1   HT     0.417000        1.0080           0
   14473 WT1  5224 TIP3 H2   HT     0.417000        1.0080           0
   14474 WT1  5225 TIP3 OH2  OT    -0.834000       15.9994           0
   14475 WT1  5225 TIP3 H1   HT     0.417000        1.0080           0
   14476 WT1  5225 TIP3 H2   HT     0.417000        1.0080           0
   14477 WT1  5226 TIP3 OH2  OT    -0.834000       15.9994           0
   14478 WT1  5226 TIP3 H1   HT     0.417000        1.0080           0
   14479 WT1  5226 TIP3 H2   HT     0.417000        1.0080           0
   14480 WT1  5227 TIP3 OH2  OT    -0.834000       15.9994           0
   14481 WT1  5227 TIP3 H1   HT     0.417000        1.0080           0
   14482 WT1  5227 TIP3 H2   HT     0.417000        1.0080           0
   14483 WT1  5229 TIP3 OH2  OT    -0.834000       15.9994           0
   14484 WT1  5229 TIP3 H1   HT     0.417000        1.0080           0
   14485 WT1  5229 TIP3 H2   HT     0.417000        1.0080           0
   14486 WT1  5230 TIP3 OH2  OT    -0.834000       15.9994           0
   14487 WT1  5230 TIP3 H1   HT     0.417000        1.0080           0
   14488 WT1  5230 TIP3 H2   HT     0.417000        1.0080           0
   14489 WT1  5231 TIP3 OH2  OT    -0.834000       15.9994           0
   14490 WT1  5231 TIP3 H1   HT     0.417000        1.0080           0
   14491 WT1  5231 TIP3 H2   HT     0.417000        1.0080           0
   14492 WT1  5232 TIP3 OH2  OT    -0.834000       15.9994           0
   14493 WT1  5232 TIP3 H1   HT     0.417000        1.0080           0
   14494 WT1  5232 TIP3 H2   HT     0.417000        1.0080           0
   14495 WT1  5233 TIP3 OH2  OT    -0.834000       15.9994           0
   14496 WT1  5233 TIP3 H1   HT     0.417000        1.0080           0
   14497 WT1  5233 TIP3 H2   HT     0.417000        1.0080           0
   14498 WT1  5234 TIP3 OH2  OT    -0.834000       15.9994           0
   14499 WT1  5234 TIP3 H1   HT     0.417000        1.0080           0
   14500 WT1  5234 TIP3 H2   HT     0.417000        1.0080           0
   14501 WT1  5236 TIP3 OH2  OT    -0.834000       15.9994           0
   14502 WT1  5236 TIP3 H1   HT     0.417000        1.0080           0
   14503 WT1  5236 TIP3 H2   HT     0.417000        1.0080           0
   14504 WT1  5237 TIP3 OH2  OT    -0.834000       15.9994           0
   14505 WT1  5237 TIP3 H1   HT     0.417000        1.0080           0
   14506 WT1  5237 TIP3 H2   HT     0.417000        1.0080           0
   14507 WT1  5238 TIP3 OH2  OT    -0.834000       15.9994           0
   14508 WT1  5238 TIP3 H1   HT     0.417000        1.0080           0
   14509 WT1  5238 TIP3 H2   HT     0.417000        1.0080           0
   14510 WT1  5239 TIP3 OH2  OT    -0.834000       15.9994           0
   14511 WT1  5239 TIP3 H1   HT     0.417000        1.0080           0
   14512 WT1  5239 TIP3 H2   HT     0.417000        1.0080           0
   14513 WT1  5240 TIP3 OH2  OT    -0.834000       15.9994           0
   14514 WT1  5240 TIP3 H1   HT     0.417000        1.0080           0
   14515 WT1  5240 TIP3 H2   HT     0.417000        1.0080           0
   14516 WT1  5242 TIP3 OH2  OT    -0.834000       15.9994           0
   14517 WT1  5242 TIP3 H1   HT     0.417000        1.0080           0
   14518 WT1  5242 TIP3 H2   HT     0.417000        1.0080           0
   14519 WT1  5243 TIP3 OH2  OT    -0.834000       15.9994           0
   14520 WT1  5243 TIP3 H1   HT     0.417000        1.0080           0
   14521 WT1  5243 TIP3 H2   HT     0.417000        1.0080           0
   14522 WT1  5244 TIP3 OH2  OT    -0.834000       15.9994           0
   14523 WT1  5244 TIP3 H1   HT     0.417000        1.0080           0
   14524 WT1  5244 TIP3 H2   HT     0.417000        1.0080           0
   14525 WT1  5245 TIP3 OH2  OT    -0.834000       15.9994           0
   14526 WT1  5245 TIP3 H1   HT     0.417000        1.0080           0
   14527 WT1  5245 TIP3 H2   HT     0.417000        1.0080           0
   14528 WT1  5246 TIP3 OH2  OT    -0.834000       15.9994           0
   14529 WT1  5246 TIP3 H1   HT     0.417000        1.0080           0
   14530 WT1  5246 TIP3 H2   HT     0.417000        1.0080           0
   14531 WT1  5247 TIP3 OH2  OT    -0.834000       15.9994           0
   14532 WT1  5247 TIP3 H1   HT     0.417000        1.0080           0
   14533 WT1  5247 TIP3 H2   HT     0.417000        1.0080           0
   14534 WT1  5249 TIP3 OH2  OT    -0.834000       15.9994           0
   14535 WT1  5249 TIP3 H1   HT     0.417000        1.0080           0
   14536 WT1  5249 TIP3 H2   HT     0.417000        1.0080           0
   14537 WT1  5250 TIP3 OH2  OT    -0.834000       15.9994           0
   14538 WT1  5250 TIP3 H1   HT     0.417000        1.0080           0
   14539 WT1  5250 TIP3 H2   HT     0.417000        1.0080           0
   14540 WT1  5251 TIP3 OH2  OT    -0.834000       15.9994           0
   14541 WT1  5251 TIP3 H1   HT     0.417000        1.0080           0
   14542 WT1  5251 TIP3 H2   HT     0.417000        1.0080           0
   14543 WT1  5252 TIP3 OH2  OT    -0.834000       15.9994           0
   14544 WT1  5252 TIP3 H1   HT     0.417000        1.0080           0
   14545 WT1  5252 TIP3 H2   HT     0.417000        1.0080           0
   14546 WT1  5253 TIP3 OH2  OT    -0.834000       15.9994           0
   14547 WT1  5253 TIP3 H1   HT     0.417000        1.0080           0
   14548 WT1  5253 TIP3 H2   HT     0.417000        1.0080           0
   14549 WT1  5254 TIP3 OH2  OT    -0.834000       15.9994           0
   14550 WT1  5254 TIP3 H1   HT     0.417000        1.0080           0
   14551 WT1  5254 TIP3 H2   HT     0.417000        1.0080           0
   14552 WT1  5255 TIP3 OH2  OT    -0.834000       15.9994           0
   14553 WT1  5255 TIP3 H1   HT     0.417000        1.0080           0
   14554 WT1  5255 TIP3 H2   HT     0.417000        1.0080           0
   14555 WT1  5256 TIP3 OH2  OT    -0.834000       15.9994           0
   14556 WT1  5256 TIP3 H1   HT     0.417000        1.0080           0
   14557 WT1  5256 TIP3 H2   HT     0.417000        1.0080           0
   14558 WT1  5257 TIP3 OH2  OT    -0.834000       15.9994           0
   14559 WT1  5257 TIP3 H1   HT     0.417000        1.0080           0
   14560 WT1  5257 TIP3 H2   HT     0.417000        1.0080           0
   14561 WT1  5258 TIP3 OH2  OT    -0.834000       15.9994           0
   14562 WT1  5258 TIP3 H1   HT     0.417000        1.0080           0
   14563 WT1  5258 TIP3 H2   HT     0.417000        1.0080           0
   14564 WT1  5259 TIP3 OH2  OT    -0.834000       15.9994           0
   14565 WT1  5259 TIP3 H1   HT     0.417000        1.0080           0
   14566 WT1  5259 TIP3 H2   HT     0.417000        1.0080           0
   14567 WT1  5260 TIP3 OH2  OT    -0.834000       15.9994           0
   14568 WT1  5260 TIP3 H1   HT     0.417000        1.0080           0
   14569 WT1  5260 TIP3 H2   HT     0.417000        1.0080           0
   14570 WT1  5261 TIP3 OH2  OT    -0.834000       15.9994           0
   14571 WT1  5261 TIP3 H1   HT     0.417000        1.0080           0
   14572 WT1  5261 TIP3 H2   HT     0.417000        1.0080           0
   14573 WT1  5262 TIP3 OH2  OT    -0.834000       15.9994           0
   14574 WT1  5262 TIP3 H1   HT     0.417000        1.0080           0
   14575 WT1  5262 TIP3 H2   HT     0.417000        1.0080           0
   14576 WT1  5264 TIP3 OH2  OT    -0.834000       15.9994           0
   14577 WT1  5264 TIP3 H1   HT     0.417000        1.0080           0
   14578 WT1  5264 TIP3 H2   HT     0.417000        1.0080           0
   14579 WT1  5265 TIP3 OH2  OT    -0.834000       15.9994           0
   14580 WT1  5265 TIP3 H1   HT     0.417000        1.0080           0
   14581 WT1  5265 TIP3 H2   HT     0.417000        1.0080           0
   14582 WT1  5266 TIP3 OH2  OT    -0.834000       15.9994           0
   14583 WT1  5266 TIP3 H1   HT     0.417000        1.0080           0
   14584 WT1  5266 TIP3 H2   HT     0.417000        1.0080           0
   14585 WT1  5267 TIP3 OH2  OT    -0.834000       15.9994           0
   14586 WT1  5267 TIP3 H1   HT     0.417000        1.0080           0
   14587 WT1  5267 TIP3 H2   HT     0.417000        1.0080           0
   14588 WT1  5268 TIP3 OH2  OT    -0.834000       15.9994           0
   14589 WT1  5268 TIP3 H1   HT     0.417000        1.0080           0
   14590 WT1  5268 TIP3 H2   HT     0.417000        1.0080           0
   14591 WT1  5269 TIP3 OH2  OT    -0.834000       15.9994           0
   14592 WT1  5269 TIP3 H1   HT     0.417000        1.0080           0
   14593 WT1  5269 TIP3 H2   HT     0.417000        1.0080           0
   14594 WT1  5270 TIP3 OH2  OT    -0.834000       15.9994           0
   14595 WT1  5270 TIP3 H1   HT     0.417000        1.0080           0
   14596 WT1  5270 TIP3 H2   HT     0.417000        1.0080           0
   14597 WT1  5271 TIP3 OH2  OT    -0.834000       15.9994           0
   14598 WT1  5271 TIP3 H1   HT     0.417000        1.0080           0
   14599 WT1  5271 TIP3 H2   HT     0.417000        1.0080           0
   14600 WT1  5273 TIP3 OH2  OT    -0.834000       15.9994           0
   14601 WT1  5273 TIP3 H1   HT     0.417000        1.0080           0
   14602 WT1  5273 TIP3 H2   HT     0.417000        1.0080           0
   14603 WT1  5274 TIP3 OH2  OT    -0.834000       15.9994           0
   14604 WT1  5274 TIP3 H1   HT     0.417000        1.0080           0
   14605 WT1  5274 TIP3 H2   HT     0.417000        1.0080           0
   14606 WT1  5275 TIP3 OH2  OT    -0.834000       15.9994           0
   14607 WT1  5275 TIP3 H1   HT     0.417000        1.0080           0
   14608 WT1  5275 TIP3 H2   HT     0.417000        1.0080           0
   14609 WT1  5277 TIP3 OH2  OT    -0.834000       15.9994           0
   14610 WT1  5277 TIP3 H1   HT     0.417000        1.0080           0
   14611 WT1  5277 TIP3 H2   HT     0.417000        1.0080           0
   14612 WT1  5279 TIP3 OH2  OT    -0.834000       15.9994           0
   14613 WT1  5279 TIP3 H1   HT     0.417000        1.0080           0
   14614 WT1  5279 TIP3 H2   HT     0.417000        1.0080           0
   14615 WT1  5280 TIP3 OH2  OT    -0.834000       15.9994           0
   14616 WT1  5280 TIP3 H1   HT     0.417000        1.0080           0
   14617 WT1  5280 TIP3 H2   HT     0.417000        1.0080           0
   14618 WT1  5281 TIP3 OH2  OT    -0.834000       15.9994           0
   14619 WT1  5281 TIP3 H1   HT     0.417000        1.0080           0
   14620 WT1  5281 TIP3 H2   HT     0.417000        1.0080           0
   14621 WT1  5282 TIP3 OH2  OT    -0.834000       15.9994           0
   14622 WT1  5282 TIP3 H1   HT     0.417000        1.0080           0
   14623 WT1  5282 TIP3 H2   HT     0.417000        1.0080           0
   14624 WT1  5283 TIP3 OH2  OT    -0.834000       15.9994           0
   14625 WT1  5283 TIP3 H1   HT     0.417000        1.0080           0
   14626 WT1  5283 TIP3 H2   HT     0.417000        1.0080           0
   14627 WT1  5284 TIP3 OH2  OT    -0.834000       15.9994           0
   14628 WT1  5284 TIP3 H1   HT     0.417000        1.0080           0
   14629 WT1  5284 TIP3 H2   HT     0.417000        1.0080           0
   14630 WT1  5286 TIP3 OH2  OT    -0.834000       15.9994           0
   14631 WT1  5286 TIP3 H1   HT     0.417000        1.0080           0
   14632 WT1  5286 TIP3 H2   HT     0.417000        1.0080           0
   14633 WT1  5287 TIP3 OH2  OT    -0.834000       15.9994           0
   14634 WT1  5287 TIP3 H1   HT     0.417000        1.0080           0
   14635 WT1  5287 TIP3 H2   HT     0.417000        1.0080           0
   14636 WT1  5288 TIP3 OH2  OT    -0.834000       15.9994           0
   14637 WT1  5288 TIP3 H1   HT     0.417000        1.0080           0
   14638 WT1  5288 TIP3 H2   HT     0.417000        1.0080           0
   14639 WT1  5290 TIP3 OH2  OT    -0.834000       15.9994           0
   14640 WT1  5290 TIP3 H1   HT     0.417000        1.0080           0
   14641 WT1  5290 TIP3 H2   HT     0.417000        1.0080           0
   14642 WT1  5291 TIP3 OH2  OT    -0.834000       15.9994           0
   14643 WT1  5291 TIP3 H1   HT     0.417000        1.0080           0
   14644 WT1  5291 TIP3 H2   HT     0.417000        1.0080           0
   14645 WT1  5293 TIP3 OH2  OT    -0.834000       15.9994           0
   14646 WT1  5293 TIP3 H1   HT     0.417000        1.0080           0
   14647 WT1  5293 TIP3 H2   HT     0.417000        1.0080           0
   14648 WT1  5294 TIP3 OH2  OT    -0.834000       15.9994           0
   14649 WT1  5294 TIP3 H1   HT     0.417000        1.0080           0
   14650 WT1  5294 TIP3 H2   HT     0.417000        1.0080           0
   14651 WT1  5295 TIP3 OH2  OT    -0.834000       15.9994           0
   14652 WT1  5295 TIP3 H1   HT     0.417000        1.0080           0
   14653 WT1  5295 TIP3 H2   HT     0.417000        1.0080           0
   14654 WT1  5297 TIP3 OH2  OT    -0.834000       15.9994           0
   14655 WT1  5297 TIP3 H1   HT     0.417000        1.0080           0
   14656 WT1  5297 TIP3 H2   HT     0.417000        1.0080           0
   14657 WT1  5298 TIP3 OH2  OT    -0.834000       15.9994           0
   14658 WT1  5298 TIP3 H1   HT     0.417000        1.0080           0
   14659 WT1  5298 TIP3 H2   HT     0.417000        1.0080           0
   14660 WT1  5299 TIP3 OH2  OT    -0.834000       15.9994           0
   14661 WT1  5299 TIP3 H1   HT     0.417000        1.0080           0
   14662 WT1  5299 TIP3 H2   HT     0.417000        1.0080           0
   14663 WT1  5300 TIP3 OH2  OT    -0.834000       15.9994           0
   14664 WT1  5300 TIP3 H1   HT     0.417000        1.0080           0
   14665 WT1  5300 TIP3 H2   HT     0.417000        1.0080           0
   14666 WT1  5301 TIP3 OH2  OT    -0.834000       15.9994           0
   14667 WT1  5301 TIP3 H1   HT     0.417000        1.0080           0
   14668 WT1  5301 TIP3 H2   HT     0.417000        1.0080           0
   14669 WT1  5302 TIP3 OH2  OT    -0.834000       15.9994           0
   14670 WT1  5302 TIP3 H1   HT     0.417000        1.0080           0
   14671 WT1  5302 TIP3 H2   HT     0.417000        1.0080           0
   14672 WT1  5303 TIP3 OH2  OT    -0.834000       15.9994           0
   14673 WT1  5303 TIP3 H1   HT     0.417000        1.0080           0
   14674 WT1  5303 TIP3 H2   HT     0.417000        1.0080           0
   14675 WT1  5304 TIP3 OH2  OT    -0.834000       15.9994           0
   14676 WT1  5304 TIP3 H1   HT     0.417000        1.0080           0
   14677 WT1  5304 TIP3 H2   HT     0.417000        1.0080           0
   14678 WT1  5305 TIP3 OH2  OT    -0.834000       15.9994           0
   14679 WT1  5305 TIP3 H1   HT     0.417000        1.0080           0
   14680 WT1  5305 TIP3 H2   HT     0.417000        1.0080           0
   14681 WT1  5307 TIP3 OH2  OT    -0.834000       15.9994           0
   14682 WT1  5307 TIP3 H1   HT     0.417000        1.0080           0
   14683 WT1  5307 TIP3 H2   HT     0.417000        1.0080           0
   14684 WT1  5308 TIP3 OH2  OT    -0.834000       15.9994           0
   14685 WT1  5308 TIP3 H1   HT     0.417000        1.0080           0
   14686 WT1  5308 TIP3 H2   HT     0.417000        1.0080           0
   14687 WT1  5309 TIP3 OH2  OT    -0.834000       15.9994           0
   14688 WT1  5309 TIP3 H1   HT     0.417000        1.0080           0
   14689 WT1  5309 TIP3 H2   HT     0.417000        1.0080           0
   14690 WT1  5311 TIP3 OH2  OT    -0.834000       15.9994           0
   14691 WT1  5311 TIP3 H1   HT     0.417000        1.0080           0
   14692 WT1  5311 TIP3 H2   HT     0.417000        1.0080           0
   14693 WT1  5312 TIP3 OH2  OT    -0.834000       15.9994           0
   14694 WT1  5312 TIP3 H1   HT     0.417000        1.0080           0
   14695 WT1  5312 TIP3 H2   HT     0.417000        1.0080           0
   14696 WT1  5313 TIP3 OH2  OT    -0.834000       15.9994           0
   14697 WT1  5313 TIP3 H1   HT     0.417000        1.0080           0
   14698 WT1  5313 TIP3 H2   HT     0.417000        1.0080           0
   14699 WT1  5314 TIP3 OH2  OT    -0.834000       15.9994           0
   14700 WT1  5314 TIP3 H1   HT     0.417000        1.0080           0
   14701 WT1  5314 TIP3 H2   HT     0.417000        1.0080           0
   14702 WT1  5316 TIP3 OH2  OT    -0.834000       15.9994           0
   14703 WT1  5316 TIP3 H1   HT     0.417000        1.0080           0
   14704 WT1  5316 TIP3 H2   HT     0.417000        1.0080           0
   14705 WT1  5318 TIP3 OH2  OT    -0.834000       15.9994           0
   14706 WT1  5318 TIP3 H1   HT     0.417000        1.0080           0
   14707 WT1  5318 TIP3 H2   HT     0.417000        1.0080           0
   14708 WT1  5319 TIP3 OH2  OT    -0.834000       15.9994           0
   14709 WT1  5319 TIP3 H1   HT     0.417000        1.0080           0
   14710 WT1  5319 TIP3 H2   HT     0.417000        1.0080           0
   14711 WT1  5320 TIP3 OH2  OT    -0.834000       15.9994           0
   14712 WT1  5320 TIP3 H1   HT     0.417000        1.0080           0
   14713 WT1  5320 TIP3 H2   HT     0.417000        1.0080           0
   14714 WT1  5321 TIP3 OH2  OT    -0.834000       15.9994           0
   14715 WT1  5321 TIP3 H1   HT     0.417000        1.0080           0
   14716 WT1  5321 TIP3 H2   HT     0.417000        1.0080           0
   14717 WT1  5322 TIP3 OH2  OT    -0.834000       15.9994           0
   14718 WT1  5322 TIP3 H1   HT     0.417000        1.0080           0
   14719 WT1  5322 TIP3 H2   HT     0.417000        1.0080           0
   14720 WT1  5324 TIP3 OH2  OT    -0.834000       15.9994           0
   14721 WT1  5324 TIP3 H1   HT     0.417000        1.0080           0
   14722 WT1  5324 TIP3 H2   HT     0.417000        1.0080           0
   14723 WT1  5325 TIP3 OH2  OT    -0.834000       15.9994           0
   14724 WT1  5325 TIP3 H1   HT     0.417000        1.0080           0
   14725 WT1  5325 TIP3 H2   HT     0.417000        1.0080           0
   14726 WT1  5326 TIP3 OH2  OT    -0.834000       15.9994           0
   14727 WT1  5326 TIP3 H1   HT     0.417000        1.0080           0
   14728 WT1  5326 TIP3 H2   HT     0.417000        1.0080           0
   14729 WT1  5327 TIP3 OH2  OT    -0.834000       15.9994           0
   14730 WT1  5327 TIP3 H1   HT     0.417000        1.0080           0
   14731 WT1  5327 TIP3 H2   HT     0.417000        1.0080           0
   14732 WT1  5328 TIP3 OH2  OT    -0.834000       15.9994           0
   14733 WT1  5328 TIP3 H1   HT     0.417000        1.0080           0
   14734 WT1  5328 TIP3 H2   HT     0.417000        1.0080           0
   14735 WT1  5330 TIP3 OH2  OT    -0.834000       15.9994           0
   14736 WT1  5330 TIP3 H1   HT     0.417000        1.0080           0
   14737 WT1  5330 TIP3 H2   HT     0.417000        1.0080           0
   14738 WT1  5331 TIP3 OH2  OT    -0.834000       15.9994           0
   14739 WT1  5331 TIP3 H1   HT     0.417000        1.0080           0
   14740 WT1  5331 TIP3 H2   HT     0.417000        1.0080           0
   14741 WT1  5333 TIP3 OH2  OT    -0.834000       15.9994           0
   14742 WT1  5333 TIP3 H1   HT     0.417000        1.0080           0
   14743 WT1  5333 TIP3 H2   HT     0.417000        1.0080           0
   14744 WT1  5334 TIP3 OH2  OT    -0.834000       15.9994           0
   14745 WT1  5334 TIP3 H1   HT     0.417000        1.0080           0
   14746 WT1  5334 TIP3 H2   HT     0.417000        1.0080           0
   14747 WT1  5336 TIP3 OH2  OT    -0.834000       15.9994           0
   14748 WT1  5336 TIP3 H1   HT     0.417000        1.0080           0
   14749 WT1  5336 TIP3 H2   HT     0.417000        1.0080           0
   14750 WT1  5337 TIP3 OH2  OT    -0.834000       15.9994           0
   14751 WT1  5337 TIP3 H1   HT     0.417000        1.0080           0
   14752 WT1  5337 TIP3 H2   HT     0.417000        1.0080           0
   14753 WT1  5338 TIP3 OH2  OT    -0.834000       15.9994           0
   14754 WT1  5338 TIP3 H1   HT     0.417000        1.0080           0
   14755 WT1  5338 TIP3 H2   HT     0.417000        1.0080           0
   14756 WT1  5339 TIP3 OH2  OT    -0.834000       15.9994           0
   14757 WT1  5339 TIP3 H1   HT     0.417000        1.0080           0
   14758 WT1  5339 TIP3 H2   HT     0.417000        1.0080           0
   14759 WT1  5340 TIP3 OH2  OT    -0.834000       15.9994           0
   14760 WT1  5340 TIP3 H1   HT     0.417000        1.0080           0
   14761 WT1  5340 TIP3 H2   HT     0.417000        1.0080           0
   14762 WT1  5341 TIP3 OH2  OT    -0.834000       15.9994           0
   14763 WT1  5341 TIP3 H1   HT     0.417000        1.0080           0
   14764 WT1  5341 TIP3 H2   HT     0.417000        1.0080           0
   14765 WT1  5342 TIP3 OH2  OT    -0.834000       15.9994           0
   14766 WT1  5342 TIP3 H1   HT     0.417000        1.0080           0
   14767 WT1  5342 TIP3 H2   HT     0.417000        1.0080           0
   14768 WT1  5344 TIP3 OH2  OT    -0.834000       15.9994           0
   14769 WT1  5344 TIP3 H1   HT     0.417000        1.0080           0
   14770 WT1  5344 TIP3 H2   HT     0.417000        1.0080           0
   14771 WT1  5345 TIP3 OH2  OT    -0.834000       15.9994           0
   14772 WT1  5345 TIP3 H1   HT     0.417000        1.0080           0
   14773 WT1  5345 TIP3 H2   HT     0.417000        1.0080           0
   14774 WT1  5346 TIP3 OH2  OT    -0.834000       15.9994           0
   14775 WT1  5346 TIP3 H1   HT     0.417000        1.0080           0
   14776 WT1  5346 TIP3 H2   HT     0.417000        1.0080           0
   14777 WT1  5347 TIP3 OH2  OT    -0.834000       15.9994           0
   14778 WT1  5347 TIP3 H1   HT     0.417000        1.0080           0
   14779 WT1  5347 TIP3 H2   HT     0.417000        1.0080           0
   14780 WT1  5348 TIP3 OH2  OT    -0.834000       15.9994           0
   14781 WT1  5348 TIP3 H1   HT     0.417000        1.0080           0
   14782 WT1  5348 TIP3 H2   HT     0.417000        1.0080           0
   14783 WT1  5349 TIP3 OH2  OT    -0.834000       15.9994           0
   14784 WT1  5349 TIP3 H1   HT     0.417000        1.0080           0
   14785 WT1  5349 TIP3 H2   HT     0.417000        1.0080           0
   14786 WT1  5350 TIP3 OH2  OT    -0.834000       15.9994           0
   14787 WT1  5350 TIP3 H1   HT     0.417000        1.0080           0
   14788 WT1  5350 TIP3 H2   HT     0.417000        1.0080           0
   14789 WT1  5351 TIP3 OH2  OT    -0.834000       15.9994           0
   14790 WT1  5351 TIP3 H1   HT     0.417000        1.0080           0
   14791 WT1  5351 TIP3 H2   HT     0.417000        1.0080           0
   14792 WT1  5352 TIP3 OH2  OT    -0.834000       15.9994           0
   14793 WT1  5352 TIP3 H1   HT     0.417000        1.0080           0
   14794 WT1  5352 TIP3 H2   HT     0.417000        1.0080           0
   14795 WT1  5353 TIP3 OH2  OT    -0.834000       15.9994           0
   14796 WT1  5353 TIP3 H1   HT     0.417000        1.0080           0
   14797 WT1  5353 TIP3 H2   HT     0.417000        1.0080           0
   14798 WT1  5354 TIP3 OH2  OT    -0.834000       15.9994           0
   14799 WT1  5354 TIP3 H1   HT     0.417000        1.0080           0
   14800 WT1  5354 TIP3 H2   HT     0.417000        1.0080           0
   14801 WT1  5355 TIP3 OH2  OT    -0.834000       15.9994           0
   14802 WT1  5355 TIP3 H1   HT     0.417000        1.0080           0
   14803 WT1  5355 TIP3 H2   HT     0.417000        1.0080           0
   14804 WT1  5356 TIP3 OH2  OT    -0.834000       15.9994           0
   14805 WT1  5356 TIP3 H1   HT     0.417000        1.0080           0
   14806 WT1  5356 TIP3 H2   HT     0.417000        1.0080           0
   14807 WT1  5357 TIP3 OH2  OT    -0.834000       15.9994           0
   14808 WT1  5357 TIP3 H1   HT     0.417000        1.0080           0
   14809 WT1  5357 TIP3 H2   HT     0.417000        1.0080           0
   14810 WT1  5358 TIP3 OH2  OT    -0.834000       15.9994           0
   14811 WT1  5358 TIP3 H1   HT     0.417000        1.0080           0
   14812 WT1  5358 TIP3 H2   HT     0.417000        1.0080           0
   14813 WT1  5359 TIP3 OH2  OT    -0.834000       15.9994           0
   14814 WT1  5359 TIP3 H1   HT     0.417000        1.0080           0
   14815 WT1  5359 TIP3 H2   HT     0.417000        1.0080           0
   14816 WT1  5360 TIP3 OH2  OT    -0.834000       15.9994           0
   14817 WT1  5360 TIP3 H1   HT     0.417000        1.0080           0
   14818 WT1  5360 TIP3 H2   HT     0.417000        1.0080           0
   14819 WT1  5361 TIP3 OH2  OT    -0.834000       15.9994           0
   14820 WT1  5361 TIP3 H1   HT     0.417000        1.0080           0
   14821 WT1  5361 TIP3 H2   HT     0.417000        1.0080           0
   14822 WT1  5362 TIP3 OH2  OT    -0.834000       15.9994           0
   14823 WT1  5362 TIP3 H1   HT     0.417000        1.0080           0
   14824 WT1  5362 TIP3 H2   HT     0.417000        1.0080           0
   14825 WT1  5364 TIP3 OH2  OT    -0.834000       15.9994           0
   14826 WT1  5364 TIP3 H1   HT     0.417000        1.0080           0
   14827 WT1  5364 TIP3 H2   HT     0.417000        1.0080           0
   14828 WT1  5365 TIP3 OH2  OT    -0.834000       15.9994           0
   14829 WT1  5365 TIP3 H1   HT     0.417000        1.0080           0
   14830 WT1  5365 TIP3 H2   HT     0.417000        1.0080           0
   14831 WT1  5366 TIP3 OH2  OT    -0.834000       15.9994           0
   14832 WT1  5366 TIP3 H1   HT     0.417000        1.0080           0
   14833 WT1  5366 TIP3 H2   HT     0.417000        1.0080           0
   14834 WT1  5367 TIP3 OH2  OT    -0.834000       15.9994           0
   14835 WT1  5367 TIP3 H1   HT     0.417000        1.0080           0
   14836 WT1  5367 TIP3 H2   HT     0.417000        1.0080           0
   14837 WT1  5368 TIP3 OH2  OT    -0.834000       15.9994           0
   14838 WT1  5368 TIP3 H1   HT     0.417000        1.0080           0
   14839 WT1  5368 TIP3 H2   HT     0.417000        1.0080           0
   14840 WT1  5369 TIP3 OH2  OT    -0.834000       15.9994           0
   14841 WT1  5369 TIP3 H1   HT     0.417000        1.0080           0
   14842 WT1  5369 TIP3 H2   HT     0.417000        1.0080           0
   14843 WT1  5371 TIP3 OH2  OT    -0.834000       15.9994           0
   14844 WT1  5371 TIP3 H1   HT     0.417000        1.0080           0
   14845 WT1  5371 TIP3 H2   HT     0.417000        1.0080           0
   14846 WT1  5372 TIP3 OH2  OT    -0.834000       15.9994           0
   14847 WT1  5372 TIP3 H1   HT     0.417000        1.0080           0
   14848 WT1  5372 TIP3 H2   HT     0.417000        1.0080           0
   14849 WT1  5373 TIP3 OH2  OT    -0.834000       15.9994           0
   14850 WT1  5373 TIP3 H1   HT     0.417000        1.0080           0
   14851 WT1  5373 TIP3 H2   HT     0.417000        1.0080           0
   14852 WT1  5374 TIP3 OH2  OT    -0.834000       15.9994           0
   14853 WT1  5374 TIP3 H1   HT     0.417000        1.0080           0
   14854 WT1  5374 TIP3 H2   HT     0.417000        1.0080           0
   14855 WT1  5375 TIP3 OH2  OT    -0.834000       15.9994           0
   14856 WT1  5375 TIP3 H1   HT     0.417000        1.0080           0
   14857 WT1  5375 TIP3 H2   HT     0.417000        1.0080           0
   14858 WT1  5376 TIP3 OH2  OT    -0.834000       15.9994           0
   14859 WT1  5376 TIP3 H1   HT     0.417000        1.0080           0
   14860 WT1  5376 TIP3 H2   HT     0.417000        1.0080           0
   14861 WT1  5377 TIP3 OH2  OT    -0.834000       15.9994           0
   14862 WT1  5377 TIP3 H1   HT     0.417000        1.0080           0
   14863 WT1  5377 TIP3 H2   HT     0.417000        1.0080           0
   14864 WT1  5378 TIP3 OH2  OT    -0.834000       15.9994           0
   14865 WT1  5378 TIP3 H1   HT     0.417000        1.0080           0
   14866 WT1  5378 TIP3 H2   HT     0.417000        1.0080           0
   14867 WT1  5379 TIP3 OH2  OT    -0.834000       15.9994           0
   14868 WT1  5379 TIP3 H1   HT     0.417000        1.0080           0
   14869 WT1  5379 TIP3 H2   HT     0.417000        1.0080           0
   14870 WT1  5380 TIP3 OH2  OT    -0.834000       15.9994           0
   14871 WT1  5380 TIP3 H1   HT     0.417000        1.0080           0
   14872 WT1  5380 TIP3 H2   HT     0.417000        1.0080           0
   14873 WT1  5381 TIP3 OH2  OT    -0.834000       15.9994           0
   14874 WT1  5381 TIP3 H1   HT     0.417000        1.0080           0
   14875 WT1  5381 TIP3 H2   HT     0.417000        1.0080           0
   14876 WT1  5382 TIP3 OH2  OT    -0.834000       15.9994           0
   14877 WT1  5382 TIP3 H1   HT     0.417000        1.0080           0
   14878 WT1  5382 TIP3 H2   HT     0.417000        1.0080           0
   14879 WT1  5383 TIP3 OH2  OT    -0.834000       15.9994           0
   14880 WT1  5383 TIP3 H1   HT     0.417000        1.0080           0
   14881 WT1  5383 TIP3 H2   HT     0.417000        1.0080           0
   14882 WT1  5384 TIP3 OH2  OT    -0.834000       15.9994           0
   14883 WT1  5384 TIP3 H1   HT     0.417000        1.0080           0
   14884 WT1  5384 TIP3 H2   HT     0.417000        1.0080           0
   14885 WT1  5385 TIP3 OH2  OT    -0.834000       15.9994           0
   14886 WT1  5385 TIP3 H1   HT     0.417000        1.0080           0
   14887 WT1  5385 TIP3 H2   HT     0.417000        1.0080           0
   14888 WT1  5386 TIP3 OH2  OT    -0.834000       15.9994           0
   14889 WT1  5386 TIP3 H1   HT     0.417000        1.0080           0
   14890 WT1  5386 TIP3 H2   HT     0.417000        1.0080           0
   14891 WT1  5387 TIP3 OH2  OT    -0.834000       15.9994           0
   14892 WT1  5387 TIP3 H1   HT     0.417000        1.0080           0
   14893 WT1  5387 TIP3 H2   HT     0.417000        1.0080           0
   14894 WT1  5388 TIP3 OH2  OT    -0.834000       15.9994           0
   14895 WT1  5388 TIP3 H1   HT     0.417000        1.0080           0
   14896 WT1  5388 TIP3 H2   HT     0.417000        1.0080           0
   14897 WT1  5389 TIP3 OH2  OT    -0.834000       15.9994           0
   14898 WT1  5389 TIP3 H1   HT     0.417000        1.0080           0
   14899 WT1  5389 TIP3 H2   HT     0.417000        1.0080           0
   14900 WT1  5390 TIP3 OH2  OT    -0.834000       15.9994           0
   14901 WT1  5390 TIP3 H1   HT     0.417000        1.0080           0
   14902 WT1  5390 TIP3 H2   HT     0.417000        1.0080           0
   14903 WT1  5391 TIP3 OH2  OT    -0.834000       15.9994           0
   14904 WT1  5391 TIP3 H1   HT     0.417000        1.0080           0
   14905 WT1  5391 TIP3 H2   HT     0.417000        1.0080           0
   14906 WT1  5392 TIP3 OH2  OT    -0.834000       15.9994           0
   14907 WT1  5392 TIP3 H1   HT     0.417000        1.0080           0
   14908 WT1  5392 TIP3 H2   HT     0.417000        1.0080           0
   14909 WT1  5393 TIP3 OH2  OT    -0.834000       15.9994           0
   14910 WT1  5393 TIP3 H1   HT     0.417000        1.0080           0
   14911 WT1  5393 TIP3 H2   HT     0.417000        1.0080           0
   14912 WT1  5394 TIP3 OH2  OT    -0.834000       15.9994           0
   14913 WT1  5394 TIP3 H1   HT     0.417000        1.0080           0
   14914 WT1  5394 TIP3 H2   HT     0.417000        1.0080           0
   14915 WT1  5396 TIP3 OH2  OT    -0.834000       15.9994           0
   14916 WT1  5396 TIP3 H1   HT     0.417000        1.0080           0
   14917 WT1  5396 TIP3 H2   HT     0.417000        1.0080           0
   14918 WT1  5397 TIP3 OH2  OT    -0.834000       15.9994           0
   14919 WT1  5397 TIP3 H1   HT     0.417000        1.0080           0
   14920 WT1  5397 TIP3 H2   HT     0.417000        1.0080           0
   14921 WT1  5399 TIP3 OH2  OT    -0.834000       15.9994           0
   14922 WT1  5399 TIP3 H1   HT     0.417000        1.0080           0
   14923 WT1  5399 TIP3 H2   HT     0.417000        1.0080           0
   14924 WT1  5400 TIP3 OH2  OT    -0.834000       15.9994           0
   14925 WT1  5400 TIP3 H1   HT     0.417000        1.0080           0
   14926 WT1  5400 TIP3 H2   HT     0.417000        1.0080           0
   14927 WT1  5401 TIP3 OH2  OT    -0.834000       15.9994           0
   14928 WT1  5401 TIP3 H1   HT     0.417000        1.0080           0
   14929 WT1  5401 TIP3 H2   HT     0.417000        1.0080           0
   14930 WT1  5402 TIP3 OH2  OT    -0.834000       15.9994           0
   14931 WT1  5402 TIP3 H1   HT     0.417000        1.0080           0
   14932 WT1  5402 TIP3 H2   HT     0.417000        1.0080           0
   14933 WT1  5403 TIP3 OH2  OT    -0.834000       15.9994           0
   14934 WT1  5403 TIP3 H1   HT     0.417000        1.0080           0
   14935 WT1  5403 TIP3 H2   HT     0.417000        1.0080           0
   14936 WT1  5404 TIP3 OH2  OT    -0.834000       15.9994           0
   14937 WT1  5404 TIP3 H1   HT     0.417000        1.0080           0
   14938 WT1  5404 TIP3 H2   HT     0.417000        1.0080           0
   14939 WT1  5405 TIP3 OH2  OT    -0.834000       15.9994           0
   14940 WT1  5405 TIP3 H1   HT     0.417000        1.0080           0
   14941 WT1  5405 TIP3 H2   HT     0.417000        1.0080           0
   14942 WT1  5406 TIP3 OH2  OT    -0.834000       15.9994           0
   14943 WT1  5406 TIP3 H1   HT     0.417000        1.0080           0
   14944 WT1  5406 TIP3 H2   HT     0.417000        1.0080           0
   14945 WT1  5407 TIP3 OH2  OT    -0.834000       15.9994           0
   14946 WT1  5407 TIP3 H1   HT     0.417000        1.0080           0
   14947 WT1  5407 TIP3 H2   HT     0.417000        1.0080           0
   14948 WT1  5408 TIP3 OH2  OT    -0.834000       15.9994           0
   14949 WT1  5408 TIP3 H1   HT     0.417000        1.0080           0
   14950 WT1  5408 TIP3 H2   HT     0.417000        1.0080           0
   14951 WT1  5410 TIP3 OH2  OT    -0.834000       15.9994           0
   14952 WT1  5410 TIP3 H1   HT     0.417000        1.0080           0
   14953 WT1  5410 TIP3 H2   HT     0.417000        1.0080           0
   14954 WT1  5411 TIP3 OH2  OT    -0.834000       15.9994           0
   14955 WT1  5411 TIP3 H1   HT     0.417000        1.0080           0
   14956 WT1  5411 TIP3 H2   HT     0.417000        1.0080           0
   14957 WT1  5412 TIP3 OH2  OT    -0.834000       15.9994           0
   14958 WT1  5412 TIP3 H1   HT     0.417000        1.0080           0
   14959 WT1  5412 TIP3 H2   HT     0.417000        1.0080           0
   14960 WT1  5413 TIP3 OH2  OT    -0.834000       15.9994           0
   14961 WT1  5413 TIP3 H1   HT     0.417000        1.0080           0
   14962 WT1  5413 TIP3 H2   HT     0.417000        1.0080           0
   14963 WT1  5414 TIP3 OH2  OT    -0.834000       15.9994           0
   14964 WT1  5414 TIP3 H1   HT     0.417000        1.0080           0
   14965 WT1  5414 TIP3 H2   HT     0.417000        1.0080           0
   14966 WT1  5415 TIP3 OH2  OT    -0.834000       15.9994           0
   14967 WT1  5415 TIP3 H1   HT     0.417000        1.0080           0
   14968 WT1  5415 TIP3 H2   HT     0.417000        1.0080           0
   14969 WT1  5416 TIP3 OH2  OT    -0.834000       15.9994           0
   14970 WT1  5416 TIP3 H1   HT     0.417000        1.0080           0
   14971 WT1  5416 TIP3 H2   HT     0.417000        1.0080           0
   14972 WT1  5417 TIP3 OH2  OT    -0.834000       15.9994           0
   14973 WT1  5417 TIP3 H1   HT     0.417000        1.0080           0
   14974 WT1  5417 TIP3 H2   HT     0.417000        1.0080           0
   14975 WT1  5419 TIP3 OH2  OT    -0.834000       15.9994           0
   14976 WT1  5419 TIP3 H1   HT     0.417000        1.0080           0
   14977 WT1  5419 TIP3 H2   HT     0.417000        1.0080           0
   14978 WT1  5421 TIP3 OH2  OT    -0.834000       15.9994           0
   14979 WT1  5421 TIP3 H1   HT     0.417000        1.0080           0
   14980 WT1  5421 TIP3 H2   HT     0.417000        1.0080           0
   14981 WT1  5422 TIP3 OH2  OT    -0.834000       15.9994           0
   14982 WT1  5422 TIP3 H1   HT     0.417000        1.0080           0
   14983 WT1  5422 TIP3 H2   HT     0.417000        1.0080           0
   14984 WT1  5423 TIP3 OH2  OT    -0.834000       15.9994           0
   14985 WT1  5423 TIP3 H1   HT     0.417000        1.0080           0
   14986 WT1  5423 TIP3 H2   HT     0.417000        1.0080           0
   14987 WT1  5424 TIP3 OH2  OT    -0.834000       15.9994           0
   14988 WT1  5424 TIP3 H1   HT     0.417000        1.0080           0
   14989 WT1  5424 TIP3 H2   HT     0.417000        1.0080           0
   14990 WT1  5425 TIP3 OH2  OT    -0.834000       15.9994           0
   14991 WT1  5425 TIP3 H1   HT     0.417000        1.0080           0
   14992 WT1  5425 TIP3 H2   HT     0.417000        1.0080           0
   14993 WT1  5426 TIP3 OH2  OT    -0.834000       15.9994           0
   14994 WT1  5426 TIP3 H1   HT     0.417000        1.0080           0
   14995 WT1  5426 TIP3 H2   HT     0.417000        1.0080           0
   14996 WT1  5427 TIP3 OH2  OT    -0.834000       15.9994           0
   14997 WT1  5427 TIP3 H1   HT     0.417000        1.0080           0
   14998 WT1  5427 TIP3 H2   HT     0.417000        1.0080           0
   14999 WT1  5428 TIP3 OH2  OT    -0.834000       15.9994           0
   15000 WT1  5428 TIP3 H1   HT     0.417000        1.0080           0
   15001 WT1  5428 TIP3 H2   HT     0.417000        1.0080           0
   15002 WT1  5429 TIP3 OH2  OT    -0.834000       15.9994           0
   15003 WT1  5429 TIP3 H1   HT     0.417000        1.0080           0
   15004 WT1  5429 TIP3 H2   HT     0.417000        1.0080           0
   15005 WT1  5430 TIP3 OH2  OT    -0.834000       15.9994           0
   15006 WT1  5430 TIP3 H1   HT     0.417000        1.0080           0
   15007 WT1  5430 TIP3 H2   HT     0.417000        1.0080           0
   15008 WT1  5431 TIP3 OH2  OT    -0.834000       15.9994           0
   15009 WT1  5431 TIP3 H1   HT     0.417000        1.0080           0
   15010 WT1  5431 TIP3 H2   HT     0.417000        1.0080           0
   15011 WT1  5433 TIP3 OH2  OT    -0.834000       15.9994           0
   15012 WT1  5433 TIP3 H1   HT     0.417000        1.0080           0
   15013 WT1  5433 TIP3 H2   HT     0.417000        1.0080           0
   15014 WT1  5434 TIP3 OH2  OT    -0.834000       15.9994           0
   15015 WT1  5434 TIP3 H1   HT     0.417000        1.0080           0
   15016 WT1  5434 TIP3 H2   HT     0.417000        1.0080           0
   15017 WT1  5436 TIP3 OH2  OT    -0.834000       15.9994           0
   15018 WT1  5436 TIP3 H1   HT     0.417000        1.0080           0
   15019 WT1  5436 TIP3 H2   HT     0.417000        1.0080           0
   15020 WT1  5437 TIP3 OH2  OT    -0.834000       15.9994           0
   15021 WT1  5437 TIP3 H1   HT     0.417000        1.0080           0
   15022 WT1  5437 TIP3 H2   HT     0.417000        1.0080           0
   15023 WT1  5439 TIP3 OH2  OT    -0.834000       15.9994           0
   15024 WT1  5439 TIP3 H1   HT     0.417000        1.0080           0
   15025 WT1  5439 TIP3 H2   HT     0.417000        1.0080           0
   15026 WT1  5440 TIP3 OH2  OT    -0.834000       15.9994           0
   15027 WT1  5440 TIP3 H1   HT     0.417000        1.0080           0
   15028 WT1  5440 TIP3 H2   HT     0.417000        1.0080           0
   15029 WT1  5441 TIP3 OH2  OT    -0.834000       15.9994           0
   15030 WT1  5441 TIP3 H1   HT     0.417000        1.0080           0
   15031 WT1  5441 TIP3 H2   HT     0.417000        1.0080           0
   15032 WT1  5442 TIP3 OH2  OT    -0.834000       15.9994           0
   15033 WT1  5442 TIP3 H1   HT     0.417000        1.0080           0
   15034 WT1  5442 TIP3 H2   HT     0.417000        1.0080           0
   15035 WT1  5443 TIP3 OH2  OT    -0.834000       15.9994           0
   15036 WT1  5443 TIP3 H1   HT     0.417000        1.0080           0
   15037 WT1  5443 TIP3 H2   HT     0.417000        1.0080           0
   15038 WT1  5444 TIP3 OH2  OT    -0.834000       15.9994           0
   15039 WT1  5444 TIP3 H1   HT     0.417000        1.0080           0
   15040 WT1  5444 TIP3 H2   HT     0.417000        1.0080           0
   15041 WT1  5445 TIP3 OH2  OT    -0.834000       15.9994           0
   15042 WT1  5445 TIP3 H1   HT     0.417000        1.0080           0
   15043 WT1  5445 TIP3 H2   HT     0.417000        1.0080           0
   15044 WT1  5446 TIP3 OH2  OT    -0.834000       15.9994           0
   15045 WT1  5446 TIP3 H1   HT     0.417000        1.0080           0
   15046 WT1  5446 TIP3 H2   HT     0.417000        1.0080           0
   15047 WT1  5447 TIP3 OH2  OT    -0.834000       15.9994           0
   15048 WT1  5447 TIP3 H1   HT     0.417000        1.0080           0
   15049 WT1  5447 TIP3 H2   HT     0.417000        1.0080           0
   15050 WT1  5448 TIP3 OH2  OT    -0.834000       15.9994           0
   15051 WT1  5448 TIP3 H1   HT     0.417000        1.0080           0
   15052 WT1  5448 TIP3 H2   HT     0.417000        1.0080           0
   15053 WT1  5449 TIP3 OH2  OT    -0.834000       15.9994           0
   15054 WT1  5449 TIP3 H1   HT     0.417000        1.0080           0
   15055 WT1  5449 TIP3 H2   HT     0.417000        1.0080           0
   15056 WT1  5450 TIP3 OH2  OT    -0.834000       15.9994           0
   15057 WT1  5450 TIP3 H1   HT     0.417000        1.0080           0
   15058 WT1  5450 TIP3 H2   HT     0.417000        1.0080           0
   15059 WT1  5451 TIP3 OH2  OT    -0.834000       15.9994           0
   15060 WT1  5451 TIP3 H1   HT     0.417000        1.0080           0
   15061 WT1  5451 TIP3 H2   HT     0.417000        1.0080           0
   15062 WT1  5452 TIP3 OH2  OT    -0.834000       15.9994           0
   15063 WT1  5452 TIP3 H1   HT     0.417000        1.0080           0
   15064 WT1  5452 TIP3 H2   HT     0.417000        1.0080           0
   15065 WT1  5453 TIP3 OH2  OT    -0.834000       15.9994           0
   15066 WT1  5453 TIP3 H1   HT     0.417000        1.0080           0
   15067 WT1  5453 TIP3 H2   HT     0.417000        1.0080           0
   15068 WT1  5454 TIP3 OH2  OT    -0.834000       15.9994           0
   15069 WT1  5454 TIP3 H1   HT     0.417000        1.0080           0
   15070 WT1  5454 TIP3 H2   HT     0.417000        1.0080           0
   15071 WT1  5455 TIP3 OH2  OT    -0.834000       15.9994           0
   15072 WT1  5455 TIP3 H1   HT     0.417000        1.0080           0
   15073 WT1  5455 TIP3 H2   HT     0.417000        1.0080           0
   15074 WT1  5458 TIP3 OH2  OT    -0.834000       15.9994           0
   15075 WT1  5458 TIP3 H1   HT     0.417000        1.0080           0
   15076 WT1  5458 TIP3 H2   HT     0.417000        1.0080           0
   15077 WT1  5459 TIP3 OH2  OT    -0.834000       15.9994           0
   15078 WT1  5459 TIP3 H1   HT     0.417000        1.0080           0
   15079 WT1  5459 TIP3 H2   HT     0.417000        1.0080           0
   15080 WT1  5460 TIP3 OH2  OT    -0.834000       15.9994           0
   15081 WT1  5460 TIP3 H1   HT     0.417000        1.0080           0
   15082 WT1  5460 TIP3 H2   HT     0.417000        1.0080           0
   15083 WT1  5461 TIP3 OH2  OT    -0.834000       15.9994           0
   15084 WT1  5461 TIP3 H1   HT     0.417000        1.0080           0
   15085 WT1  5461 TIP3 H2   HT     0.417000        1.0080           0
   15086 WT1  5462 TIP3 OH2  OT    -0.834000       15.9994           0
   15087 WT1  5462 TIP3 H1   HT     0.417000        1.0080           0
   15088 WT1  5462 TIP3 H2   HT     0.417000        1.0080           0
   15089 WT1  5463 TIP3 OH2  OT    -0.834000       15.9994           0
   15090 WT1  5463 TIP3 H1   HT     0.417000        1.0080           0
   15091 WT1  5463 TIP3 H2   HT     0.417000        1.0080           0
   15092 WT1  5464 TIP3 OH2  OT    -0.834000       15.9994           0
   15093 WT1  5464 TIP3 H1   HT     0.417000        1.0080           0
   15094 WT1  5464 TIP3 H2   HT     0.417000        1.0080           0
   15095 WT1  5465 TIP3 OH2  OT    -0.834000       15.9994           0
   15096 WT1  5465 TIP3 H1   HT     0.417000        1.0080           0
   15097 WT1  5465 TIP3 H2   HT     0.417000        1.0080           0
   15098 WT1  5466 TIP3 OH2  OT    -0.834000       15.9994           0
   15099 WT1  5466 TIP3 H1   HT     0.417000        1.0080           0
   15100 WT1  5466 TIP3 H2   HT     0.417000        1.0080           0
   15101 WT1  5469 TIP3 OH2  OT    -0.834000       15.9994           0
   15102 WT1  5469 TIP3 H1   HT     0.417000        1.0080           0
   15103 WT1  5469 TIP3 H2   HT     0.417000        1.0080           0
   15104 WT1  5470 TIP3 OH2  OT    -0.834000       15.9994           0
   15105 WT1  5470 TIP3 H1   HT     0.417000        1.0080           0
   15106 WT1  5470 TIP3 H2   HT     0.417000        1.0080           0
   15107 WT1  5471 TIP3 OH2  OT    -0.834000       15.9994           0
   15108 WT1  5471 TIP3 H1   HT     0.417000        1.0080           0
   15109 WT1  5471 TIP3 H2   HT     0.417000        1.0080           0
   15110 WT1  5472 TIP3 OH2  OT    -0.834000       15.9994           0
   15111 WT1  5472 TIP3 H1   HT     0.417000        1.0080           0
   15112 WT1  5472 TIP3 H2   HT     0.417000        1.0080           0
   15113 WT1  5473 TIP3 OH2  OT    -0.834000       15.9994           0
   15114 WT1  5473 TIP3 H1   HT     0.417000        1.0080           0
   15115 WT1  5473 TIP3 H2   HT     0.417000        1.0080           0
   15116 WT1  5474 TIP3 OH2  OT    -0.834000       15.9994           0
   15117 WT1  5474 TIP3 H1   HT     0.417000        1.0080           0
   15118 WT1  5474 TIP3 H2   HT     0.417000        1.0080           0
   15119 WT1  5475 TIP3 OH2  OT    -0.834000       15.9994           0
   15120 WT1  5475 TIP3 H1   HT     0.417000        1.0080           0
   15121 WT1  5475 TIP3 H2   HT     0.417000        1.0080           0
   15122 WT1  5476 TIP3 OH2  OT    -0.834000       15.9994           0
   15123 WT1  5476 TIP3 H1   HT     0.417000        1.0080           0
   15124 WT1  5476 TIP3 H2   HT     0.417000        1.0080           0
   15125 WT1  5477 TIP3 OH2  OT    -0.834000       15.9994           0
   15126 WT1  5477 TIP3 H1   HT     0.417000        1.0080           0
   15127 WT1  5477 TIP3 H2   HT     0.417000        1.0080           0
   15128 WT1  5478 TIP3 OH2  OT    -0.834000       15.9994           0
   15129 WT1  5478 TIP3 H1   HT     0.417000        1.0080           0
   15130 WT1  5478 TIP3 H2   HT     0.417000        1.0080           0
   15131 WT1  5480 TIP3 OH2  OT    -0.834000       15.9994           0
   15132 WT1  5480 TIP3 H1   HT     0.417000        1.0080           0
   15133 WT1  5480 TIP3 H2   HT     0.417000        1.0080           0
   15134 WT1  5481 TIP3 OH2  OT    -0.834000       15.9994           0
   15135 WT1  5481 TIP3 H1   HT     0.417000        1.0080           0
   15136 WT1  5481 TIP3 H2   HT     0.417000        1.0080           0
   15137 WT1  5482 TIP3 OH2  OT    -0.834000       15.9994           0
   15138 WT1  5482 TIP3 H1   HT     0.417000        1.0080           0
   15139 WT1  5482 TIP3 H2   HT     0.417000        1.0080           0
   15140 WT1  5483 TIP3 OH2  OT    -0.834000       15.9994           0
   15141 WT1  5483 TIP3 H1   HT     0.417000        1.0080           0
   15142 WT1  5483 TIP3 H2   HT     0.417000        1.0080           0
   15143 WT1  5484 TIP3 OH2  OT    -0.834000       15.9994           0
   15144 WT1  5484 TIP3 H1   HT     0.417000        1.0080           0
   15145 WT1  5484 TIP3 H2   HT     0.417000        1.0080           0
   15146 WT1  5485 TIP3 OH2  OT    -0.834000       15.9994           0
   15147 WT1  5485 TIP3 H1   HT     0.417000        1.0080           0
   15148 WT1  5485 TIP3 H2   HT     0.417000        1.0080           0
   15149 WT1  5487 TIP3 OH2  OT    -0.834000       15.9994           0
   15150 WT1  5487 TIP3 H1   HT     0.417000        1.0080           0
   15151 WT1  5487 TIP3 H2   HT     0.417000        1.0080           0
   15152 WT1  5488 TIP3 OH2  OT    -0.834000       15.9994           0
   15153 WT1  5488 TIP3 H1   HT     0.417000        1.0080           0
   15154 WT1  5488 TIP3 H2   HT     0.417000        1.0080           0
   15155 WT1  5491 TIP3 OH2  OT    -0.834000       15.9994           0
   15156 WT1  5491 TIP3 H1   HT     0.417000        1.0080           0
   15157 WT1  5491 TIP3 H2   HT     0.417000        1.0080           0
   15158 WT1  5492 TIP3 OH2  OT    -0.834000       15.9994           0
   15159 WT1  5492 TIP3 H1   HT     0.417000        1.0080           0
   15160 WT1  5492 TIP3 H2   HT     0.417000        1.0080           0
   15161 WT1  5493 TIP3 OH2  OT    -0.834000       15.9994           0
   15162 WT1  5493 TIP3 H1   HT     0.417000        1.0080           0
   15163 WT1  5493 TIP3 H2   HT     0.417000        1.0080           0
   15164 WT1  5494 TIP3 OH2  OT    -0.834000       15.9994           0
   15165 WT1  5494 TIP3 H1   HT     0.417000        1.0080           0
   15166 WT1  5494 TIP3 H2   HT     0.417000        1.0080           0
   15167 WT1  5495 TIP3 OH2  OT    -0.834000       15.9994           0
   15168 WT1  5495 TIP3 H1   HT     0.417000        1.0080           0
   15169 WT1  5495 TIP3 H2   HT     0.417000        1.0080           0
   15170 WT1  5496 TIP3 OH2  OT    -0.834000       15.9994           0
   15171 WT1  5496 TIP3 H1   HT     0.417000        1.0080           0
   15172 WT1  5496 TIP3 H2   HT     0.417000        1.0080           0
   15173 WT1  5497 TIP3 OH2  OT    -0.834000       15.9994           0
   15174 WT1  5497 TIP3 H1   HT     0.417000        1.0080           0
   15175 WT1  5497 TIP3 H2   HT     0.417000        1.0080           0
   15176 WT1  5498 TIP3 OH2  OT    -0.834000       15.9994           0
   15177 WT1  5498 TIP3 H1   HT     0.417000        1.0080           0
   15178 WT1  5498 TIP3 H2   HT     0.417000        1.0080           0
   15179 WT1  5499 TIP3 OH2  OT    -0.834000       15.9994           0
   15180 WT1  5499 TIP3 H1   HT     0.417000        1.0080           0
   15181 WT1  5499 TIP3 H2   HT     0.417000        1.0080           0
   15182 WT1  5500 TIP3 OH2  OT    -0.834000       15.9994           0
   15183 WT1  5500 TIP3 H1   HT     0.417000        1.0080           0
   15184 WT1  5500 TIP3 H2   HT     0.417000        1.0080           0
   15185 WT1  5503 TIP3 OH2  OT    -0.834000       15.9994           0
   15186 WT1  5503 TIP3 H1   HT     0.417000        1.0080           0
   15187 WT1  5503 TIP3 H2   HT     0.417000        1.0080           0
   15188 WT1  5504 TIP3 OH2  OT    -0.834000       15.9994           0
   15189 WT1  5504 TIP3 H1   HT     0.417000        1.0080           0
   15190 WT1  5504 TIP3 H2   HT     0.417000        1.0080           0
   15191 WT1  5505 TIP3 OH2  OT    -0.834000       15.9994           0
   15192 WT1  5505 TIP3 H1   HT     0.417000        1.0080           0
   15193 WT1  5505 TIP3 H2   HT     0.417000        1.0080           0
   15194 WT1  5506 TIP3 OH2  OT    -0.834000       15.9994           0
   15195 WT1  5506 TIP3 H1   HT     0.417000        1.0080           0
   15196 WT1  5506 TIP3 H2   HT     0.417000        1.0080           0
   15197 WT1  5507 TIP3 OH2  OT    -0.834000       15.9994           0
   15198 WT1  5507 TIP3 H1   HT     0.417000        1.0080           0
   15199 WT1  5507 TIP3 H2   HT     0.417000        1.0080           0
   15200 WT1  5508 TIP3 OH2  OT    -0.834000       15.9994           0
   15201 WT1  5508 TIP3 H1   HT     0.417000        1.0080           0
   15202 WT1  5508 TIP3 H2   HT     0.417000        1.0080           0
   15203 WT1  5509 TIP3 OH2  OT    -0.834000       15.9994           0
   15204 WT1  5509 TIP3 H1   HT     0.417000        1.0080           0
   15205 WT1  5509 TIP3 H2   HT     0.417000        1.0080           0
   15206 WT1  5510 TIP3 OH2  OT    -0.834000       15.9994           0
   15207 WT1  5510 TIP3 H1   HT     0.417000        1.0080           0
   15208 WT1  5510 TIP3 H2   HT     0.417000        1.0080           0
   15209 WT1  5512 TIP3 OH2  OT    -0.834000       15.9994           0
   15210 WT1  5512 TIP3 H1   HT     0.417000        1.0080           0
   15211 WT1  5512 TIP3 H2   HT     0.417000        1.0080           0
   15212 WT1  5513 TIP3 OH2  OT    -0.834000       15.9994           0
   15213 WT1  5513 TIP3 H1   HT     0.417000        1.0080           0
   15214 WT1  5513 TIP3 H2   HT     0.417000        1.0080           0
   15215 WT1  5514 TIP3 OH2  OT    -0.834000       15.9994           0
   15216 WT1  5514 TIP3 H1   HT     0.417000        1.0080           0
   15217 WT1  5514 TIP3 H2   HT     0.417000        1.0080           0
   15218 WT1  5516 TIP3 OH2  OT    -0.834000       15.9994           0
   15219 WT1  5516 TIP3 H1   HT     0.417000        1.0080           0
   15220 WT1  5516 TIP3 H2   HT     0.417000        1.0080           0
   15221 WT1  5517 TIP3 OH2  OT    -0.834000       15.9994           0
   15222 WT1  5517 TIP3 H1   HT     0.417000        1.0080           0
   15223 WT1  5517 TIP3 H2   HT     0.417000        1.0080           0
   15224 WT1  5518 TIP3 OH2  OT    -0.834000       15.9994           0
   15225 WT1  5518 TIP3 H1   HT     0.417000        1.0080           0
   15226 WT1  5518 TIP3 H2   HT     0.417000        1.0080           0
   15227 WT1  5519 TIP3 OH2  OT    -0.834000       15.9994           0
   15228 WT1  5519 TIP3 H1   HT     0.417000        1.0080           0
   15229 WT1  5519 TIP3 H2   HT     0.417000        1.0080           0
   15230 WT1  5521 TIP3 OH2  OT    -0.834000       15.9994           0
   15231 WT1  5521 TIP3 H1   HT     0.417000        1.0080           0
   15232 WT1  5521 TIP3 H2   HT     0.417000        1.0080           0
   15233 WT1  5522 TIP3 OH2  OT    -0.834000       15.9994           0
   15234 WT1  5522 TIP3 H1   HT     0.417000        1.0080           0
   15235 WT1  5522 TIP3 H2   HT     0.417000        1.0080           0
   15236 WT1  5523 TIP3 OH2  OT    -0.834000       15.9994           0
   15237 WT1  5523 TIP3 H1   HT     0.417000        1.0080           0
   15238 WT1  5523 TIP3 H2   HT     0.417000        1.0080           0
   15239 WT1  5524 TIP3 OH2  OT    -0.834000       15.9994           0
   15240 WT1  5524 TIP3 H1   HT     0.417000        1.0080           0
   15241 WT1  5524 TIP3 H2   HT     0.417000        1.0080           0
   15242 WT1  5525 TIP3 OH2  OT    -0.834000       15.9994           0
   15243 WT1  5525 TIP3 H1   HT     0.417000        1.0080           0
   15244 WT1  5525 TIP3 H2   HT     0.417000        1.0080           0
   15245 WT1  5526 TIP3 OH2  OT    -0.834000       15.9994           0
   15246 WT1  5526 TIP3 H1   HT     0.417000        1.0080           0
   15247 WT1  5526 TIP3 H2   HT     0.417000        1.0080           0
   15248 WT1  5527 TIP3 OH2  OT    -0.834000       15.9994           0
   15249 WT1  5527 TIP3 H1   HT     0.417000        1.0080           0
   15250 WT1  5527 TIP3 H2   HT     0.417000        1.0080           0
   15251 WT1  5529 TIP3 OH2  OT    -0.834000       15.9994           0
   15252 WT1  5529 TIP3 H1   HT     0.417000        1.0080           0
   15253 WT1  5529 TIP3 H2   HT     0.417000        1.0080           0
   15254 WT1  5530 TIP3 OH2  OT    -0.834000       15.9994           0
   15255 WT1  5530 TIP3 H1   HT     0.417000        1.0080           0
   15256 WT1  5530 TIP3 H2   HT     0.417000        1.0080           0
   15257 WT1  5532 TIP3 OH2  OT    -0.834000       15.9994           0
   15258 WT1  5532 TIP3 H1   HT     0.417000        1.0080           0
   15259 WT1  5532 TIP3 H2   HT     0.417000        1.0080           0
   15260 WT1  5533 TIP3 OH2  OT    -0.834000       15.9994           0
   15261 WT1  5533 TIP3 H1   HT     0.417000        1.0080           0
   15262 WT1  5533 TIP3 H2   HT     0.417000        1.0080           0
   15263 WT1  5534 TIP3 OH2  OT    -0.834000       15.9994           0
   15264 WT1  5534 TIP3 H1   HT     0.417000        1.0080           0
   15265 WT1  5534 TIP3 H2   HT     0.417000        1.0080           0
   15266 WT1  5538 TIP3 OH2  OT    -0.834000       15.9994           0
   15267 WT1  5538 TIP3 H1   HT     0.417000        1.0080           0
   15268 WT1  5538 TIP3 H2   HT     0.417000        1.0080           0
   15269 WT1  5541 TIP3 OH2  OT    -0.834000       15.9994           0
   15270 WT1  5541 TIP3 H1   HT     0.417000        1.0080           0
   15271 WT1  5541 TIP3 H2   HT     0.417000        1.0080           0
   15272 WT1  5542 TIP3 OH2  OT    -0.834000       15.9994           0
   15273 WT1  5542 TIP3 H1   HT     0.417000        1.0080           0
   15274 WT1  5542 TIP3 H2   HT     0.417000        1.0080           0
   15275 WT1  5543 TIP3 OH2  OT    -0.834000       15.9994           0
   15276 WT1  5543 TIP3 H1   HT     0.417000        1.0080           0
   15277 WT1  5543 TIP3 H2   HT     0.417000        1.0080           0
   15278 WT1  5544 TIP3 OH2  OT    -0.834000       15.9994           0
   15279 WT1  5544 TIP3 H1   HT     0.417000        1.0080           0
   15280 WT1  5544 TIP3 H2   HT     0.417000        1.0080           0
   15281 WT1  5545 TIP3 OH2  OT    -0.834000       15.9994           0
   15282 WT1  5545 TIP3 H1   HT     0.417000        1.0080           0
   15283 WT1  5545 TIP3 H2   HT     0.417000        1.0080           0
   15284 WT1  5547 TIP3 OH2  OT    -0.834000       15.9994           0
   15285 WT1  5547 TIP3 H1   HT     0.417000        1.0080           0
   15286 WT1  5547 TIP3 H2   HT     0.417000        1.0080           0
   15287 WT1  5549 TIP3 OH2  OT    -0.834000       15.9994           0
   15288 WT1  5549 TIP3 H1   HT     0.417000        1.0080           0
   15289 WT1  5549 TIP3 H2   HT     0.417000        1.0080           0
   15290 WT1  5550 TIP3 OH2  OT    -0.834000       15.9994           0
   15291 WT1  5550 TIP3 H1   HT     0.417000        1.0080           0
   15292 WT1  5550 TIP3 H2   HT     0.417000        1.0080           0
   15293 WT1  5551 TIP3 OH2  OT    -0.834000       15.9994           0
   15294 WT1  5551 TIP3 H1   HT     0.417000        1.0080           0
   15295 WT1  5551 TIP3 H2   HT     0.417000        1.0080           0
   15296 WT1  5552 TIP3 OH2  OT    -0.834000       15.9994           0
   15297 WT1  5552 TIP3 H1   HT     0.417000        1.0080           0
   15298 WT1  5552 TIP3 H2   HT     0.417000        1.0080           0
   15299 WT1  5554 TIP3 OH2  OT    -0.834000       15.9994           0
   15300 WT1  5554 TIP3 H1   HT     0.417000        1.0080           0
   15301 WT1  5554 TIP3 H2   HT     0.417000        1.0080           0
   15302 WT1  5556 TIP3 OH2  OT    -0.834000       15.9994           0
   15303 WT1  5556 TIP3 H1   HT     0.417000        1.0080           0
   15304 WT1  5556 TIP3 H2   HT     0.417000        1.0080           0
   15305 WT1  5558 TIP3 OH2  OT    -0.834000       15.9994           0
   15306 WT1  5558 TIP3 H1   HT     0.417000        1.0080           0
   15307 WT1  5558 TIP3 H2   HT     0.417000        1.0080           0
   15308 WT1  5561 TIP3 OH2  OT    -0.834000       15.9994           0
   15309 WT1  5561 TIP3 H1   HT     0.417000        1.0080           0
   15310 WT1  5561 TIP3 H2   HT     0.417000        1.0080           0
   15311 WT1  5562 TIP3 OH2  OT    -0.834000       15.9994           0
   15312 WT1  5562 TIP3 H1   HT     0.417000        1.0080           0
   15313 WT1  5562 TIP3 H2   HT     0.417000        1.0080           0
   15314 WT1  5563 TIP3 OH2  OT    -0.834000       15.9994           0
   15315 WT1  5563 TIP3 H1   HT     0.417000        1.0080           0
   15316 WT1  5563 TIP3 H2   HT     0.417000        1.0080           0
   15317 WT1  5564 TIP3 OH2  OT    -0.834000       15.9994           0
   15318 WT1  5564 TIP3 H1   HT     0.417000        1.0080           0
   15319 WT1  5564 TIP3 H2   HT     0.417000        1.0080           0
   15320 WT1  5565 TIP3 OH2  OT    -0.834000       15.9994           0
   15321 WT1  5565 TIP3 H1   HT     0.417000        1.0080           0
   15322 WT1  5565 TIP3 H2   HT     0.417000        1.0080           0
   15323 WT1  5566 TIP3 OH2  OT    -0.834000       15.9994           0
   15324 WT1  5566 TIP3 H1   HT     0.417000        1.0080           0
   15325 WT1  5566 TIP3 H2   HT     0.417000        1.0080           0
   15326 WT1  5568 TIP3 OH2  OT    -0.834000       15.9994           0
   15327 WT1  5568 TIP3 H1   HT     0.417000        1.0080           0
   15328 WT1  5568 TIP3 H2   HT     0.417000        1.0080           0
   15329 WT1  5569 TIP3 OH2  OT    -0.834000       15.9994           0
   15330 WT1  5569 TIP3 H1   HT     0.417000        1.0080           0
   15331 WT1  5569 TIP3 H2   HT     0.417000        1.0080           0
   15332 WT1  5571 TIP3 OH2  OT    -0.834000       15.9994           0
   15333 WT1  5571 TIP3 H1   HT     0.417000        1.0080           0
   15334 WT1  5571 TIP3 H2   HT     0.417000        1.0080           0
   15335 WT1  5572 TIP3 OH2  OT    -0.834000       15.9994           0
   15336 WT1  5572 TIP3 H1   HT     0.417000        1.0080           0
   15337 WT1  5572 TIP3 H2   HT     0.417000        1.0080           0
   15338 WT1  5573 TIP3 OH2  OT    -0.834000       15.9994           0
   15339 WT1  5573 TIP3 H1   HT     0.417000        1.0080           0
   15340 WT1  5573 TIP3 H2   HT     0.417000        1.0080           0
   15341 WT1  5576 TIP3 OH2  OT    -0.834000       15.9994           0
   15342 WT1  5576 TIP3 H1   HT     0.417000        1.0080           0
   15343 WT1  5576 TIP3 H2   HT     0.417000        1.0080           0
   15344 WT1  5577 TIP3 OH2  OT    -0.834000       15.9994           0
   15345 WT1  5577 TIP3 H1   HT     0.417000        1.0080           0
   15346 WT1  5577 TIP3 H2   HT     0.417000        1.0080           0
   15347 WT1  5578 TIP3 OH2  OT    -0.834000       15.9994           0
   15348 WT1  5578 TIP3 H1   HT     0.417000        1.0080           0
   15349 WT1  5578 TIP3 H2   HT     0.417000        1.0080           0
   15350 WT1  5580 TIP3 OH2  OT    -0.834000       15.9994           0
   15351 WT1  5580 TIP3 H1   HT     0.417000        1.0080           0
   15352 WT1  5580 TIP3 H2   HT     0.417000        1.0080           0
   15353 WT1  5581 TIP3 OH2  OT    -0.834000       15.9994           0
   15354 WT1  5581 TIP3 H1   HT     0.417000        1.0080           0
   15355 WT1  5581 TIP3 H2   HT     0.417000        1.0080           0
   15356 WT1  5582 TIP3 OH2  OT    -0.834000       15.9994           0
   15357 WT1  5582 TIP3 H1   HT     0.417000        1.0080           0
   15358 WT1  5582 TIP3 H2   HT     0.417000        1.0080           0
   15359 WT1  5584 TIP3 OH2  OT    -0.834000       15.9994           0
   15360 WT1  5584 TIP3 H1   HT     0.417000        1.0080           0
   15361 WT1  5584 TIP3 H2   HT     0.417000        1.0080           0
   15362 WT1  5585 TIP3 OH2  OT    -0.834000       15.9994           0
   15363 WT1  5585 TIP3 H1   HT     0.417000        1.0080           0
   15364 WT1  5585 TIP3 H2   HT     0.417000        1.0080           0
   15365 WT1  5586 TIP3 OH2  OT    -0.834000       15.9994           0
   15366 WT1  5586 TIP3 H1   HT     0.417000        1.0080           0
   15367 WT1  5586 TIP3 H2   HT     0.417000        1.0080           0
   15368 WT1  5587 TIP3 OH2  OT    -0.834000       15.9994           0
   15369 WT1  5587 TIP3 H1   HT     0.417000        1.0080           0
   15370 WT1  5587 TIP3 H2   HT     0.417000        1.0080           0
   15371 WT1  5589 TIP3 OH2  OT    -0.834000       15.9994           0
   15372 WT1  5589 TIP3 H1   HT     0.417000        1.0080           0
   15373 WT1  5589 TIP3 H2   HT     0.417000        1.0080           0
   15374 WT1  5590 TIP3 OH2  OT    -0.834000       15.9994           0
   15375 WT1  5590 TIP3 H1   HT     0.417000        1.0080           0
   15376 WT1  5590 TIP3 H2   HT     0.417000        1.0080           0
   15377 WT1  5592 TIP3 OH2  OT    -0.834000       15.9994           0
   15378 WT1  5592 TIP3 H1   HT     0.417000        1.0080           0
   15379 WT1  5592 TIP3 H2   HT     0.417000        1.0080           0
   15380 WT1  5593 TIP3 OH2  OT    -0.834000       15.9994           0
   15381 WT1  5593 TIP3 H1   HT     0.417000        1.0080           0
   15382 WT1  5593 TIP3 H2   HT     0.417000        1.0080           0
   15383 WT1  5594 TIP3 OH2  OT    -0.834000       15.9994           0
   15384 WT1  5594 TIP3 H1   HT     0.417000        1.0080           0
   15385 WT1  5594 TIP3 H2   HT     0.417000        1.0080           0
   15386 WT1  5595 TIP3 OH2  OT    -0.834000       15.9994           0
   15387 WT1  5595 TIP3 H1   HT     0.417000        1.0080           0
   15388 WT1  5595 TIP3 H2   HT     0.417000        1.0080           0
   15389 WT1  5596 TIP3 OH2  OT    -0.834000       15.9994           0
   15390 WT1  5596 TIP3 H1   HT     0.417000        1.0080           0
   15391 WT1  5596 TIP3 H2   HT     0.417000        1.0080           0
   15392 WT1  5597 TIP3 OH2  OT    -0.834000       15.9994           0
   15393 WT1  5597 TIP3 H1   HT     0.417000        1.0080           0
   15394 WT1  5597 TIP3 H2   HT     0.417000        1.0080           0
   15395 WT1  5598 TIP3 OH2  OT    -0.834000       15.9994           0
   15396 WT1  5598 TIP3 H1   HT     0.417000        1.0080           0
   15397 WT1  5598 TIP3 H2   HT     0.417000        1.0080           0
   15398 WT1  5600 TIP3 OH2  OT    -0.834000       15.9994           0
   15399 WT1  5600 TIP3 H1   HT     0.417000        1.0080           0
   15400 WT1  5600 TIP3 H2   HT     0.417000        1.0080           0
   15401 WT1  5601 TIP3 OH2  OT    -0.834000       15.9994           0
   15402 WT1  5601 TIP3 H1   HT     0.417000        1.0080           0
   15403 WT1  5601 TIP3 H2   HT     0.417000        1.0080           0
   15404 WT1  5602 TIP3 OH2  OT    -0.834000       15.9994           0
   15405 WT1  5602 TIP3 H1   HT     0.417000        1.0080           0
   15406 WT1  5602 TIP3 H2   HT     0.417000        1.0080           0
   15407 WT1  5603 TIP3 OH2  OT    -0.834000       15.9994           0
   15408 WT1  5603 TIP3 H1   HT     0.417000        1.0080           0
   15409 WT1  5603 TIP3 H2   HT     0.417000        1.0080           0
   15410 WT1  5604 TIP3 OH2  OT    -0.834000       15.9994           0
   15411 WT1  5604 TIP3 H1   HT     0.417000        1.0080           0
   15412 WT1  5604 TIP3 H2   HT     0.417000        1.0080           0
   15413 WT1  5605 TIP3 OH2  OT    -0.834000       15.9994           0
   15414 WT1  5605 TIP3 H1   HT     0.417000        1.0080           0
   15415 WT1  5605 TIP3 H2   HT     0.417000        1.0080           0
   15416 WT1  5606 TIP3 OH2  OT    -0.834000       15.9994           0
   15417 WT1  5606 TIP3 H1   HT     0.417000        1.0080           0
   15418 WT1  5606 TIP3 H2   HT     0.417000        1.0080           0
   15419 WT1  5607 TIP3 OH2  OT    -0.834000       15.9994           0
   15420 WT1  5607 TIP3 H1   HT     0.417000        1.0080           0
   15421 WT1  5607 TIP3 H2   HT     0.417000        1.0080           0
   15422 WT1  5608 TIP3 OH2  OT    -0.834000       15.9994           0
   15423 WT1  5608 TIP3 H1   HT     0.417000        1.0080           0
   15424 WT1  5608 TIP3 H2   HT     0.417000        1.0080           0
   15425 WT1  5609 TIP3 OH2  OT    -0.834000       15.9994           0
   15426 WT1  5609 TIP3 H1   HT     0.417000        1.0080           0
   15427 WT1  5609 TIP3 H2   HT     0.417000        1.0080           0
   15428 WT1  5610 TIP3 OH2  OT    -0.834000       15.9994           0
   15429 WT1  5610 TIP3 H1   HT     0.417000        1.0080           0
   15430 WT1  5610 TIP3 H2   HT     0.417000        1.0080           0
   15431 WT1  5612 TIP3 OH2  OT    -0.834000       15.9994           0
   15432 WT1  5612 TIP3 H1   HT     0.417000        1.0080           0
   15433 WT1  5612 TIP3 H2   HT     0.417000        1.0080           0
   15434 WT1  5613 TIP3 OH2  OT    -0.834000       15.9994           0
   15435 WT1  5613 TIP3 H1   HT     0.417000        1.0080           0
   15436 WT1  5613 TIP3 H2   HT     0.417000        1.0080           0
   15437 WT1  5614 TIP3 OH2  OT    -0.834000       15.9994           0
   15438 WT1  5614 TIP3 H1   HT     0.417000        1.0080           0
   15439 WT1  5614 TIP3 H2   HT     0.417000        1.0080           0
   15440 WT1  5615 TIP3 OH2  OT    -0.834000       15.9994           0
   15441 WT1  5615 TIP3 H1   HT     0.417000        1.0080           0
   15442 WT1  5615 TIP3 H2   HT     0.417000        1.0080           0
   15443 WT1  5616 TIP3 OH2  OT    -0.834000       15.9994           0
   15444 WT1  5616 TIP3 H1   HT     0.417000        1.0080           0
   15445 WT1  5616 TIP3 H2   HT     0.417000        1.0080           0
   15446 WT1  5617 TIP3 OH2  OT    -0.834000       15.9994           0
   15447 WT1  5617 TIP3 H1   HT     0.417000        1.0080           0
   15448 WT1  5617 TIP3 H2   HT     0.417000        1.0080           0
   15449 WT1  5620 TIP3 OH2  OT    -0.834000       15.9994           0
   15450 WT1  5620 TIP3 H1   HT     0.417000        1.0080           0
   15451 WT1  5620 TIP3 H2   HT     0.417000        1.0080           0
   15452 WT1  5621 TIP3 OH2  OT    -0.834000       15.9994           0
   15453 WT1  5621 TIP3 H1   HT     0.417000        1.0080           0
   15454 WT1  5621 TIP3 H2   HT     0.417000        1.0080           0
   15455 WT1  5622 TIP3 OH2  OT    -0.834000       15.9994           0
   15456 WT1  5622 TIP3 H1   HT     0.417000        1.0080           0
   15457 WT1  5622 TIP3 H2   HT     0.417000        1.0080           0
   15458 WT1  5623 TIP3 OH2  OT    -0.834000       15.9994           0
   15459 WT1  5623 TIP3 H1   HT     0.417000        1.0080           0
   15460 WT1  5623 TIP3 H2   HT     0.417000        1.0080           0
   15461 WT1  5624 TIP3 OH2  OT    -0.834000       15.9994           0
   15462 WT1  5624 TIP3 H1   HT     0.417000        1.0080           0
   15463 WT1  5624 TIP3 H2   HT     0.417000        1.0080           0
   15464 WT1  5625 TIP3 OH2  OT    -0.834000       15.9994           0
   15465 WT1  5625 TIP3 H1   HT     0.417000        1.0080           0
   15466 WT1  5625 TIP3 H2   HT     0.417000        1.0080           0
   15467 WT1  5626 TIP3 OH2  OT    -0.834000       15.9994           0
   15468 WT1  5626 TIP3 H1   HT     0.417000        1.0080           0
   15469 WT1  5626 TIP3 H2   HT     0.417000        1.0080           0
   15470 WT1  5627 TIP3 OH2  OT    -0.834000       15.9994           0
   15471 WT1  5627 TIP3 H1   HT     0.417000        1.0080           0
   15472 WT1  5627 TIP3 H2   HT     0.417000        1.0080           0
   15473 WT1  5628 TIP3 OH2  OT    -0.834000       15.9994           0
   15474 WT1  5628 TIP3 H1   HT     0.417000        1.0080           0
   15475 WT1  5628 TIP3 H2   HT     0.417000        1.0080           0
   15476 WT1  5629 TIP3 OH2  OT    -0.834000       15.9994           0
   15477 WT1  5629 TIP3 H1   HT     0.417000        1.0080           0
   15478 WT1  5629 TIP3 H2   HT     0.417000        1.0080           0
   15479 WT1  5630 TIP3 OH2  OT    -0.834000       15.9994           0
   15480 WT1  5630 TIP3 H1   HT     0.417000        1.0080           0
   15481 WT1  5630 TIP3 H2   HT     0.417000        1.0080           0
   15482 WT1  5631 TIP3 OH2  OT    -0.834000       15.9994           0
   15483 WT1  5631 TIP3 H1   HT     0.417000        1.0080           0
   15484 WT1  5631 TIP3 H2   HT     0.417000        1.0080           0
   15485 WT1  5632 TIP3 OH2  OT    -0.834000       15.9994           0
   15486 WT1  5632 TIP3 H1   HT     0.417000        1.0080           0
   15487 WT1  5632 TIP3 H2   HT     0.417000        1.0080           0
   15488 WT1  5633 TIP3 OH2  OT    -0.834000       15.9994           0
   15489 WT1  5633 TIP3 H1   HT     0.417000        1.0080           0
   15490 WT1  5633 TIP3 H2   HT     0.417000        1.0080           0
   15491 WT1  5634 TIP3 OH2  OT    -0.834000       15.9994           0
   15492 WT1  5634 TIP3 H1   HT     0.417000        1.0080           0
   15493 WT1  5634 TIP3 H2   HT     0.417000        1.0080           0
   15494 WT1  5635 TIP3 OH2  OT    -0.834000       15.9994           0
   15495 WT1  5635 TIP3 H1   HT     0.417000        1.0080           0
   15496 WT1  5635 TIP3 H2   HT     0.417000        1.0080           0
   15497 WT1  5636 TIP3 OH2  OT    -0.834000       15.9994           0
   15498 WT1  5636 TIP3 H1   HT     0.417000        1.0080           0
   15499 WT1  5636 TIP3 H2   HT     0.417000        1.0080           0
   15500 WT1  5637 TIP3 OH2  OT    -0.834000       15.9994           0
   15501 WT1  5637 TIP3 H1   HT     0.417000        1.0080           0
   15502 WT1  5637 TIP3 H2   HT     0.417000        1.0080           0
   15503 WT1  5638 TIP3 OH2  OT    -0.834000       15.9994           0
   15504 WT1  5638 TIP3 H1   HT     0.417000        1.0080           0
   15505 WT1  5638 TIP3 H2   HT     0.417000        1.0080           0
   15506 WT1  5640 TIP3 OH2  OT    -0.834000       15.9994           0
   15507 WT1  5640 TIP3 H1   HT     0.417000        1.0080           0
   15508 WT1  5640 TIP3 H2   HT     0.417000        1.0080           0
   15509 WT1  5641 TIP3 OH2  OT    -0.834000       15.9994           0
   15510 WT1  5641 TIP3 H1   HT     0.417000        1.0080           0
   15511 WT1  5641 TIP3 H2   HT     0.417000        1.0080           0
   15512 WT1  5642 TIP3 OH2  OT    -0.834000       15.9994           0
   15513 WT1  5642 TIP3 H1   HT     0.417000        1.0080           0
   15514 WT1  5642 TIP3 H2   HT     0.417000        1.0080           0
   15515 WT1  5643 TIP3 OH2  OT    -0.834000       15.9994           0
   15516 WT1  5643 TIP3 H1   HT     0.417000        1.0080           0
   15517 WT1  5643 TIP3 H2   HT     0.417000        1.0080           0
   15518 WT1  5644 TIP3 OH2  OT    -0.834000       15.9994           0
   15519 WT1  5644 TIP3 H1   HT     0.417000        1.0080           0
   15520 WT1  5644 TIP3 H2   HT     0.417000        1.0080           0
   15521 WT1  5645 TIP3 OH2  OT    -0.834000       15.9994           0
   15522 WT1  5645 TIP3 H1   HT     0.417000        1.0080           0
   15523 WT1  5645 TIP3 H2   HT     0.417000        1.0080           0
   15524 WT1  5647 TIP3 OH2  OT    -0.834000       15.9994           0
   15525 WT1  5647 TIP3 H1   HT     0.417000        1.0080           0
   15526 WT1  5647 TIP3 H2   HT     0.417000        1.0080           0
   15527 WT1  5648 TIP3 OH2  OT    -0.834000       15.9994           0
   15528 WT1  5648 TIP3 H1   HT     0.417000        1.0080           0
   15529 WT1  5648 TIP3 H2   HT     0.417000        1.0080           0
   15530 WT1  5649 TIP3 OH2  OT    -0.834000       15.9994           0
   15531 WT1  5649 TIP3 H1   HT     0.417000        1.0080           0
   15532 WT1  5649 TIP3 H2   HT     0.417000        1.0080           0
   15533 WT1  5650 TIP3 OH2  OT    -0.834000       15.9994           0
   15534 WT1  5650 TIP3 H1   HT     0.417000        1.0080           0
   15535 WT1  5650 TIP3 H2   HT     0.417000        1.0080           0
   15536 WT1  5651 TIP3 OH2  OT    -0.834000       15.9994           0
   15537 WT1  5651 TIP3 H1   HT     0.417000        1.0080           0
   15538 WT1  5651 TIP3 H2   HT     0.417000        1.0080           0
   15539 WT1  5652 TIP3 OH2  OT    -0.834000       15.9994           0
   15540 WT1  5652 TIP3 H1   HT     0.417000        1.0080           0
   15541 WT1  5652 TIP3 H2   HT     0.417000        1.0080           0
   15542 WT1  5653 TIP3 OH2  OT    -0.834000       15.9994           0
   15543 WT1  5653 TIP3 H1   HT     0.417000        1.0080           0
   15544 WT1  5653 TIP3 H2   HT     0.417000        1.0080           0
   15545 WT1  5654 TIP3 OH2  OT    -0.834000       15.9994           0
   15546 WT1  5654 TIP3 H1   HT     0.417000        1.0080           0
   15547 WT1  5654 TIP3 H2   HT     0.417000        1.0080           0
   15548 WT1  5655 TIP3 OH2  OT    -0.834000       15.9994           0
   15549 WT1  5655 TIP3 H1   HT     0.417000        1.0080           0
   15550 WT1  5655 TIP3 H2   HT     0.417000        1.0080           0
   15551 WT1  5656 TIP3 OH2  OT    -0.834000       15.9994           0
   15552 WT1  5656 TIP3 H1   HT     0.417000        1.0080           0
   15553 WT1  5656 TIP3 H2   HT     0.417000        1.0080           0
   15554 WT1  5658 TIP3 OH2  OT    -0.834000       15.9994           0
   15555 WT1  5658 TIP3 H1   HT     0.417000        1.0080           0
   15556 WT1  5658 TIP3 H2   HT     0.417000        1.0080           0
   15557 WT1  5659 TIP3 OH2  OT    -0.834000       15.9994           0
   15558 WT1  5659 TIP3 H1   HT     0.417000        1.0080           0
   15559 WT1  5659 TIP3 H2   HT     0.417000        1.0080           0
   15560 WT1  5660 TIP3 OH2  OT    -0.834000       15.9994           0
   15561 WT1  5660 TIP3 H1   HT     0.417000        1.0080           0
   15562 WT1  5660 TIP3 H2   HT     0.417000        1.0080           0
   15563 WT1  5661 TIP3 OH2  OT    -0.834000       15.9994           0
   15564 WT1  5661 TIP3 H1   HT     0.417000        1.0080           0
   15565 WT1  5661 TIP3 H2   HT     0.417000        1.0080           0
   15566 WT1  5662 TIP3 OH2  OT    -0.834000       15.9994           0
   15567 WT1  5662 TIP3 H1   HT     0.417000        1.0080           0
   15568 WT1  5662 TIP3 H2   HT     0.417000        1.0080           0
   15569 WT1  5663 TIP3 OH2  OT    -0.834000       15.9994           0
   15570 WT1  5663 TIP3 H1   HT     0.417000        1.0080           0
   15571 WT1  5663 TIP3 H2   HT     0.417000        1.0080           0
   15572 WT1  5664 TIP3 OH2  OT    -0.834000       15.9994           0
   15573 WT1  5664 TIP3 H1   HT     0.417000        1.0080           0
   15574 WT1  5664 TIP3 H2   HT     0.417000        1.0080           0
   15575 WT1  5665 TIP3 OH2  OT    -0.834000       15.9994           0
   15576 WT1  5665 TIP3 H1   HT     0.417000        1.0080           0
   15577 WT1  5665 TIP3 H2   HT     0.417000        1.0080           0
   15578 WT1  5666 TIP3 OH2  OT    -0.834000       15.9994           0
   15579 WT1  5666 TIP3 H1   HT     0.417000        1.0080           0
   15580 WT1  5666 TIP3 H2   HT     0.417000        1.0080           0
   15581 WT1  5667 TIP3 OH2  OT    -0.834000       15.9994           0
   15582 WT1  5667 TIP3 H1   HT     0.417000        1.0080           0
   15583 WT1  5667 TIP3 H2   HT     0.417000        1.0080           0
   15584 WT1  5668 TIP3 OH2  OT    -0.834000       15.9994           0
   15585 WT1  5668 TIP3 H1   HT     0.417000        1.0080           0
   15586 WT1  5668 TIP3 H2   HT     0.417000        1.0080           0
   15587 WT1  5669 TIP3 OH2  OT    -0.834000       15.9994           0
   15588 WT1  5669 TIP3 H1   HT     0.417000        1.0080           0
   15589 WT1  5669 TIP3 H2   HT     0.417000        1.0080           0
   15590 WT1  5670 TIP3 OH2  OT    -0.834000       15.9994           0
   15591 WT1  5670 TIP3 H1   HT     0.417000        1.0080           0
   15592 WT1  5670 TIP3 H2   HT     0.417000        1.0080           0
   15593 WT1  5671 TIP3 OH2  OT    -0.834000       15.9994           0
   15594 WT1  5671 TIP3 H1   HT     0.417000        1.0080           0
   15595 WT1  5671 TIP3 H2   HT     0.417000        1.0080           0
   15596 WT1  5673 TIP3 OH2  OT    -0.834000       15.9994           0
   15597 WT1  5673 TIP3 H1   HT     0.417000        1.0080           0
   15598 WT1  5673 TIP3 H2   HT     0.417000        1.0080           0
   15599 WT1  5674 TIP3 OH2  OT    -0.834000       15.9994           0
   15600 WT1  5674 TIP3 H1   HT     0.417000        1.0080           0
   15601 WT1  5674 TIP3 H2   HT     0.417000        1.0080           0
   15602 WT1  5675 TIP3 OH2  OT    -0.834000       15.9994           0
   15603 WT1  5675 TIP3 H1   HT     0.417000        1.0080           0
   15604 WT1  5675 TIP3 H2   HT     0.417000        1.0080           0
   15605 WT1  5676 TIP3 OH2  OT    -0.834000       15.9994           0
   15606 WT1  5676 TIP3 H1   HT     0.417000        1.0080           0
   15607 WT1  5676 TIP3 H2   HT     0.417000        1.0080           0
   15608 WT1  5677 TIP3 OH2  OT    -0.834000       15.9994           0
   15609 WT1  5677 TIP3 H1   HT     0.417000        1.0080           0
   15610 WT1  5677 TIP3 H2   HT     0.417000        1.0080           0
   15611 WT1  5679 TIP3 OH2  OT    -0.834000       15.9994           0
   15612 WT1  5679 TIP3 H1   HT     0.417000        1.0080           0
   15613 WT1  5679 TIP3 H2   HT     0.417000        1.0080           0
   15614 WT1  5680 TIP3 OH2  OT    -0.834000       15.9994           0
   15615 WT1  5680 TIP3 H1   HT     0.417000        1.0080           0
   15616 WT1  5680 TIP3 H2   HT     0.417000        1.0080           0
   15617 WT1  5681 TIP3 OH2  OT    -0.834000       15.9994           0
   15618 WT1  5681 TIP3 H1   HT     0.417000        1.0080           0
   15619 WT1  5681 TIP3 H2   HT     0.417000        1.0080           0
   15620 WT1  5682 TIP3 OH2  OT    -0.834000       15.9994           0
   15621 WT1  5682 TIP3 H1   HT     0.417000        1.0080           0
   15622 WT1  5682 TIP3 H2   HT     0.417000        1.0080           0
   15623 WT1  5683 TIP3 OH2  OT    -0.834000       15.9994           0
   15624 WT1  5683 TIP3 H1   HT     0.417000        1.0080           0
   15625 WT1  5683 TIP3 H2   HT     0.417000        1.0080           0
   15626 WT1  5684 TIP3 OH2  OT    -0.834000       15.9994           0
   15627 WT1  5684 TIP3 H1   HT     0.417000        1.0080           0
   15628 WT1  5684 TIP3 H2   HT     0.417000        1.0080           0
   15629 WT1  5685 TIP3 OH2  OT    -0.834000       15.9994           0
   15630 WT1  5685 TIP3 H1   HT     0.417000        1.0080           0
   15631 WT1  5685 TIP3 H2   HT     0.417000        1.0080           0
   15632 WT1  5686 TIP3 OH2  OT    -0.834000       15.9994           0
   15633 WT1  5686 TIP3 H1   HT     0.417000        1.0080           0
   15634 WT1  5686 TIP3 H2   HT     0.417000        1.0080           0
   15635 WT1  5687 TIP3 OH2  OT    -0.834000       15.9994           0
   15636 WT1  5687 TIP3 H1   HT     0.417000        1.0080           0
   15637 WT1  5687 TIP3 H2   HT     0.417000        1.0080           0
   15638 WT1  5688 TIP3 OH2  OT    -0.834000       15.9994           0
   15639 WT1  5688 TIP3 H1   HT     0.417000        1.0080           0
   15640 WT1  5688 TIP3 H2   HT     0.417000        1.0080           0
   15641 WT1  5689 TIP3 OH2  OT    -0.834000       15.9994           0
   15642 WT1  5689 TIP3 H1   HT     0.417000        1.0080           0
   15643 WT1  5689 TIP3 H2   HT     0.417000        1.0080           0
   15644 WT1  5690 TIP3 OH2  OT    -0.834000       15.9994           0
   15645 WT1  5690 TIP3 H1   HT     0.417000        1.0080           0
   15646 WT1  5690 TIP3 H2   HT     0.417000        1.0080           0
   15647 WT1  5691 TIP3 OH2  OT    -0.834000       15.9994           0
   15648 WT1  5691 TIP3 H1   HT     0.417000        1.0080           0
   15649 WT1  5691 TIP3 H2   HT     0.417000        1.0080           0
   15650 WT1  5692 TIP3 OH2  OT    -0.834000       15.9994           0
   15651 WT1  5692 TIP3 H1   HT     0.417000        1.0080           0
   15652 WT1  5692 TIP3 H2   HT     0.417000        1.0080           0
   15653 WT1  5693 TIP3 OH2  OT    -0.834000       15.9994           0
   15654 WT1  5693 TIP3 H1   HT     0.417000        1.0080           0
   15655 WT1  5693 TIP3 H2   HT     0.417000        1.0080           0
   15656 WT1  5694 TIP3 OH2  OT    -0.834000       15.9994           0
   15657 WT1  5694 TIP3 H1   HT     0.417000        1.0080           0
   15658 WT1  5694 TIP3 H2   HT     0.417000        1.0080           0
   15659 WT1  5695 TIP3 OH2  OT    -0.834000       15.9994           0
   15660 WT1  5695 TIP3 H1   HT     0.417000        1.0080           0
   15661 WT1  5695 TIP3 H2   HT     0.417000        1.0080           0
   15662 WT1  5696 TIP3 OH2  OT    -0.834000       15.9994           0
   15663 WT1  5696 TIP3 H1   HT     0.417000        1.0080           0
   15664 WT1  5696 TIP3 H2   HT     0.417000        1.0080           0
   15665 WT1  5697 TIP3 OH2  OT    -0.834000       15.9994           0
   15666 WT1  5697 TIP3 H1   HT     0.417000        1.0080           0
   15667 WT1  5697 TIP3 H2   HT     0.417000        1.0080           0
   15668 WT1  5698 TIP3 OH2  OT    -0.834000       15.9994           0
   15669 WT1  5698 TIP3 H1   HT     0.417000        1.0080           0
   15670 WT1  5698 TIP3 H2   HT     0.417000        1.0080           0
   15671 WT1  5699 TIP3 OH2  OT    -0.834000       15.9994           0
   15672 WT1  5699 TIP3 H1   HT     0.417000        1.0080           0
   15673 WT1  5699 TIP3 H2   HT     0.417000        1.0080           0
   15674 WT1  5700 TIP3 OH2  OT    -0.834000       15.9994           0
   15675 WT1  5700 TIP3 H1   HT     0.417000        1.0080           0
   15676 WT1  5700 TIP3 H2   HT     0.417000        1.0080           0
   15677 WT1  5702 TIP3 OH2  OT    -0.834000       15.9994           0
   15678 WT1  5702 TIP3 H1   HT     0.417000        1.0080           0
   15679 WT1  5702 TIP3 H2   HT     0.417000        1.0080           0
   15680 WT1  5703 TIP3 OH2  OT    -0.834000       15.9994           0
   15681 WT1  5703 TIP3 H1   HT     0.417000        1.0080           0
   15682 WT1  5703 TIP3 H2   HT     0.417000        1.0080           0
   15683 WT1  5704 TIP3 OH2  OT    -0.834000       15.9994           0
   15684 WT1  5704 TIP3 H1   HT     0.417000        1.0080           0
   15685 WT1  5704 TIP3 H2   HT     0.417000        1.0080           0
   15686 WT1  5705 TIP3 OH2  OT    -0.834000       15.9994           0
   15687 WT1  5705 TIP3 H1   HT     0.417000        1.0080           0
   15688 WT1  5705 TIP3 H2   HT     0.417000        1.0080           0
   15689 WT1  5706 TIP3 OH2  OT    -0.834000       15.9994           0
   15690 WT1  5706 TIP3 H1   HT     0.417000        1.0080           0
   15691 WT1  5706 TIP3 H2   HT     0.417000        1.0080           0
   15692 WT1  5708 TIP3 OH2  OT    -0.834000       15.9994           0
   15693 WT1  5708 TIP3 H1   HT     0.417000        1.0080           0
   15694 WT1  5708 TIP3 H2   HT     0.417000        1.0080           0
   15695 WT1  5709 TIP3 OH2  OT    -0.834000       15.9994           0
   15696 WT1  5709 TIP3 H1   HT     0.417000        1.0080           0
   15697 WT1  5709 TIP3 H2   HT     0.417000        1.0080           0
   15698 WT1  5710 TIP3 OH2  OT    -0.834000       15.9994           0
   15699 WT1  5710 TIP3 H1   HT     0.417000        1.0080           0
   15700 WT1  5710 TIP3 H2   HT     0.417000        1.0080           0
   15701 WT1  5711 TIP3 OH2  OT    -0.834000       15.9994           0
   15702 WT1  5711 TIP3 H1   HT     0.417000        1.0080           0
   15703 WT1  5711 TIP3 H2   HT     0.417000        1.0080           0
   15704 WT1  5712 TIP3 OH2  OT    -0.834000       15.9994           0
   15705 WT1  5712 TIP3 H1   HT     0.417000        1.0080           0
   15706 WT1  5712 TIP3 H2   HT     0.417000        1.0080           0
   15707 WT1  5713 TIP3 OH2  OT    -0.834000       15.9994           0
   15708 WT1  5713 TIP3 H1   HT     0.417000        1.0080           0
   15709 WT1  5713 TIP3 H2   HT     0.417000        1.0080           0
   15710 WT1  5714 TIP3 OH2  OT    -0.834000       15.9994           0
   15711 WT1  5714 TIP3 H1   HT     0.417000        1.0080           0
   15712 WT1  5714 TIP3 H2   HT     0.417000        1.0080           0
   15713 WT1  5716 TIP3 OH2  OT    -0.834000       15.9994           0
   15714 WT1  5716 TIP3 H1   HT     0.417000        1.0080           0
   15715 WT1  5716 TIP3 H2   HT     0.417000        1.0080           0
   15716 WT1  5717 TIP3 OH2  OT    -0.834000       15.9994           0
   15717 WT1  5717 TIP3 H1   HT     0.417000        1.0080           0
   15718 WT1  5717 TIP3 H2   HT     0.417000        1.0080           0
   15719 WT1  5718 TIP3 OH2  OT    -0.834000       15.9994           0
   15720 WT1  5718 TIP3 H1   HT     0.417000        1.0080           0
   15721 WT1  5718 TIP3 H2   HT     0.417000        1.0080           0
   15722 WT1  5720 TIP3 OH2  OT    -0.834000       15.9994           0
   15723 WT1  5720 TIP3 H1   HT     0.417000        1.0080           0
   15724 WT1  5720 TIP3 H2   HT     0.417000        1.0080           0
   15725 WT1  5722 TIP3 OH2  OT    -0.834000       15.9994           0
   15726 WT1  5722 TIP3 H1   HT     0.417000        1.0080           0
   15727 WT1  5722 TIP3 H2   HT     0.417000        1.0080           0
   15728 WT1  5723 TIP3 OH2  OT    -0.834000       15.9994           0
   15729 WT1  5723 TIP3 H1   HT     0.417000        1.0080           0
   15730 WT1  5723 TIP3 H2   HT     0.417000        1.0080           0
   15731 WT1  5724 TIP3 OH2  OT    -0.834000       15.9994           0
   15732 WT1  5724 TIP3 H1   HT     0.417000        1.0080           0
   15733 WT1  5724 TIP3 H2   HT     0.417000        1.0080           0
   15734 WT1  5725 TIP3 OH2  OT    -0.834000       15.9994           0
   15735 WT1  5725 TIP3 H1   HT     0.417000        1.0080           0
   15736 WT1  5725 TIP3 H2   HT     0.417000        1.0080           0
   15737 WT1  5726 TIP3 OH2  OT    -0.834000       15.9994           0
   15738 WT1  5726 TIP3 H1   HT     0.417000        1.0080           0
   15739 WT1  5726 TIP3 H2   HT     0.417000        1.0080           0
   15740 WT1  5727 TIP3 OH2  OT    -0.834000       15.9994           0
   15741 WT1  5727 TIP3 H1   HT     0.417000        1.0080           0
   15742 WT1  5727 TIP3 H2   HT     0.417000        1.0080           0
   15743 WT1  5728 TIP3 OH2  OT    -0.834000       15.9994           0
   15744 WT1  5728 TIP3 H1   HT     0.417000        1.0080           0
   15745 WT1  5728 TIP3 H2   HT     0.417000        1.0080           0
   15746 WT1  5729 TIP3 OH2  OT    -0.834000       15.9994           0
   15747 WT1  5729 TIP3 H1   HT     0.417000        1.0080           0
   15748 WT1  5729 TIP3 H2   HT     0.417000        1.0080           0
   15749 WT1  5730 TIP3 OH2  OT    -0.834000       15.9994           0
   15750 WT1  5730 TIP3 H1   HT     0.417000        1.0080           0
   15751 WT1  5730 TIP3 H2   HT     0.417000        1.0080           0
   15752 WT1  5731 TIP3 OH2  OT    -0.834000       15.9994           0
   15753 WT1  5731 TIP3 H1   HT     0.417000        1.0080           0
   15754 WT1  5731 TIP3 H2   HT     0.417000        1.0080           0
   15755 WT1  5732 TIP3 OH2  OT    -0.834000       15.9994           0
   15756 WT1  5732 TIP3 H1   HT     0.417000        1.0080           0
   15757 WT1  5732 TIP3 H2   HT     0.417000        1.0080           0
   15758 WT1  5733 TIP3 OH2  OT    -0.834000       15.9994           0
   15759 WT1  5733 TIP3 H1   HT     0.417000        1.0080           0
   15760 WT1  5733 TIP3 H2   HT     0.417000        1.0080           0
   15761 WT1  5734 TIP3 OH2  OT    -0.834000       15.9994           0
   15762 WT1  5734 TIP3 H1   HT     0.417000        1.0080           0
   15763 WT1  5734 TIP3 H2   HT     0.417000        1.0080           0
   15764 WT1  5735 TIP3 OH2  OT    -0.834000       15.9994           0
   15765 WT1  5735 TIP3 H1   HT     0.417000        1.0080           0
   15766 WT1  5735 TIP3 H2   HT     0.417000        1.0080           0
   15767 WT1  5736 TIP3 OH2  OT    -0.834000       15.9994           0
   15768 WT1  5736 TIP3 H1   HT     0.417000        1.0080           0
   15769 WT1  5736 TIP3 H2   HT     0.417000        1.0080           0
   15770 WT1  5737 TIP3 OH2  OT    -0.834000       15.9994           0
   15771 WT1  5737 TIP3 H1   HT     0.417000        1.0080           0
   15772 WT1  5737 TIP3 H2   HT     0.417000        1.0080           0
   15773 WT1  5738 TIP3 OH2  OT    -0.834000       15.9994           0
   15774 WT1  5738 TIP3 H1   HT     0.417000        1.0080           0
   15775 WT1  5738 TIP3 H2   HT     0.417000        1.0080           0
   15776 WT1  5739 TIP3 OH2  OT    -0.834000       15.9994           0
   15777 WT1  5739 TIP3 H1   HT     0.417000        1.0080           0
   15778 WT1  5739 TIP3 H2   HT     0.417000        1.0080           0
   15779 WT1  5740 TIP3 OH2  OT    -0.834000       15.9994           0
   15780 WT1  5740 TIP3 H1   HT     0.417000        1.0080           0
   15781 WT1  5740 TIP3 H2   HT     0.417000        1.0080           0
   15782 WT1  5741 TIP3 OH2  OT    -0.834000       15.9994           0
   15783 WT1  5741 TIP3 H1   HT     0.417000        1.0080           0
   15784 WT1  5741 TIP3 H2   HT     0.417000        1.0080           0
   15785 WT1  5742 TIP3 OH2  OT    -0.834000       15.9994           0
   15786 WT1  5742 TIP3 H1   HT     0.417000        1.0080           0
   15787 WT1  5742 TIP3 H2   HT     0.417000        1.0080           0
   15788 WT1  5743 TIP3 OH2  OT    -0.834000       15.9994           0
   15789 WT1  5743 TIP3 H1   HT     0.417000        1.0080           0
   15790 WT1  5743 TIP3 H2   HT     0.417000        1.0080           0
   15791 WT1  5744 TIP3 OH2  OT    -0.834000       15.9994           0
   15792 WT1  5744 TIP3 H1   HT     0.417000        1.0080           0
   15793 WT1  5744 TIP3 H2   HT     0.417000        1.0080           0
   15794 WT1  5745 TIP3 OH2  OT    -0.834000       15.9994           0
   15795 WT1  5745 TIP3 H1   HT     0.417000        1.0080           0
   15796 WT1  5745 TIP3 H2   HT     0.417000        1.0080           0
   15797 WT1  5746 TIP3 OH2  OT    -0.834000       15.9994           0
   15798 WT1  5746 TIP3 H1   HT     0.417000        1.0080           0
   15799 WT1  5746 TIP3 H2   HT     0.417000        1.0080           0
   15800 WT1  5747 TIP3 OH2  OT    -0.834000       15.9994           0
   15801 WT1  5747 TIP3 H1   HT     0.417000        1.0080           0
   15802 WT1  5747 TIP3 H2   HT     0.417000        1.0080           0
   15803 WT1  5748 TIP3 OH2  OT    -0.834000       15.9994           0
   15804 WT1  5748 TIP3 H1   HT     0.417000        1.0080           0
   15805 WT1  5748 TIP3 H2   HT     0.417000        1.0080           0
   15806 WT1  5749 TIP3 OH2  OT    -0.834000       15.9994           0
   15807 WT1  5749 TIP3 H1   HT     0.417000        1.0080           0
   15808 WT1  5749 TIP3 H2   HT     0.417000        1.0080           0
   15809 WT1  5750 TIP3 OH2  OT    -0.834000       15.9994           0
   15810 WT1  5750 TIP3 H1   HT     0.417000        1.0080           0
   15811 WT1  5750 TIP3 H2   HT     0.417000        1.0080           0
   15812 WT1  5751 TIP3 OH2  OT    -0.834000       15.9994           0
   15813 WT1  5751 TIP3 H1   HT     0.417000        1.0080           0
   15814 WT1  5751 TIP3 H2   HT     0.417000        1.0080           0
   15815 WT1  5752 TIP3 OH2  OT    -0.834000       15.9994           0
   15816 WT1  5752 TIP3 H1   HT     0.417000        1.0080           0
   15817 WT1  5752 TIP3 H2   HT     0.417000        1.0080           0
   15818 WT1  5753 TIP3 OH2  OT    -0.834000       15.9994           0
   15819 WT1  5753 TIP3 H1   HT     0.417000        1.0080           0
   15820 WT1  5753 TIP3 H2   HT     0.417000        1.0080           0
   15821 WT1  5754 TIP3 OH2  OT    -0.834000       15.9994           0
   15822 WT1  5754 TIP3 H1   HT     0.417000        1.0080           0
   15823 WT1  5754 TIP3 H2   HT     0.417000        1.0080           0
   15824 WT1  5755 TIP3 OH2  OT    -0.834000       15.9994           0
   15825 WT1  5755 TIP3 H1   HT     0.417000        1.0080           0
   15826 WT1  5755 TIP3 H2   HT     0.417000        1.0080           0
   15827 WT1  5757 TIP3 OH2  OT    -0.834000       15.9994           0
   15828 WT1  5757 TIP3 H1   HT     0.417000        1.0080           0
   15829 WT1  5757 TIP3 H2   HT     0.417000        1.0080           0
   15830 WT1  5758 TIP3 OH2  OT    -0.834000       15.9994           0
   15831 WT1  5758 TIP3 H1   HT     0.417000        1.0080           0
   15832 WT1  5758 TIP3 H2   HT     0.417000        1.0080           0
   15833 WT1  5759 TIP3 OH2  OT    -0.834000       15.9994           0
   15834 WT1  5759 TIP3 H1   HT     0.417000        1.0080           0
   15835 WT1  5759 TIP3 H2   HT     0.417000        1.0080           0
   15836 WT1  5760 TIP3 OH2  OT    -0.834000       15.9994           0
   15837 WT1  5760 TIP3 H1   HT     0.417000        1.0080           0
   15838 WT1  5760 TIP3 H2   HT     0.417000        1.0080           0
   15839 WT1  5764 TIP3 OH2  OT    -0.834000       15.9994           0
   15840 WT1  5764 TIP3 H1   HT     0.417000        1.0080           0
   15841 WT1  5764 TIP3 H2   HT     0.417000        1.0080           0
   15842 WT1  5765 TIP3 OH2  OT    -0.834000       15.9994           0
   15843 WT1  5765 TIP3 H1   HT     0.417000        1.0080           0
   15844 WT1  5765 TIP3 H2   HT     0.417000        1.0080           0
   15845 WT1  5766 TIP3 OH2  OT    -0.834000       15.9994           0
   15846 WT1  5766 TIP3 H1   HT     0.417000        1.0080           0
   15847 WT1  5766 TIP3 H2   HT     0.417000        1.0080           0
   15848 WT1  5767 TIP3 OH2  OT    -0.834000       15.9994           0
   15849 WT1  5767 TIP3 H1   HT     0.417000        1.0080           0
   15850 WT1  5767 TIP3 H2   HT     0.417000        1.0080           0
   15851 WT1  5768 TIP3 OH2  OT    -0.834000       15.9994           0
   15852 WT1  5768 TIP3 H1   HT     0.417000        1.0080           0
   15853 WT1  5768 TIP3 H2   HT     0.417000        1.0080           0
   15854 WT1  5769 TIP3 OH2  OT    -0.834000       15.9994           0
   15855 WT1  5769 TIP3 H1   HT     0.417000        1.0080           0
   15856 WT1  5769 TIP3 H2   HT     0.417000        1.0080           0
   15857 WT1  5770 TIP3 OH2  OT    -0.834000       15.9994           0
   15858 WT1  5770 TIP3 H1   HT     0.417000        1.0080           0
   15859 WT1  5770 TIP3 H2   HT     0.417000        1.0080           0
   15860 WT1  5771 TIP3 OH2  OT    -0.834000       15.9994           0
   15861 WT1  5771 TIP3 H1   HT     0.417000        1.0080           0
   15862 WT1  5771 TIP3 H2   HT     0.417000        1.0080           0
   15863 WT1  5772 TIP3 OH2  OT    -0.834000       15.9994           0
   15864 WT1  5772 TIP3 H1   HT     0.417000        1.0080           0
   15865 WT1  5772 TIP3 H2   HT     0.417000        1.0080           0
   15866 WT1  5773 TIP3 OH2  OT    -0.834000       15.9994           0
   15867 WT1  5773 TIP3 H1   HT     0.417000        1.0080           0
   15868 WT1  5773 TIP3 H2   HT     0.417000        1.0080           0
   15869 WT1  5774 TIP3 OH2  OT    -0.834000       15.9994           0
   15870 WT1  5774 TIP3 H1   HT     0.417000        1.0080           0
   15871 WT1  5774 TIP3 H2   HT     0.417000        1.0080           0
   15872 WT1  5775 TIP3 OH2  OT    -0.834000       15.9994           0
   15873 WT1  5775 TIP3 H1   HT     0.417000        1.0080           0
   15874 WT1  5775 TIP3 H2   HT     0.417000        1.0080           0
   15875 WT1  5776 TIP3 OH2  OT    -0.834000       15.9994           0
   15876 WT1  5776 TIP3 H1   HT     0.417000        1.0080           0
   15877 WT1  5776 TIP3 H2   HT     0.417000        1.0080           0
   15878 WT1  5777 TIP3 OH2  OT    -0.834000       15.9994           0
   15879 WT1  5777 TIP3 H1   HT     0.417000        1.0080           0
   15880 WT1  5777 TIP3 H2   HT     0.417000        1.0080           0
   15881 WT1  5778 TIP3 OH2  OT    -0.834000       15.9994           0
   15882 WT1  5778 TIP3 H1   HT     0.417000        1.0080           0
   15883 WT1  5778 TIP3 H2   HT     0.417000        1.0080           0
   15884 WT1  5779 TIP3 OH2  OT    -0.834000       15.9994           0
   15885 WT1  5779 TIP3 H1   HT     0.417000        1.0080           0
   15886 WT1  5779 TIP3 H2   HT     0.417000        1.0080           0
   15887 WT1  5780 TIP3 OH2  OT    -0.834000       15.9994           0
   15888 WT1  5780 TIP3 H1   HT     0.417000        1.0080           0
   15889 WT1  5780 TIP3 H2   HT     0.417000        1.0080           0
   15890 WT1  5781 TIP3 OH2  OT    -0.834000       15.9994           0
   15891 WT1  5781 TIP3 H1   HT     0.417000        1.0080           0
   15892 WT1  5781 TIP3 H2   HT     0.417000        1.0080           0
   15893 WT1  5782 TIP3 OH2  OT    -0.834000       15.9994           0
   15894 WT1  5782 TIP3 H1   HT     0.417000        1.0080           0
   15895 WT1  5782 TIP3 H2   HT     0.417000        1.0080           0
   15896 WT1  5783 TIP3 OH2  OT    -0.834000       15.9994           0
   15897 WT1  5783 TIP3 H1   HT     0.417000        1.0080           0
   15898 WT1  5783 TIP3 H2   HT     0.417000        1.0080           0
   15899 WT1  5784 TIP3 OH2  OT    -0.834000       15.9994           0
   15900 WT1  5784 TIP3 H1   HT     0.417000        1.0080           0
   15901 WT1  5784 TIP3 H2   HT     0.417000        1.0080           0
   15902 WT1  5785 TIP3 OH2  OT    -0.834000       15.9994           0
   15903 WT1  5785 TIP3 H1   HT     0.417000        1.0080           0
   15904 WT1  5785 TIP3 H2   HT     0.417000        1.0080           0
   15905 WT1  5786 TIP3 OH2  OT    -0.834000       15.9994           0
   15906 WT1  5786 TIP3 H1   HT     0.417000        1.0080           0
   15907 WT1  5786 TIP3 H2   HT     0.417000        1.0080           0
   15908 WT1  5787 TIP3 OH2  OT    -0.834000       15.9994           0
   15909 WT1  5787 TIP3 H1   HT     0.417000        1.0080           0
   15910 WT1  5787 TIP3 H2   HT     0.417000        1.0080           0
   15911 WT1  5788 TIP3 OH2  OT    -0.834000       15.9994           0
   15912 WT1  5788 TIP3 H1   HT     0.417000        1.0080           0
   15913 WT1  5788 TIP3 H2   HT     0.417000        1.0080           0
   15914 WT1  5789 TIP3 OH2  OT    -0.834000       15.9994           0
   15915 WT1  5789 TIP3 H1   HT     0.417000        1.0080           0
   15916 WT1  5789 TIP3 H2   HT     0.417000        1.0080           0
   15917 WT1  5790 TIP3 OH2  OT    -0.834000       15.9994           0
   15918 WT1  5790 TIP3 H1   HT     0.417000        1.0080           0
   15919 WT1  5790 TIP3 H2   HT     0.417000        1.0080           0
   15920 WT1  5791 TIP3 OH2  OT    -0.834000       15.9994           0
   15921 WT1  5791 TIP3 H1   HT     0.417000        1.0080           0
   15922 WT1  5791 TIP3 H2   HT     0.417000        1.0080           0
   15923 WT1  5792 TIP3 OH2  OT    -0.834000       15.9994           0
   15924 WT1  5792 TIP3 H1   HT     0.417000        1.0080           0
   15925 WT1  5792 TIP3 H2   HT     0.417000        1.0080           0
   15926 WT1  5793 TIP3 OH2  OT    -0.834000       15.9994           0
   15927 WT1  5793 TIP3 H1   HT     0.417000        1.0080           0
   15928 WT1  5793 TIP3 H2   HT     0.417000        1.0080           0
   15929 WT1  5794 TIP3 OH2  OT    -0.834000       15.9994           0
   15930 WT1  5794 TIP3 H1   HT     0.417000        1.0080           0
   15931 WT1  5794 TIP3 H2   HT     0.417000        1.0080           0
   15932 WT1  5795 TIP3 OH2  OT    -0.834000       15.9994           0
   15933 WT1  5795 TIP3 H1   HT     0.417000        1.0080           0
   15934 WT1  5795 TIP3 H2   HT     0.417000        1.0080           0
   15935 WT1  5796 TIP3 OH2  OT    -0.834000       15.9994           0
   15936 WT1  5796 TIP3 H1   HT     0.417000        1.0080           0
   15937 WT1  5796 TIP3 H2   HT     0.417000        1.0080           0
   15938 WT1  5797 TIP3 OH2  OT    -0.834000       15.9994           0
   15939 WT1  5797 TIP3 H1   HT     0.417000        1.0080           0
   15940 WT1  5797 TIP3 H2   HT     0.417000        1.0080           0
   15941 WT1  5798 TIP3 OH2  OT    -0.834000       15.9994           0
   15942 WT1  5798 TIP3 H1   HT     0.417000        1.0080           0
   15943 WT1  5798 TIP3 H2   HT     0.417000        1.0080           0
   15944 WT1  5799 TIP3 OH2  OT    -0.834000       15.9994           0
   15945 WT1  5799 TIP3 H1   HT     0.417000        1.0080           0
   15946 WT1  5799 TIP3 H2   HT     0.417000        1.0080           0
   15947 WT1  5800 TIP3 OH2  OT    -0.834000       15.9994           0
   15948 WT1  5800 TIP3 H1   HT     0.417000        1.0080           0
   15949 WT1  5800 TIP3 H2   HT     0.417000        1.0080           0
   15950 WT1  5801 TIP3 OH2  OT    -0.834000       15.9994           0
   15951 WT1  5801 TIP3 H1   HT     0.417000        1.0080           0
   15952 WT1  5801 TIP3 H2   HT     0.417000        1.0080           0
   15953 WT1  5802 TIP3 OH2  OT    -0.834000       15.9994           0
   15954 WT1  5802 TIP3 H1   HT     0.417000        1.0080           0
   15955 WT1  5802 TIP3 H2   HT     0.417000        1.0080           0
   15956 WT1  5803 TIP3 OH2  OT    -0.834000       15.9994           0
   15957 WT1  5803 TIP3 H1   HT     0.417000        1.0080           0
   15958 WT1  5803 TIP3 H2   HT     0.417000        1.0080           0
   15959 WT1  5804 TIP3 OH2  OT    -0.834000       15.9994           0
   15960 WT1  5804 TIP3 H1   HT     0.417000        1.0080           0
   15961 WT1  5804 TIP3 H2   HT     0.417000        1.0080           0
   15962 WT1  5806 TIP3 OH2  OT    -0.834000       15.9994           0
   15963 WT1  5806 TIP3 H1   HT     0.417000        1.0080           0
   15964 WT1  5806 TIP3 H2   HT     0.417000        1.0080           0
   15965 WT1  5807 TIP3 OH2  OT    -0.834000       15.9994           0
   15966 WT1  5807 TIP3 H1   HT     0.417000        1.0080           0
   15967 WT1  5807 TIP3 H2   HT     0.417000        1.0080           0
   15968 WT1  5808 TIP3 OH2  OT    -0.834000       15.9994           0
   15969 WT1  5808 TIP3 H1   HT     0.417000        1.0080           0
   15970 WT1  5808 TIP3 H2   HT     0.417000        1.0080           0
   15971 WT1  5809 TIP3 OH2  OT    -0.834000       15.9994           0
   15972 WT1  5809 TIP3 H1   HT     0.417000        1.0080           0
   15973 WT1  5809 TIP3 H2   HT     0.417000        1.0080           0
   15974 WT1  5810 TIP3 OH2  OT    -0.834000       15.9994           0
   15975 WT1  5810 TIP3 H1   HT     0.417000        1.0080           0
   15976 WT1  5810 TIP3 H2   HT     0.417000        1.0080           0
   15977 WT1  5811 TIP3 OH2  OT    -0.834000       15.9994           0
   15978 WT1  5811 TIP3 H1   HT     0.417000        1.0080           0
   15979 WT1  5811 TIP3 H2   HT     0.417000        1.0080           0
   15980 WT1  5813 TIP3 OH2  OT    -0.834000       15.9994           0
   15981 WT1  5813 TIP3 H1   HT     0.417000        1.0080           0
   15982 WT1  5813 TIP3 H2   HT     0.417000        1.0080           0
   15983 WT1  5814 TIP3 OH2  OT    -0.834000       15.9994           0
   15984 WT1  5814 TIP3 H1   HT     0.417000        1.0080           0
   15985 WT1  5814 TIP3 H2   HT     0.417000        1.0080           0
   15986 WT1  5815 TIP3 OH2  OT    -0.834000       15.9994           0
   15987 WT1  5815 TIP3 H1   HT     0.417000        1.0080           0
   15988 WT1  5815 TIP3 H2   HT     0.417000        1.0080           0
   15989 WT1  5816 TIP3 OH2  OT    -0.834000       15.9994           0
   15990 WT1  5816 TIP3 H1   HT     0.417000        1.0080           0
   15991 WT1  5816 TIP3 H2   HT     0.417000        1.0080           0
   15992 WT1  5819 TIP3 OH2  OT    -0.834000       15.9994           0
   15993 WT1  5819 TIP3 H1   HT     0.417000        1.0080           0
   15994 WT1  5819 TIP3 H2   HT     0.417000        1.0080           0
   15995 WT1  5821 TIP3 OH2  OT    -0.834000       15.9994           0
   15996 WT1  5821 TIP3 H1   HT     0.417000        1.0080           0
   15997 WT1  5821 TIP3 H2   HT     0.417000        1.0080           0
   15998 WT1  5822 TIP3 OH2  OT    -0.834000       15.9994           0
   15999 WT1  5822 TIP3 H1   HT     0.417000        1.0080           0
   16000 WT1  5822 TIP3 H2   HT     0.417000        1.0080           0
   16001 WT1  5823 TIP3 OH2  OT    -0.834000       15.9994           0
   16002 WT1  5823 TIP3 H1   HT     0.417000        1.0080           0
   16003 WT1  5823 TIP3 H2   HT     0.417000        1.0080           0
   16004 WT1  5824 TIP3 OH2  OT    -0.834000       15.9994           0
   16005 WT1  5824 TIP3 H1   HT     0.417000        1.0080           0
   16006 WT1  5824 TIP3 H2   HT     0.417000        1.0080           0
   16007 WT1  5825 TIP3 OH2  OT    -0.834000       15.9994           0
   16008 WT1  5825 TIP3 H1   HT     0.417000        1.0080           0
   16009 WT1  5825 TIP3 H2   HT     0.417000        1.0080           0
   16010 WT1  5826 TIP3 OH2  OT    -0.834000       15.9994           0
   16011 WT1  5826 TIP3 H1   HT     0.417000        1.0080           0
   16012 WT1  5826 TIP3 H2   HT     0.417000        1.0080           0
   16013 WT1  5827 TIP3 OH2  OT    -0.834000       15.9994           0
   16014 WT1  5827 TIP3 H1   HT     0.417000        1.0080           0
   16015 WT1  5827 TIP3 H2   HT     0.417000        1.0080           0
   16016 WT1  5828 TIP3 OH2  OT    -0.834000       15.9994           0
   16017 WT1  5828 TIP3 H1   HT     0.417000        1.0080           0
   16018 WT1  5828 TIP3 H2   HT     0.417000        1.0080           0
   16019 WT1  5830 TIP3 OH2  OT    -0.834000       15.9994           0
   16020 WT1  5830 TIP3 H1   HT     0.417000        1.0080           0
   16021 WT1  5830 TIP3 H2   HT     0.417000        1.0080           0
   16022 WT1  5831 TIP3 OH2  OT    -0.834000       15.9994           0
   16023 WT1  5831 TIP3 H1   HT     0.417000        1.0080           0
   16024 WT1  5831 TIP3 H2   HT     0.417000        1.0080           0
   16025 WT1  5833 TIP3 OH2  OT    -0.834000       15.9994           0
   16026 WT1  5833 TIP3 H1   HT     0.417000        1.0080           0
   16027 WT1  5833 TIP3 H2   HT     0.417000        1.0080           0
   16028 WT1  5834 TIP3 OH2  OT    -0.834000       15.9994           0
   16029 WT1  5834 TIP3 H1   HT     0.417000        1.0080           0
   16030 WT1  5834 TIP3 H2   HT     0.417000        1.0080           0
   16031 WT1  5835 TIP3 OH2  OT    -0.834000       15.9994           0
   16032 WT1  5835 TIP3 H1   HT     0.417000        1.0080           0
   16033 WT1  5835 TIP3 H2   HT     0.417000        1.0080           0
   16034 WT1  5836 TIP3 OH2  OT    -0.834000       15.9994           0
   16035 WT1  5836 TIP3 H1   HT     0.417000        1.0080           0
   16036 WT1  5836 TIP3 H2   HT     0.417000        1.0080           0
   16037 WT1  5837 TIP3 OH2  OT    -0.834000       15.9994           0
   16038 WT1  5837 TIP3 H1   HT     0.417000        1.0080           0
   16039 WT1  5837 TIP3 H2   HT     0.417000        1.0080           0
   16040 WT1  5838 TIP3 OH2  OT    -0.834000       15.9994           0
   16041 WT1  5838 TIP3 H1   HT     0.417000        1.0080           0
   16042 WT1  5838 TIP3 H2   HT     0.417000        1.0080           0
   16043 WT1  5839 TIP3 OH2  OT    -0.834000       15.9994           0
   16044 WT1  5839 TIP3 H1   HT     0.417000        1.0080           0
   16045 WT1  5839 TIP3 H2   HT     0.417000        1.0080           0
   16046 WT1  5840 TIP3 OH2  OT    -0.834000       15.9994           0
   16047 WT1  5840 TIP3 H1   HT     0.417000        1.0080           0
   16048 WT1  5840 TIP3 H2   HT     0.417000        1.0080           0
   16049 WT1  5841 TIP3 OH2  OT    -0.834000       15.9994           0
   16050 WT1  5841 TIP3 H1   HT     0.417000        1.0080           0
   16051 WT1  5841 TIP3 H2   HT     0.417000        1.0080           0
   16052 WT1  5842 TIP3 OH2  OT    -0.834000       15.9994           0
   16053 WT1  5842 TIP3 H1   HT     0.417000        1.0080           0
   16054 WT1  5842 TIP3 H2   HT     0.417000        1.0080           0
   16055 WT1  5843 TIP3 OH2  OT    -0.834000       15.9994           0
   16056 WT1  5843 TIP3 H1   HT     0.417000        1.0080           0
   16057 WT1  5843 TIP3 H2   HT     0.417000        1.0080           0
   16058 WT1  5844 TIP3 OH2  OT    -0.834000       15.9994           0
   16059 WT1  5844 TIP3 H1   HT     0.417000        1.0080           0
   16060 WT1  5844 TIP3 H2   HT     0.417000        1.0080           0
   16061 WT1  5846 TIP3 OH2  OT    -0.834000       15.9994           0
   16062 WT1  5846 TIP3 H1   HT     0.417000        1.0080           0
   16063 WT1  5846 TIP3 H2   HT     0.417000        1.0080           0
   16064 WT1  5848 TIP3 OH2  OT    -0.834000       15.9994           0
   16065 WT1  5848 TIP3 H1   HT     0.417000        1.0080           0
   16066 WT1  5848 TIP3 H2   HT     0.417000        1.0080           0
   16067 WT1  5849 TIP3 OH2  OT    -0.834000       15.9994           0
   16068 WT1  5849 TIP3 H1   HT     0.417000        1.0080           0
   16069 WT1  5849 TIP3 H2   HT     0.417000        1.0080           0
   16070 WT1  5851 TIP3 OH2  OT    -0.834000       15.9994           0
   16071 WT1  5851 TIP3 H1   HT     0.417000        1.0080           0
   16072 WT1  5851 TIP3 H2   HT     0.417000        1.0080           0
   16073 WT1  5852 TIP3 OH2  OT    -0.834000       15.9994           0
   16074 WT1  5852 TIP3 H1   HT     0.417000        1.0080           0
   16075 WT1  5852 TIP3 H2   HT     0.417000        1.0080           0
   16076 WT1  5853 TIP3 OH2  OT    -0.834000       15.9994           0
   16077 WT1  5853 TIP3 H1   HT     0.417000        1.0080           0
   16078 WT1  5853 TIP3 H2   HT     0.417000        1.0080           0
   16079 WT1  5854 TIP3 OH2  OT    -0.834000       15.9994           0
   16080 WT1  5854 TIP3 H1   HT     0.417000        1.0080           0
   16081 WT1  5854 TIP3 H2   HT     0.417000        1.0080           0
   16082 WT1  5855 TIP3 OH2  OT    -0.834000       15.9994           0
   16083 WT1  5855 TIP3 H1   HT     0.417000        1.0080           0
   16084 WT1  5855 TIP3 H2   HT     0.417000        1.0080           0
   16085 WT1  5856 TIP3 OH2  OT    -0.834000       15.9994           0
   16086 WT1  5856 TIP3 H1   HT     0.417000        1.0080           0
   16087 WT1  5856 TIP3 H2   HT     0.417000        1.0080           0
   16088 WT1  5857 TIP3 OH2  OT    -0.834000       15.9994           0
   16089 WT1  5857 TIP3 H1   HT     0.417000        1.0080           0
   16090 WT1  5857 TIP3 H2   HT     0.417000        1.0080           0
   16091 WT1  5858 TIP3 OH2  OT    -0.834000       15.9994           0
   16092 WT1  5858 TIP3 H1   HT     0.417000        1.0080           0
   16093 WT1  5858 TIP3 H2   HT     0.417000        1.0080           0
   16094 WT1  5859 TIP3 OH2  OT    -0.834000       15.9994           0
   16095 WT1  5859 TIP3 H1   HT     0.417000        1.0080           0
   16096 WT1  5859 TIP3 H2   HT     0.417000        1.0080           0
   16097 WT1  5860 TIP3 OH2  OT    -0.834000       15.9994           0
   16098 WT1  5860 TIP3 H1   HT     0.417000        1.0080           0
   16099 WT1  5860 TIP3 H2   HT     0.417000        1.0080           0
   16100 WT1  5861 TIP3 OH2  OT    -0.834000       15.9994           0
   16101 WT1  5861 TIP3 H1   HT     0.417000        1.0080           0
   16102 WT1  5861 TIP3 H2   HT     0.417000        1.0080           0
   16103 WT1  5862 TIP3 OH2  OT    -0.834000       15.9994           0
   16104 WT1  5862 TIP3 H1   HT     0.417000        1.0080           0
   16105 WT1  5862 TIP3 H2   HT     0.417000        1.0080           0
   16106 WT1  5864 TIP3 OH2  OT    -0.834000       15.9994           0
   16107 WT1  5864 TIP3 H1   HT     0.417000        1.0080           0
   16108 WT1  5864 TIP3 H2   HT     0.417000        1.0080           0
   16109 WT1  5865 TIP3 OH2  OT    -0.834000       15.9994           0
   16110 WT1  5865 TIP3 H1   HT     0.417000        1.0080           0
   16111 WT1  5865 TIP3 H2   HT     0.417000        1.0080           0
   16112 WT1  5866 TIP3 OH2  OT    -0.834000       15.9994           0
   16113 WT1  5866 TIP3 H1   HT     0.417000        1.0080           0
   16114 WT1  5866 TIP3 H2   HT     0.417000        1.0080           0
   16115 WT1  5867 TIP3 OH2  OT    -0.834000       15.9994           0
   16116 WT1  5867 TIP3 H1   HT     0.417000        1.0080           0
   16117 WT1  5867 TIP3 H2   HT     0.417000        1.0080           0
   16118 WT1  5868 TIP3 OH2  OT    -0.834000       15.9994           0
   16119 WT1  5868 TIP3 H1   HT     0.417000        1.0080           0
   16120 WT1  5868 TIP3 H2   HT     0.417000        1.0080           0
   16121 WT1  5869 TIP3 OH2  OT    -0.834000       15.9994           0
   16122 WT1  5869 TIP3 H1   HT     0.417000        1.0080           0
   16123 WT1  5869 TIP3 H2   HT     0.417000        1.0080           0
   16124 WT1  5871 TIP3 OH2  OT    -0.834000       15.9994           0
   16125 WT1  5871 TIP3 H1   HT     0.417000        1.0080           0
   16126 WT1  5871 TIP3 H2   HT     0.417000        1.0080           0
   16127 WT1  5872 TIP3 OH2  OT    -0.834000       15.9994           0
   16128 WT1  5872 TIP3 H1   HT     0.417000        1.0080           0
   16129 WT1  5872 TIP3 H2   HT     0.417000        1.0080           0
   16130 WT1  5873 TIP3 OH2  OT    -0.834000       15.9994           0
   16131 WT1  5873 TIP3 H1   HT     0.417000        1.0080           0
   16132 WT1  5873 TIP3 H2   HT     0.417000        1.0080           0
   16133 WT1  5875 TIP3 OH2  OT    -0.834000       15.9994           0
   16134 WT1  5875 TIP3 H1   HT     0.417000        1.0080           0
   16135 WT1  5875 TIP3 H2   HT     0.417000        1.0080           0
   16136 WT1  5876 TIP3 OH2  OT    -0.834000       15.9994           0
   16137 WT1  5876 TIP3 H1   HT     0.417000        1.0080           0
   16138 WT1  5876 TIP3 H2   HT     0.417000        1.0080           0
   16139 WT1  5878 TIP3 OH2  OT    -0.834000       15.9994           0
   16140 WT1  5878 TIP3 H1   HT     0.417000        1.0080           0
   16141 WT1  5878 TIP3 H2   HT     0.417000        1.0080           0
   16142 WT1  5879 TIP3 OH2  OT    -0.834000       15.9994           0
   16143 WT1  5879 TIP3 H1   HT     0.417000        1.0080           0
   16144 WT1  5879 TIP3 H2   HT     0.417000        1.0080           0
   16145 WT1  5880 TIP3 OH2  OT    -0.834000       15.9994           0
   16146 WT1  5880 TIP3 H1   HT     0.417000        1.0080           0
   16147 WT1  5880 TIP3 H2   HT     0.417000        1.0080           0
   16148 WT1  5881 TIP3 OH2  OT    -0.834000       15.9994           0
   16149 WT1  5881 TIP3 H1   HT     0.417000        1.0080           0
   16150 WT1  5881 TIP3 H2   HT     0.417000        1.0080           0
   16151 WT1  5882 TIP3 OH2  OT    -0.834000       15.9994           0
   16152 WT1  5882 TIP3 H1   HT     0.417000        1.0080           0
   16153 WT1  5882 TIP3 H2   HT     0.417000        1.0080           0
   16154 WT1  5883 TIP3 OH2  OT    -0.834000       15.9994           0
   16155 WT1  5883 TIP3 H1   HT     0.417000        1.0080           0
   16156 WT1  5883 TIP3 H2   HT     0.417000        1.0080           0
   16157 WT1  5884 TIP3 OH2  OT    -0.834000       15.9994           0
   16158 WT1  5884 TIP3 H1   HT     0.417000        1.0080           0
   16159 WT1  5884 TIP3 H2   HT     0.417000        1.0080           0
   16160 WT1  5885 TIP3 OH2  OT    -0.834000       15.9994           0
   16161 WT1  5885 TIP3 H1   HT     0.417000        1.0080           0
   16162 WT1  5885 TIP3 H2   HT     0.417000        1.0080           0
   16163 WT1  5886 TIP3 OH2  OT    -0.834000       15.9994           0
   16164 WT1  5886 TIP3 H1   HT     0.417000        1.0080           0
   16165 WT1  5886 TIP3 H2   HT     0.417000        1.0080           0
   16166 WT1  5888 TIP3 OH2  OT    -0.834000       15.9994           0
   16167 WT1  5888 TIP3 H1   HT     0.417000        1.0080           0
   16168 WT1  5888 TIP3 H2   HT     0.417000        1.0080           0
   16169 WT1  5889 TIP3 OH2  OT    -0.834000       15.9994           0
   16170 WT1  5889 TIP3 H1   HT     0.417000        1.0080           0
   16171 WT1  5889 TIP3 H2   HT     0.417000        1.0080           0
   16172 WT1  5890 TIP3 OH2  OT    -0.834000       15.9994           0
   16173 WT1  5890 TIP3 H1   HT     0.417000        1.0080           0
   16174 WT1  5890 TIP3 H2   HT     0.417000        1.0080           0
   16175 WT1  5891 TIP3 OH2  OT    -0.834000       15.9994           0
   16176 WT1  5891 TIP3 H1   HT     0.417000        1.0080           0
   16177 WT1  5891 TIP3 H2   HT     0.417000        1.0080           0
   16178 WT1  5892 TIP3 OH2  OT    -0.834000       15.9994           0
   16179 WT1  5892 TIP3 H1   HT     0.417000        1.0080           0
   16180 WT1  5892 TIP3 H2   HT     0.417000        1.0080           0
   16181 WT1  5893 TIP3 OH2  OT    -0.834000       15.9994           0
   16182 WT1  5893 TIP3 H1   HT     0.417000        1.0080           0
   16183 WT1  5893 TIP3 H2   HT     0.417000        1.0080           0
   16184 WT1  5894 TIP3 OH2  OT    -0.834000       15.9994           0
   16185 WT1  5894 TIP3 H1   HT     0.417000        1.0080           0
   16186 WT1  5894 TIP3 H2   HT     0.417000        1.0080           0
   16187 WT1  5895 TIP3 OH2  OT    -0.834000       15.9994           0
   16188 WT1  5895 TIP3 H1   HT     0.417000        1.0080           0
   16189 WT1  5895 TIP3 H2   HT     0.417000        1.0080           0
   16190 WT1  5896 TIP3 OH2  OT    -0.834000       15.9994           0
   16191 WT1  5896 TIP3 H1   HT     0.417000        1.0080           0
   16192 WT1  5896 TIP3 H2   HT     0.417000        1.0080           0
   16193 WT1  5897 TIP3 OH2  OT    -0.834000       15.9994           0
   16194 WT1  5897 TIP3 H1   HT     0.417000        1.0080           0
   16195 WT1  5897 TIP3 H2   HT     0.417000        1.0080           0
   16196 WT1  5900 TIP3 OH2  OT    -0.834000       15.9994           0
   16197 WT1  5900 TIP3 H1   HT     0.417000        1.0080           0
   16198 WT1  5900 TIP3 H2   HT     0.417000        1.0080           0
   16199 WT1  5901 TIP3 OH2  OT    -0.834000       15.9994           0
   16200 WT1  5901 TIP3 H1   HT     0.417000        1.0080           0
   16201 WT1  5901 TIP3 H2   HT     0.417000        1.0080           0
   16202 WT1  5902 TIP3 OH2  OT    -0.834000       15.9994           0
   16203 WT1  5902 TIP3 H1   HT     0.417000        1.0080           0
   16204 WT1  5902 TIP3 H2   HT     0.417000        1.0080           0
   16205 WT1  5903 TIP3 OH2  OT    -0.834000       15.9994           0
   16206 WT1  5903 TIP3 H1   HT     0.417000        1.0080           0
   16207 WT1  5903 TIP3 H2   HT     0.417000        1.0080           0
   16208 WT1  5906 TIP3 OH2  OT    -0.834000       15.9994           0
   16209 WT1  5906 TIP3 H1   HT     0.417000        1.0080           0
   16210 WT1  5906 TIP3 H2   HT     0.417000        1.0080           0
   16211 WT1  5907 TIP3 OH2  OT    -0.834000       15.9994           0
   16212 WT1  5907 TIP3 H1   HT     0.417000        1.0080           0
   16213 WT1  5907 TIP3 H2   HT     0.417000        1.0080           0
   16214 WT1  5908 TIP3 OH2  OT    -0.834000       15.9994           0
   16215 WT1  5908 TIP3 H1   HT     0.417000        1.0080           0
   16216 WT1  5908 TIP3 H2   HT     0.417000        1.0080           0
   16217 WT1  5911 TIP3 OH2  OT    -0.834000       15.9994           0
   16218 WT1  5911 TIP3 H1   HT     0.417000        1.0080           0
   16219 WT1  5911 TIP3 H2   HT     0.417000        1.0080           0
   16220 WT1  5912 TIP3 OH2  OT    -0.834000       15.9994           0
   16221 WT1  5912 TIP3 H1   HT     0.417000        1.0080           0
   16222 WT1  5912 TIP3 H2   HT     0.417000        1.0080           0
   16223 WT1  5913 TIP3 OH2  OT    -0.834000       15.9994           0
   16224 WT1  5913 TIP3 H1   HT     0.417000        1.0080           0
   16225 WT1  5913 TIP3 H2   HT     0.417000        1.0080           0
   16226 WT1  5914 TIP3 OH2  OT    -0.834000       15.9994           0
   16227 WT1  5914 TIP3 H1   HT     0.417000        1.0080           0
   16228 WT1  5914 TIP3 H2   HT     0.417000        1.0080           0
   16229 WT1  5915 TIP3 OH2  OT    -0.834000       15.9994           0
   16230 WT1  5915 TIP3 H1   HT     0.417000        1.0080           0
   16231 WT1  5915 TIP3 H2   HT     0.417000        1.0080           0
   16232 WT1  5916 TIP3 OH2  OT    -0.834000       15.9994           0
   16233 WT1  5916 TIP3 H1   HT     0.417000        1.0080           0
   16234 WT1  5916 TIP3 H2   HT     0.417000        1.0080           0
   16235 WT1  5919 TIP3 OH2  OT    -0.834000       15.9994           0
   16236 WT1  5919 TIP3 H1   HT     0.417000        1.0080           0
   16237 WT1  5919 TIP3 H2   HT     0.417000        1.0080           0
   16238 WT1  5920 TIP3 OH2  OT    -0.834000       15.9994           0
   16239 WT1  5920 TIP3 H1   HT     0.417000        1.0080           0
   16240 WT1  5920 TIP3 H2   HT     0.417000        1.0080           0
   16241 WT1  5921 TIP3 OH2  OT    -0.834000       15.9994           0
   16242 WT1  5921 TIP3 H1   HT     0.417000        1.0080           0
   16243 WT1  5921 TIP3 H2   HT     0.417000        1.0080           0
   16244 WT1  5922 TIP3 OH2  OT    -0.834000       15.9994           0
   16245 WT1  5922 TIP3 H1   HT     0.417000        1.0080           0
   16246 WT1  5922 TIP3 H2   HT     0.417000        1.0080           0
   16247 WT1  5924 TIP3 OH2  OT    -0.834000       15.9994           0
   16248 WT1  5924 TIP3 H1   HT     0.417000        1.0080           0
   16249 WT1  5924 TIP3 H2   HT     0.417000        1.0080           0
   16250 WT1  5926 TIP3 OH2  OT    -0.834000       15.9994           0
   16251 WT1  5926 TIP3 H1   HT     0.417000        1.0080           0
   16252 WT1  5926 TIP3 H2   HT     0.417000        1.0080           0
   16253 WT1  5927 TIP3 OH2  OT    -0.834000       15.9994           0
   16254 WT1  5927 TIP3 H1   HT     0.417000        1.0080           0
   16255 WT1  5927 TIP3 H2   HT     0.417000        1.0080           0
   16256 WT1  5928 TIP3 OH2  OT    -0.834000       15.9994           0
   16257 WT1  5928 TIP3 H1   HT     0.417000        1.0080           0
   16258 WT1  5928 TIP3 H2   HT     0.417000        1.0080           0
   16259 WT1  5929 TIP3 OH2  OT    -0.834000       15.9994           0
   16260 WT1  5929 TIP3 H1   HT     0.417000        1.0080           0
   16261 WT1  5929 TIP3 H2   HT     0.417000        1.0080           0
   16262 WT1  5930 TIP3 OH2  OT    -0.834000       15.9994           0
   16263 WT1  5930 TIP3 H1   HT     0.417000        1.0080           0
   16264 WT1  5930 TIP3 H2   HT     0.417000        1.0080           0
   16265 WT1  5931 TIP3 OH2  OT    -0.834000       15.9994           0
   16266 WT1  5931 TIP3 H1   HT     0.417000        1.0080           0
   16267 WT1  5931 TIP3 H2   HT     0.417000        1.0080           0
   16268 WT1  5932 TIP3 OH2  OT    -0.834000       15.9994           0
   16269 WT1  5932 TIP3 H1   HT     0.417000        1.0080           0
   16270 WT1  5932 TIP3 H2   HT     0.417000        1.0080           0
   16271 WT1  5934 TIP3 OH2  OT    -0.834000       15.9994           0
   16272 WT1  5934 TIP3 H1   HT     0.417000        1.0080           0
   16273 WT1  5934 TIP3 H2   HT     0.417000        1.0080           0
   16274 WT1  5936 TIP3 OH2  OT    -0.834000       15.9994           0
   16275 WT1  5936 TIP3 H1   HT     0.417000        1.0080           0
   16276 WT1  5936 TIP3 H2   HT     0.417000        1.0080           0
   16277 WT1  5937 TIP3 OH2  OT    -0.834000       15.9994           0
   16278 WT1  5937 TIP3 H1   HT     0.417000        1.0080           0
   16279 WT1  5937 TIP3 H2   HT     0.417000        1.0080           0
   16280 WT1  5938 TIP3 OH2  OT    -0.834000       15.9994           0
   16281 WT1  5938 TIP3 H1   HT     0.417000        1.0080           0
   16282 WT1  5938 TIP3 H2   HT     0.417000        1.0080           0
   16283 WT1  5939 TIP3 OH2  OT    -0.834000       15.9994           0
   16284 WT1  5939 TIP3 H1   HT     0.417000        1.0080           0
   16285 WT1  5939 TIP3 H2   HT     0.417000        1.0080           0
   16286 WT1  5941 TIP3 OH2  OT    -0.834000       15.9994           0
   16287 WT1  5941 TIP3 H1   HT     0.417000        1.0080           0
   16288 WT1  5941 TIP3 H2   HT     0.417000        1.0080           0
   16289 WT1  5942 TIP3 OH2  OT    -0.834000       15.9994           0
   16290 WT1  5942 TIP3 H1   HT     0.417000        1.0080           0
   16291 WT1  5942 TIP3 H2   HT     0.417000        1.0080           0
   16292 WT1  5943 TIP3 OH2  OT    -0.834000       15.9994           0
   16293 WT1  5943 TIP3 H1   HT     0.417000        1.0080           0
   16294 WT1  5943 TIP3 H2   HT     0.417000        1.0080           0
   16295 WT1  5944 TIP3 OH2  OT    -0.834000       15.9994           0
   16296 WT1  5944 TIP3 H1   HT     0.417000        1.0080           0
   16297 WT1  5944 TIP3 H2   HT     0.417000        1.0080           0
   16298 WT1  5945 TIP3 OH2  OT    -0.834000       15.9994           0
   16299 WT1  5945 TIP3 H1   HT     0.417000        1.0080           0
   16300 WT1  5945 TIP3 H2   HT     0.417000        1.0080           0
   16301 WT1  5947 TIP3 OH2  OT    -0.834000       15.9994           0
   16302 WT1  5947 TIP3 H1   HT     0.417000        1.0080           0
   16303 WT1  5947 TIP3 H2   HT     0.417000        1.0080           0
   16304 WT1  5948 TIP3 OH2  OT    -0.834000       15.9994           0
   16305 WT1  5948 TIP3 H1   HT     0.417000        1.0080           0
   16306 WT1  5948 TIP3 H2   HT     0.417000        1.0080           0
   16307 WT1  5949 TIP3 OH2  OT    -0.834000       15.9994           0
   16308 WT1  5949 TIP3 H1   HT     0.417000        1.0080           0
   16309 WT1  5949 TIP3 H2   HT     0.417000        1.0080           0
   16310 WT1  5950 TIP3 OH2  OT    -0.834000       15.9994           0
   16311 WT1  5950 TIP3 H1   HT     0.417000        1.0080           0
   16312 WT1  5950 TIP3 H2   HT     0.417000        1.0080           0
   16313 WT1  5951 TIP3 OH2  OT    -0.834000       15.9994           0
   16314 WT1  5951 TIP3 H1   HT     0.417000        1.0080           0
   16315 WT1  5951 TIP3 H2   HT     0.417000        1.0080           0
   16316 WT1  5952 TIP3 OH2  OT    -0.834000       15.9994           0
   16317 WT1  5952 TIP3 H1   HT     0.417000        1.0080           0
   16318 WT1  5952 TIP3 H2   HT     0.417000        1.0080           0
   16319 WT1  5953 TIP3 OH2  OT    -0.834000       15.9994           0
   16320 WT1  5953 TIP3 H1   HT     0.417000        1.0080           0
   16321 WT1  5953 TIP3 H2   HT     0.417000        1.0080           0
   16322 WT1  5954 TIP3 OH2  OT    -0.834000       15.9994           0
   16323 WT1  5954 TIP3 H1   HT     0.417000        1.0080           0
   16324 WT1  5954 TIP3 H2   HT     0.417000        1.0080           0
   16325 WT1  5955 TIP3 OH2  OT    -0.834000       15.9994           0
   16326 WT1  5955 TIP3 H1   HT     0.417000        1.0080           0
   16327 WT1  5955 TIP3 H2   HT     0.417000        1.0080           0
   16328 WT1  5956 TIP3 OH2  OT    -0.834000       15.9994           0
   16329 WT1  5956 TIP3 H1   HT     0.417000        1.0080           0
   16330 WT1  5956 TIP3 H2   HT     0.417000        1.0080           0
   16331 WT1  5957 TIP3 OH2  OT    -0.834000       15.9994           0
   16332 WT1  5957 TIP3 H1   HT     0.417000        1.0080           0
   16333 WT1  5957 TIP3 H2   HT     0.417000        1.0080           0
   16334 WT1  5958 TIP3 OH2  OT    -0.834000       15.9994           0
   16335 WT1  5958 TIP3 H1   HT     0.417000        1.0080           0
   16336 WT1  5958 TIP3 H2   HT     0.417000        1.0080           0
   16337 WT1  5959 TIP3 OH2  OT    -0.834000       15.9994           0
   16338 WT1  5959 TIP3 H1   HT     0.417000        1.0080           0
   16339 WT1  5959 TIP3 H2   HT     0.417000        1.0080           0
   16340 WT1  5960 TIP3 OH2  OT    -0.834000       15.9994           0
   16341 WT1  5960 TIP3 H1   HT     0.417000        1.0080           0
   16342 WT1  5960 TIP3 H2   HT     0.417000        1.0080           0
   16343 WT1  5962 TIP3 OH2  OT    -0.834000       15.9994           0
   16344 WT1  5962 TIP3 H1   HT     0.417000        1.0080           0
   16345 WT1  5962 TIP3 H2   HT     0.417000        1.0080           0
   16346 WT1  5965 TIP3 OH2  OT    -0.834000       15.9994           0
   16347 WT1  5965 TIP3 H1   HT     0.417000        1.0080           0
   16348 WT1  5965 TIP3 H2   HT     0.417000        1.0080           0
   16349 WT1  5966 TIP3 OH2  OT    -0.834000       15.9994           0
   16350 WT1  5966 TIP3 H1   HT     0.417000        1.0080           0
   16351 WT1  5966 TIP3 H2   HT     0.417000        1.0080           0
   16352 WT1  5967 TIP3 OH2  OT    -0.834000       15.9994           0
   16353 WT1  5967 TIP3 H1   HT     0.417000        1.0080           0
   16354 WT1  5967 TIP3 H2   HT     0.417000        1.0080           0
   16355 WT1  5968 TIP3 OH2  OT    -0.834000       15.9994           0
   16356 WT1  5968 TIP3 H1   HT     0.417000        1.0080           0
   16357 WT1  5968 TIP3 H2   HT     0.417000        1.0080           0
   16358 WT1  5969 TIP3 OH2  OT    -0.834000       15.9994           0
   16359 WT1  5969 TIP3 H1   HT     0.417000        1.0080           0
   16360 WT1  5969 TIP3 H2   HT     0.417000        1.0080           0
   16361 WT1  5974 TIP3 OH2  OT    -0.834000       15.9994           0
   16362 WT1  5974 TIP3 H1   HT     0.417000        1.0080           0
   16363 WT1  5974 TIP3 H2   HT     0.417000        1.0080           0
   16364 WT1  5975 TIP3 OH2  OT    -0.834000       15.9994           0
   16365 WT1  5975 TIP3 H1   HT     0.417000        1.0080           0
   16366 WT1  5975 TIP3 H2   HT     0.417000        1.0080           0
   16367 WT1  5980 TIP3 OH2  OT    -0.834000       15.9994           0
   16368 WT1  5980 TIP3 H1   HT     0.417000        1.0080           0
   16369 WT1  5980 TIP3 H2   HT     0.417000        1.0080           0
   16370 WT1  5981 TIP3 OH2  OT    -0.834000       15.9994           0
   16371 WT1  5981 TIP3 H1   HT     0.417000        1.0080           0
   16372 WT1  5981 TIP3 H2   HT     0.417000        1.0080           0
   16373 WT1  5982 TIP3 OH2  OT    -0.834000       15.9994           0
   16374 WT1  5982 TIP3 H1   HT     0.417000        1.0080           0
   16375 WT1  5982 TIP3 H2   HT     0.417000        1.0080           0
   16376 WT1  5983 TIP3 OH2  OT    -0.834000       15.9994           0
   16377 WT1  5983 TIP3 H1   HT     0.417000        1.0080           0
   16378 WT1  5983 TIP3 H2   HT     0.417000        1.0080           0
   16379 WT1  5986 TIP3 OH2  OT    -0.834000       15.9994           0
   16380 WT1  5986 TIP3 H1   HT     0.417000        1.0080           0
   16381 WT1  5986 TIP3 H2   HT     0.417000        1.0080           0
   16382 WT1  5987 TIP3 OH2  OT    -0.834000       15.9994           0
   16383 WT1  5987 TIP3 H1   HT     0.417000        1.0080           0
   16384 WT1  5987 TIP3 H2   HT     0.417000        1.0080           0
   16385 WT1  5988 TIP3 OH2  OT    -0.834000       15.9994           0
   16386 WT1  5988 TIP3 H1   HT     0.417000        1.0080           0
   16387 WT1  5988 TIP3 H2   HT     0.417000        1.0080           0
   16388 WT1  5989 TIP3 OH2  OT    -0.834000       15.9994           0
   16389 WT1  5989 TIP3 H1   HT     0.417000        1.0080           0
   16390 WT1  5989 TIP3 H2   HT     0.417000        1.0080           0
   16391 WT1  5990 TIP3 OH2  OT    -0.834000       15.9994           0
   16392 WT1  5990 TIP3 H1   HT     0.417000        1.0080           0
   16393 WT1  5990 TIP3 H2   HT     0.417000        1.0080           0
   16394 WT1  5991 TIP3 OH2  OT    -0.834000       15.9994           0
   16395 WT1  5991 TIP3 H1   HT     0.417000        1.0080           0
   16396 WT1  5991 TIP3 H2   HT     0.417000        1.0080           0
   16397 WT1  5992 TIP3 OH2  OT    -0.834000       15.9994           0
   16398 WT1  5992 TIP3 H1   HT     0.417000        1.0080           0
   16399 WT1  5992 TIP3 H2   HT     0.417000        1.0080           0
   16400 WT1  5994 TIP3 OH2  OT    -0.834000       15.9994           0
   16401 WT1  5994 TIP3 H1   HT     0.417000        1.0080           0
   16402 WT1  5994 TIP3 H2   HT     0.417000        1.0080           0
   16403 WT1  5995 TIP3 OH2  OT    -0.834000       15.9994           0
   16404 WT1  5995 TIP3 H1   HT     0.417000        1.0080           0
   16405 WT1  5995 TIP3 H2   HT     0.417000        1.0080           0
   16406 WT1  5997 TIP3 OH2  OT    -0.834000       15.9994           0
   16407 WT1  5997 TIP3 H1   HT     0.417000        1.0080           0
   16408 WT1  5997 TIP3 H2   HT     0.417000        1.0080           0
   16409 WT1  5998 TIP3 OH2  OT    -0.834000       15.9994           0
   16410 WT1  5998 TIP3 H1   HT     0.417000        1.0080           0
   16411 WT1  5998 TIP3 H2   HT     0.417000        1.0080           0
   16412 WT1  5999 TIP3 OH2  OT    -0.834000       15.9994           0
   16413 WT1  5999 TIP3 H1   HT     0.417000        1.0080           0
   16414 WT1  5999 TIP3 H2   HT     0.417000        1.0080           0
   16415 WT1  6001 TIP3 OH2  OT    -0.834000       15.9994           0
   16416 WT1  6001 TIP3 H1   HT     0.417000        1.0080           0
   16417 WT1  6001 TIP3 H2   HT     0.417000        1.0080           0
   16418 WT1  6002 TIP3 OH2  OT    -0.834000       15.9994           0
   16419 WT1  6002 TIP3 H1   HT     0.417000        1.0080           0
   16420 WT1  6002 TIP3 H2   HT     0.417000        1.0080           0
   16421 WT1  6003 TIP3 OH2  OT    -0.834000       15.9994           0
   16422 WT1  6003 TIP3 H1   HT     0.417000        1.0080           0
   16423 WT1  6003 TIP3 H2   HT     0.417000        1.0080           0
   16424 WT1  6004 TIP3 OH2  OT    -0.834000       15.9994           0
   16425 WT1  6004 TIP3 H1   HT     0.417000        1.0080           0
   16426 WT1  6004 TIP3 H2   HT     0.417000        1.0080           0
   16427 WT1  6006 TIP3 OH2  OT    -0.834000       15.9994           0
   16428 WT1  6006 TIP3 H1   HT     0.417000        1.0080           0
   16429 WT1  6006 TIP3 H2   HT     0.417000        1.0080           0
   16430 WT1  6007 TIP3 OH2  OT    -0.834000       15.9994           0
   16431 WT1  6007 TIP3 H1   HT     0.417000        1.0080           0
   16432 WT1  6007 TIP3 H2   HT     0.417000        1.0080           0
   16433 WT1  6009 TIP3 OH2  OT    -0.834000       15.9994           0
   16434 WT1  6009 TIP3 H1   HT     0.417000        1.0080           0
   16435 WT1  6009 TIP3 H2   HT     0.417000        1.0080           0
   16436 WT1  6010 TIP3 OH2  OT    -0.834000       15.9994           0
   16437 WT1  6010 TIP3 H1   HT     0.417000        1.0080           0
   16438 WT1  6010 TIP3 H2   HT     0.417000        1.0080           0
   16439 WT1  6012 TIP3 OH2  OT    -0.834000       15.9994           0
   16440 WT1  6012 TIP3 H1   HT     0.417000        1.0080           0
   16441 WT1  6012 TIP3 H2   HT     0.417000        1.0080           0
   16442 WT1  6013 TIP3 OH2  OT    -0.834000       15.9994           0
   16443 WT1  6013 TIP3 H1   HT     0.417000        1.0080           0
   16444 WT1  6013 TIP3 H2   HT     0.417000        1.0080           0
   16445 WT1  6014 TIP3 OH2  OT    -0.834000       15.9994           0
   16446 WT1  6014 TIP3 H1   HT     0.417000        1.0080           0
   16447 WT1  6014 TIP3 H2   HT     0.417000        1.0080           0
   16448 WT1  6015 TIP3 OH2  OT    -0.834000       15.9994           0
   16449 WT1  6015 TIP3 H1   HT     0.417000        1.0080           0
   16450 WT1  6015 TIP3 H2   HT     0.417000        1.0080           0
   16451 WT1  6017 TIP3 OH2  OT    -0.834000       15.9994           0
   16452 WT1  6017 TIP3 H1   HT     0.417000        1.0080           0
   16453 WT1  6017 TIP3 H2   HT     0.417000        1.0080           0
   16454 WT1  6018 TIP3 OH2  OT    -0.834000       15.9994           0
   16455 WT1  6018 TIP3 H1   HT     0.417000        1.0080           0
   16456 WT1  6018 TIP3 H2   HT     0.417000        1.0080           0
   16457 WT1  6019 TIP3 OH2  OT    -0.834000       15.9994           0
   16458 WT1  6019 TIP3 H1   HT     0.417000        1.0080           0
   16459 WT1  6019 TIP3 H2   HT     0.417000        1.0080           0
   16460 WT1  6020 TIP3 OH2  OT    -0.834000       15.9994           0
   16461 WT1  6020 TIP3 H1   HT     0.417000        1.0080           0
   16462 WT1  6020 TIP3 H2   HT     0.417000        1.0080           0
   16463 WT1  6021 TIP3 OH2  OT    -0.834000       15.9994           0
   16464 WT1  6021 TIP3 H1   HT     0.417000        1.0080           0
   16465 WT1  6021 TIP3 H2   HT     0.417000        1.0080           0
   16466 WT1  6022 TIP3 OH2  OT    -0.834000       15.9994           0
   16467 WT1  6022 TIP3 H1   HT     0.417000        1.0080           0
   16468 WT1  6022 TIP3 H2   HT     0.417000        1.0080           0
   16469 WT1  6024 TIP3 OH2  OT    -0.834000       15.9994           0
   16470 WT1  6024 TIP3 H1   HT     0.417000        1.0080           0
   16471 WT1  6024 TIP3 H2   HT     0.417000        1.0080           0
   16472 WT1  6025 TIP3 OH2  OT    -0.834000       15.9994           0
   16473 WT1  6025 TIP3 H1   HT     0.417000        1.0080           0
   16474 WT1  6025 TIP3 H2   HT     0.417000        1.0080           0
   16475 WT1  6026 TIP3 OH2  OT    -0.834000       15.9994           0
   16476 WT1  6026 TIP3 H1   HT     0.417000        1.0080           0
   16477 WT1  6026 TIP3 H2   HT     0.417000        1.0080           0
   16478 WT1  6027 TIP3 OH2  OT    -0.834000       15.9994           0
   16479 WT1  6027 TIP3 H1   HT     0.417000        1.0080           0
   16480 WT1  6027 TIP3 H2   HT     0.417000        1.0080           0
   16481 WT1  6028 TIP3 OH2  OT    -0.834000       15.9994           0
   16482 WT1  6028 TIP3 H1   HT     0.417000        1.0080           0
   16483 WT1  6028 TIP3 H2   HT     0.417000        1.0080           0
   16484 WT1  6030 TIP3 OH2  OT    -0.834000       15.9994           0
   16485 WT1  6030 TIP3 H1   HT     0.417000        1.0080           0
   16486 WT1  6030 TIP3 H2   HT     0.417000        1.0080           0
   16487 WT1  6031 TIP3 OH2  OT    -0.834000       15.9994           0
   16488 WT1  6031 TIP3 H1   HT     0.417000        1.0080           0
   16489 WT1  6031 TIP3 H2   HT     0.417000        1.0080           0
   16490 WT1  6032 TIP3 OH2  OT    -0.834000       15.9994           0
   16491 WT1  6032 TIP3 H1   HT     0.417000        1.0080           0
   16492 WT1  6032 TIP3 H2   HT     0.417000        1.0080           0
   16493 WT1  6033 TIP3 OH2  OT    -0.834000       15.9994           0
   16494 WT1  6033 TIP3 H1   HT     0.417000        1.0080           0
   16495 WT1  6033 TIP3 H2   HT     0.417000        1.0080           0
   16496 WT1  6034 TIP3 OH2  OT    -0.834000       15.9994           0
   16497 WT1  6034 TIP3 H1   HT     0.417000        1.0080           0
   16498 WT1  6034 TIP3 H2   HT     0.417000        1.0080           0
   16499 WT1  6035 TIP3 OH2  OT    -0.834000       15.9994           0
   16500 WT1  6035 TIP3 H1   HT     0.417000        1.0080           0
   16501 WT1  6035 TIP3 H2   HT     0.417000        1.0080           0
   16502 WT1  6036 TIP3 OH2  OT    -0.834000       15.9994           0
   16503 WT1  6036 TIP3 H1   HT     0.417000        1.0080           0
   16504 WT1  6036 TIP3 H2   HT     0.417000        1.0080           0
   16505 WT1  6037 TIP3 OH2  OT    -0.834000       15.9994           0
   16506 WT1  6037 TIP3 H1   HT     0.417000        1.0080           0
   16507 WT1  6037 TIP3 H2   HT     0.417000        1.0080           0
   16508 WT1  6038 TIP3 OH2  OT    -0.834000       15.9994           0
   16509 WT1  6038 TIP3 H1   HT     0.417000        1.0080           0
   16510 WT1  6038 TIP3 H2   HT     0.417000        1.0080           0
   16511 WT1  6040 TIP3 OH2  OT    -0.834000       15.9994           0
   16512 WT1  6040 TIP3 H1   HT     0.417000        1.0080           0
   16513 WT1  6040 TIP3 H2   HT     0.417000        1.0080           0
   16514 WT1  6041 TIP3 OH2  OT    -0.834000       15.9994           0
   16515 WT1  6041 TIP3 H1   HT     0.417000        1.0080           0
   16516 WT1  6041 TIP3 H2   HT     0.417000        1.0080           0
   16517 WT1  6042 TIP3 OH2  OT    -0.834000       15.9994           0
   16518 WT1  6042 TIP3 H1   HT     0.417000        1.0080           0
   16519 WT1  6042 TIP3 H2   HT     0.417000        1.0080           0
   16520 WT1  6043 TIP3 OH2  OT    -0.834000       15.9994           0
   16521 WT1  6043 TIP3 H1   HT     0.417000        1.0080           0
   16522 WT1  6043 TIP3 H2   HT     0.417000        1.0080           0
   16523 WT1  6044 TIP3 OH2  OT    -0.834000       15.9994           0
   16524 WT1  6044 TIP3 H1   HT     0.417000        1.0080           0
   16525 WT1  6044 TIP3 H2   HT     0.417000        1.0080           0
   16526 WT1  6045 TIP3 OH2  OT    -0.834000       15.9994           0
   16527 WT1  6045 TIP3 H1   HT     0.417000        1.0080           0
   16528 WT1  6045 TIP3 H2   HT     0.417000        1.0080           0
   16529 WT1  6046 TIP3 OH2  OT    -0.834000       15.9994           0
   16530 WT1  6046 TIP3 H1   HT     0.417000        1.0080           0
   16531 WT1  6046 TIP3 H2   HT     0.417000        1.0080           0
   16532 WT1  6048 TIP3 OH2  OT    -0.834000       15.9994           0
   16533 WT1  6048 TIP3 H1   HT     0.417000        1.0080           0
   16534 WT1  6048 TIP3 H2   HT     0.417000        1.0080           0
   16535 WT1  6049 TIP3 OH2  OT    -0.834000       15.9994           0
   16536 WT1  6049 TIP3 H1   HT     0.417000        1.0080           0
   16537 WT1  6049 TIP3 H2   HT     0.417000        1.0080           0
   16538 WT1  6050 TIP3 OH2  OT    -0.834000       15.9994           0
   16539 WT1  6050 TIP3 H1   HT     0.417000        1.0080           0
   16540 WT1  6050 TIP3 H2   HT     0.417000        1.0080           0
   16541 WT1  6051 TIP3 OH2  OT    -0.834000       15.9994           0
   16542 WT1  6051 TIP3 H1   HT     0.417000        1.0080           0
   16543 WT1  6051 TIP3 H2   HT     0.417000        1.0080           0
   16544 WT1  6052 TIP3 OH2  OT    -0.834000       15.9994           0
   16545 WT1  6052 TIP3 H1   HT     0.417000        1.0080           0
   16546 WT1  6052 TIP3 H2   HT     0.417000        1.0080           0
   16547 WT1  6053 TIP3 OH2  OT    -0.834000       15.9994           0
   16548 WT1  6053 TIP3 H1   HT     0.417000        1.0080           0
   16549 WT1  6053 TIP3 H2   HT     0.417000        1.0080           0
   16550 WT1  6054 TIP3 OH2  OT    -0.834000       15.9994           0
   16551 WT1  6054 TIP3 H1   HT     0.417000        1.0080           0
   16552 WT1  6054 TIP3 H2   HT     0.417000        1.0080           0
   16553 WT1  6056 TIP3 OH2  OT    -0.834000       15.9994           0
   16554 WT1  6056 TIP3 H1   HT     0.417000        1.0080           0
   16555 WT1  6056 TIP3 H2   HT     0.417000        1.0080           0
   16556 WT1  6058 TIP3 OH2  OT    -0.834000       15.9994           0
   16557 WT1  6058 TIP3 H1   HT     0.417000        1.0080           0
   16558 WT1  6058 TIP3 H2   HT     0.417000        1.0080           0
   16559 WT1  6061 TIP3 OH2  OT    -0.834000       15.9994           0
   16560 WT1  6061 TIP3 H1   HT     0.417000        1.0080           0
   16561 WT1  6061 TIP3 H2   HT     0.417000        1.0080           0
   16562 WT1  6062 TIP3 OH2  OT    -0.834000       15.9994           0
   16563 WT1  6062 TIP3 H1   HT     0.417000        1.0080           0
   16564 WT1  6062 TIP3 H2   HT     0.417000        1.0080           0
   16565 WT1  6063 TIP3 OH2  OT    -0.834000       15.9994           0
   16566 WT1  6063 TIP3 H1   HT     0.417000        1.0080           0
   16567 WT1  6063 TIP3 H2   HT     0.417000        1.0080           0
   16568 WT1  6064 TIP3 OH2  OT    -0.834000       15.9994           0
   16569 WT1  6064 TIP3 H1   HT     0.417000        1.0080           0
   16570 WT1  6064 TIP3 H2   HT     0.417000        1.0080           0
   16571 WT1  6065 TIP3 OH2  OT    -0.834000       15.9994           0
   16572 WT1  6065 TIP3 H1   HT     0.417000        1.0080           0
   16573 WT1  6065 TIP3 H2   HT     0.417000        1.0080           0
   16574 WT1  6066 TIP3 OH2  OT    -0.834000       15.9994           0
   16575 WT1  6066 TIP3 H1   HT     0.417000        1.0080           0
   16576 WT1  6066 TIP3 H2   HT     0.417000        1.0080           0
   16577 WT1  6068 TIP3 OH2  OT    -0.834000       15.9994           0
   16578 WT1  6068 TIP3 H1   HT     0.417000        1.0080           0
   16579 WT1  6068 TIP3 H2   HT     0.417000        1.0080           0
   16580 WT1  6069 TIP3 OH2  OT    -0.834000       15.9994           0
   16581 WT1  6069 TIP3 H1   HT     0.417000        1.0080           0
   16582 WT1  6069 TIP3 H2   HT     0.417000        1.0080           0
   16583 WT1  6071 TIP3 OH2  OT    -0.834000       15.9994           0
   16584 WT1  6071 TIP3 H1   HT     0.417000        1.0080           0
   16585 WT1  6071 TIP3 H2   HT     0.417000        1.0080           0
   16586 WT1  6072 TIP3 OH2  OT    -0.834000       15.9994           0
   16587 WT1  6072 TIP3 H1   HT     0.417000        1.0080           0
   16588 WT1  6072 TIP3 H2   HT     0.417000        1.0080           0
   16589 WT1  6074 TIP3 OH2  OT    -0.834000       15.9994           0
   16590 WT1  6074 TIP3 H1   HT     0.417000        1.0080           0
   16591 WT1  6074 TIP3 H2   HT     0.417000        1.0080           0
   16592 WT1  6078 TIP3 OH2  OT    -0.834000       15.9994           0
   16593 WT1  6078 TIP3 H1   HT     0.417000        1.0080           0
   16594 WT1  6078 TIP3 H2   HT     0.417000        1.0080           0
   16595 WT1  6079 TIP3 OH2  OT    -0.834000       15.9994           0
   16596 WT1  6079 TIP3 H1   HT     0.417000        1.0080           0
   16597 WT1  6079 TIP3 H2   HT     0.417000        1.0080           0
   16598 WT1  6081 TIP3 OH2  OT    -0.834000       15.9994           0
   16599 WT1  6081 TIP3 H1   HT     0.417000        1.0080           0
   16600 WT1  6081 TIP3 H2   HT     0.417000        1.0080           0
   16601 WT1  6082 TIP3 OH2  OT    -0.834000       15.9994           0
   16602 WT1  6082 TIP3 H1   HT     0.417000        1.0080           0
   16603 WT1  6082 TIP3 H2   HT     0.417000        1.0080           0
   16604 WT1  6083 TIP3 OH2  OT    -0.834000       15.9994           0
   16605 WT1  6083 TIP3 H1   HT     0.417000        1.0080           0
   16606 WT1  6083 TIP3 H2   HT     0.417000        1.0080           0
   16607 WT1  6084 TIP3 OH2  OT    -0.834000       15.9994           0
   16608 WT1  6084 TIP3 H1   HT     0.417000        1.0080           0
   16609 WT1  6084 TIP3 H2   HT     0.417000        1.0080           0
   16610 WT1  6085 TIP3 OH2  OT    -0.834000       15.9994           0
   16611 WT1  6085 TIP3 H1   HT     0.417000        1.0080           0
   16612 WT1  6085 TIP3 H2   HT     0.417000        1.0080           0
   16613 WT1  6086 TIP3 OH2  OT    -0.834000       15.9994           0
   16614 WT1  6086 TIP3 H1   HT     0.417000        1.0080           0
   16615 WT1  6086 TIP3 H2   HT     0.417000        1.0080           0
   16616 WT1  6087 TIP3 OH2  OT    -0.834000       15.9994           0
   16617 WT1  6087 TIP3 H1   HT     0.417000        1.0080           0
   16618 WT1  6087 TIP3 H2   HT     0.417000        1.0080           0
   16619 WT1  6089 TIP3 OH2  OT    -0.834000       15.9994           0
   16620 WT1  6089 TIP3 H1   HT     0.417000        1.0080           0
   16621 WT1  6089 TIP3 H2   HT     0.417000        1.0080           0
   16622 WT1  6090 TIP3 OH2  OT    -0.834000       15.9994           0
   16623 WT1  6090 TIP3 H1   HT     0.417000        1.0080           0
   16624 WT1  6090 TIP3 H2   HT     0.417000        1.0080           0
   16625 WT1  6092 TIP3 OH2  OT    -0.834000       15.9994           0
   16626 WT1  6092 TIP3 H1   HT     0.417000        1.0080           0
   16627 WT1  6092 TIP3 H2   HT     0.417000        1.0080           0
   16628 WT1  6093 TIP3 OH2  OT    -0.834000       15.9994           0
   16629 WT1  6093 TIP3 H1   HT     0.417000        1.0080           0
   16630 WT1  6093 TIP3 H2   HT     0.417000        1.0080           0
   16631 WT1  6094 TIP3 OH2  OT    -0.834000       15.9994           0
   16632 WT1  6094 TIP3 H1   HT     0.417000        1.0080           0
   16633 WT1  6094 TIP3 H2   HT     0.417000        1.0080           0
   16634 WT1  6095 TIP3 OH2  OT    -0.834000       15.9994           0
   16635 WT1  6095 TIP3 H1   HT     0.417000        1.0080           0
   16636 WT1  6095 TIP3 H2   HT     0.417000        1.0080           0
   16637 WT1  6096 TIP3 OH2  OT    -0.834000       15.9994           0
   16638 WT1  6096 TIP3 H1   HT     0.417000        1.0080           0
   16639 WT1  6096 TIP3 H2   HT     0.417000        1.0080           0
   16640 WT1  6097 TIP3 OH2  OT    -0.834000       15.9994           0
   16641 WT1  6097 TIP3 H1   HT     0.417000        1.0080           0
   16642 WT1  6097 TIP3 H2   HT     0.417000        1.0080           0
   16643 WT1  6098 TIP3 OH2  OT    -0.834000       15.9994           0
   16644 WT1  6098 TIP3 H1   HT     0.417000        1.0080           0
   16645 WT1  6098 TIP3 H2   HT     0.417000        1.0080           0
   16646 WT1  6099 TIP3 OH2  OT    -0.834000       15.9994           0
   16647 WT1  6099 TIP3 H1   HT     0.417000        1.0080           0
   16648 WT1  6099 TIP3 H2   HT     0.417000        1.0080           0
   16649 WT1  6100 TIP3 OH2  OT    -0.834000       15.9994           0
   16650 WT1  6100 TIP3 H1   HT     0.417000        1.0080           0
   16651 WT1  6100 TIP3 H2   HT     0.417000        1.0080           0
   16652 WT1  6101 TIP3 OH2  OT    -0.834000       15.9994           0
   16653 WT1  6101 TIP3 H1   HT     0.417000        1.0080           0
   16654 WT1  6101 TIP3 H2   HT     0.417000        1.0080           0
   16655 WT1  6102 TIP3 OH2  OT    -0.834000       15.9994           0
   16656 WT1  6102 TIP3 H1   HT     0.417000        1.0080           0
   16657 WT1  6102 TIP3 H2   HT     0.417000        1.0080           0
   16658 WT1  6103 TIP3 OH2  OT    -0.834000       15.9994           0
   16659 WT1  6103 TIP3 H1   HT     0.417000        1.0080           0
   16660 WT1  6103 TIP3 H2   HT     0.417000        1.0080           0
   16661 WT1  6105 TIP3 OH2  OT    -0.834000       15.9994           0
   16662 WT1  6105 TIP3 H1   HT     0.417000        1.0080           0
   16663 WT1  6105 TIP3 H2   HT     0.417000        1.0080           0
   16664 WT1  6106 TIP3 OH2  OT    -0.834000       15.9994           0
   16665 WT1  6106 TIP3 H1   HT     0.417000        1.0080           0
   16666 WT1  6106 TIP3 H2   HT     0.417000        1.0080           0
   16667 WT1  6108 TIP3 OH2  OT    -0.834000       15.9994           0
   16668 WT1  6108 TIP3 H1   HT     0.417000        1.0080           0
   16669 WT1  6108 TIP3 H2   HT     0.417000        1.0080           0
   16670 WT1  6109 TIP3 OH2  OT    -0.834000       15.9994           0
   16671 WT1  6109 TIP3 H1   HT     0.417000        1.0080           0
   16672 WT1  6109 TIP3 H2   HT     0.417000        1.0080           0
   16673 WT1  6110 TIP3 OH2  OT    -0.834000       15.9994           0
   16674 WT1  6110 TIP3 H1   HT     0.417000        1.0080           0
   16675 WT1  6110 TIP3 H2   HT     0.417000        1.0080           0
   16676 WT1  6111 TIP3 OH2  OT    -0.834000       15.9994           0
   16677 WT1  6111 TIP3 H1   HT     0.417000        1.0080           0
   16678 WT1  6111 TIP3 H2   HT     0.417000        1.0080           0
   16679 WT1  6112 TIP3 OH2  OT    -0.834000       15.9994           0
   16680 WT1  6112 TIP3 H1   HT     0.417000        1.0080           0
   16681 WT1  6112 TIP3 H2   HT     0.417000        1.0080           0
   16682 WT1  6113 TIP3 OH2  OT    -0.834000       15.9994           0
   16683 WT1  6113 TIP3 H1   HT     0.417000        1.0080           0
   16684 WT1  6113 TIP3 H2   HT     0.417000        1.0080           0
   16685 WT1  6115 TIP3 OH2  OT    -0.834000       15.9994           0
   16686 WT1  6115 TIP3 H1   HT     0.417000        1.0080           0
   16687 WT1  6115 TIP3 H2   HT     0.417000        1.0080           0
   16688 WT1  6116 TIP3 OH2  OT    -0.834000       15.9994           0
   16689 WT1  6116 TIP3 H1   HT     0.417000        1.0080           0
   16690 WT1  6116 TIP3 H2   HT     0.417000        1.0080           0
   16691 WT1  6117 TIP3 OH2  OT    -0.834000       15.9994           0
   16692 WT1  6117 TIP3 H1   HT     0.417000        1.0080           0
   16693 WT1  6117 TIP3 H2   HT     0.417000        1.0080           0
   16694 WT1  6118 TIP3 OH2  OT    -0.834000       15.9994           0
   16695 WT1  6118 TIP3 H1   HT     0.417000        1.0080           0
   16696 WT1  6118 TIP3 H2   HT     0.417000        1.0080           0
   16697 WT1  6119 TIP3 OH2  OT    -0.834000       15.9994           0
   16698 WT1  6119 TIP3 H1   HT     0.417000        1.0080           0
   16699 WT1  6119 TIP3 H2   HT     0.417000        1.0080           0
   16700 WT1  6121 TIP3 OH2  OT    -0.834000       15.9994           0
   16701 WT1  6121 TIP3 H1   HT     0.417000        1.0080           0
   16702 WT1  6121 TIP3 H2   HT     0.417000        1.0080           0
   16703 WT1  6122 TIP3 OH2  OT    -0.834000       15.9994           0
   16704 WT1  6122 TIP3 H1   HT     0.417000        1.0080           0
   16705 WT1  6122 TIP3 H2   HT     0.417000        1.0080           0
   16706 WT1  6123 TIP3 OH2  OT    -0.834000       15.9994           0
   16707 WT1  6123 TIP3 H1   HT     0.417000        1.0080           0
   16708 WT1  6123 TIP3 H2   HT     0.417000        1.0080           0
   16709 WT1  6125 TIP3 OH2  OT    -0.834000       15.9994           0
   16710 WT1  6125 TIP3 H1   HT     0.417000        1.0080           0
   16711 WT1  6125 TIP3 H2   HT     0.417000        1.0080           0
   16712 WT1  6126 TIP3 OH2  OT    -0.834000       15.9994           0
   16713 WT1  6126 TIP3 H1   HT     0.417000        1.0080           0
   16714 WT1  6126 TIP3 H2   HT     0.417000        1.0080           0
   16715 WT1  6128 TIP3 OH2  OT    -0.834000       15.9994           0
   16716 WT1  6128 TIP3 H1   HT     0.417000        1.0080           0
   16717 WT1  6128 TIP3 H2   HT     0.417000        1.0080           0
   16718 WT1  6129 TIP3 OH2  OT    -0.834000       15.9994           0
   16719 WT1  6129 TIP3 H1   HT     0.417000        1.0080           0
   16720 WT1  6129 TIP3 H2   HT     0.417000        1.0080           0
   16721 WT1  6130 TIP3 OH2  OT    -0.834000       15.9994           0
   16722 WT1  6130 TIP3 H1   HT     0.417000        1.0080           0
   16723 WT1  6130 TIP3 H2   HT     0.417000        1.0080           0
   16724 WT1  6132 TIP3 OH2  OT    -0.834000       15.9994           0
   16725 WT1  6132 TIP3 H1   HT     0.417000        1.0080           0
   16726 WT1  6132 TIP3 H2   HT     0.417000        1.0080           0
   16727 WT1  6133 TIP3 OH2  OT    -0.834000       15.9994           0
   16728 WT1  6133 TIP3 H1   HT     0.417000        1.0080           0
   16729 WT1  6133 TIP3 H2   HT     0.417000        1.0080           0
   16730 WT1  6134 TIP3 OH2  OT    -0.834000       15.9994           0
   16731 WT1  6134 TIP3 H1   HT     0.417000        1.0080           0
   16732 WT1  6134 TIP3 H2   HT     0.417000        1.0080           0
   16733 WT1  6135 TIP3 OH2  OT    -0.834000       15.9994           0
   16734 WT1  6135 TIP3 H1   HT     0.417000        1.0080           0
   16735 WT1  6135 TIP3 H2   HT     0.417000        1.0080           0
   16736 WT1  6136 TIP3 OH2  OT    -0.834000       15.9994           0
   16737 WT1  6136 TIP3 H1   HT     0.417000        1.0080           0
   16738 WT1  6136 TIP3 H2   HT     0.417000        1.0080           0
   16739 WT1  6137 TIP3 OH2  OT    -0.834000       15.9994           0
   16740 WT1  6137 TIP3 H1   HT     0.417000        1.0080           0
   16741 WT1  6137 TIP3 H2   HT     0.417000        1.0080           0
   16742 WT1  6138 TIP3 OH2  OT    -0.834000       15.9994           0
   16743 WT1  6138 TIP3 H1   HT     0.417000        1.0080           0
   16744 WT1  6138 TIP3 H2   HT     0.417000        1.0080           0
   16745 WT1  6139 TIP3 OH2  OT    -0.834000       15.9994           0
   16746 WT1  6139 TIP3 H1   HT     0.417000        1.0080           0
   16747 WT1  6139 TIP3 H2   HT     0.417000        1.0080           0
   16748 WT1  6140 TIP3 OH2  OT    -0.834000       15.9994           0
   16749 WT1  6140 TIP3 H1   HT     0.417000        1.0080           0
   16750 WT1  6140 TIP3 H2   HT     0.417000        1.0080           0
   16751 WT1  6141 TIP3 OH2  OT    -0.834000       15.9994           0
   16752 WT1  6141 TIP3 H1   HT     0.417000        1.0080           0
   16753 WT1  6141 TIP3 H2   HT     0.417000        1.0080           0
   16754 WT1  6142 TIP3 OH2  OT    -0.834000       15.9994           0
   16755 WT1  6142 TIP3 H1   HT     0.417000        1.0080           0
   16756 WT1  6142 TIP3 H2   HT     0.417000        1.0080           0
   16757 WT1  6143 TIP3 OH2  OT    -0.834000       15.9994           0
   16758 WT1  6143 TIP3 H1   HT     0.417000        1.0080           0
   16759 WT1  6143 TIP3 H2   HT     0.417000        1.0080           0
   16760 WT1  6144 TIP3 OH2  OT    -0.834000       15.9994           0
   16761 WT1  6144 TIP3 H1   HT     0.417000        1.0080           0
   16762 WT1  6144 TIP3 H2   HT     0.417000        1.0080           0
   16763 WT1  6145 TIP3 OH2  OT    -0.834000       15.9994           0
   16764 WT1  6145 TIP3 H1   HT     0.417000        1.0080           0
   16765 WT1  6145 TIP3 H2   HT     0.417000        1.0080           0
   16766 WT1  6146 TIP3 OH2  OT    -0.834000       15.9994           0
   16767 WT1  6146 TIP3 H1   HT     0.417000        1.0080           0
   16768 WT1  6146 TIP3 H2   HT     0.417000        1.0080           0
   16769 WT1  6147 TIP3 OH2  OT    -0.834000       15.9994           0
   16770 WT1  6147 TIP3 H1   HT     0.417000        1.0080           0
   16771 WT1  6147 TIP3 H2   HT     0.417000        1.0080           0
   16772 WT1  6148 TIP3 OH2  OT    -0.834000       15.9994           0
   16773 WT1  6148 TIP3 H1   HT     0.417000        1.0080           0
   16774 WT1  6148 TIP3 H2   HT     0.417000        1.0080           0
   16775 WT1  6149 TIP3 OH2  OT    -0.834000       15.9994           0
   16776 WT1  6149 TIP3 H1   HT     0.417000        1.0080           0
   16777 WT1  6149 TIP3 H2   HT     0.417000        1.0080           0
   16778 WT1  6150 TIP3 OH2  OT    -0.834000       15.9994           0
   16779 WT1  6150 TIP3 H1   HT     0.417000        1.0080           0
   16780 WT1  6150 TIP3 H2   HT     0.417000        1.0080           0
   16781 WT1  6151 TIP3 OH2  OT    -0.834000       15.9994           0
   16782 WT1  6151 TIP3 H1   HT     0.417000        1.0080           0
   16783 WT1  6151 TIP3 H2   HT     0.417000        1.0080           0
   16784 WT1  6152 TIP3 OH2  OT    -0.834000       15.9994           0
   16785 WT1  6152 TIP3 H1   HT     0.417000        1.0080           0
   16786 WT1  6152 TIP3 H2   HT     0.417000        1.0080           0
   16787 WT1  6154 TIP3 OH2  OT    -0.834000       15.9994           0
   16788 WT1  6154 TIP3 H1   HT     0.417000        1.0080           0
   16789 WT1  6154 TIP3 H2   HT     0.417000        1.0080           0
   16790 WT1  6155 TIP3 OH2  OT    -0.834000       15.9994           0
   16791 WT1  6155 TIP3 H1   HT     0.417000        1.0080           0
   16792 WT1  6155 TIP3 H2   HT     0.417000        1.0080           0
   16793 WT1  6157 TIP3 OH2  OT    -0.834000       15.9994           0
   16794 WT1  6157 TIP3 H1   HT     0.417000        1.0080           0
   16795 WT1  6157 TIP3 H2   HT     0.417000        1.0080           0
   16796 WT1  6158 TIP3 OH2  OT    -0.834000       15.9994           0
   16797 WT1  6158 TIP3 H1   HT     0.417000        1.0080           0
   16798 WT1  6158 TIP3 H2   HT     0.417000        1.0080           0
   16799 WT1  6159 TIP3 OH2  OT    -0.834000       15.9994           0
   16800 WT1  6159 TIP3 H1   HT     0.417000        1.0080           0
   16801 WT1  6159 TIP3 H2   HT     0.417000        1.0080           0
   16802 WT1  6160 TIP3 OH2  OT    -0.834000       15.9994           0
   16803 WT1  6160 TIP3 H1   HT     0.417000        1.0080           0
   16804 WT1  6160 TIP3 H2   HT     0.417000        1.0080           0
   16805 WT1  6161 TIP3 OH2  OT    -0.834000       15.9994           0
   16806 WT1  6161 TIP3 H1   HT     0.417000        1.0080           0
   16807 WT1  6161 TIP3 H2   HT     0.417000        1.0080           0
   16808 WT1  6162 TIP3 OH2  OT    -0.834000       15.9994           0
   16809 WT1  6162 TIP3 H1   HT     0.417000        1.0080           0
   16810 WT1  6162 TIP3 H2   HT     0.417000        1.0080           0
   16811 WT1  6163 TIP3 OH2  OT    -0.834000       15.9994           0
   16812 WT1  6163 TIP3 H1   HT     0.417000        1.0080           0
   16813 WT1  6163 TIP3 H2   HT     0.417000        1.0080           0
   16814 WT1  6164 TIP3 OH2  OT    -0.834000       15.9994           0
   16815 WT1  6164 TIP3 H1   HT     0.417000        1.0080           0
   16816 WT1  6164 TIP3 H2   HT     0.417000        1.0080           0
   16817 WT1  6165 TIP3 OH2  OT    -0.834000       15.9994           0
   16818 WT1  6165 TIP3 H1   HT     0.417000        1.0080           0
   16819 WT1  6165 TIP3 H2   HT     0.417000        1.0080           0
   16820 WT1  6166 TIP3 OH2  OT    -0.834000       15.9994           0
   16821 WT1  6166 TIP3 H1   HT     0.417000        1.0080           0
   16822 WT1  6166 TIP3 H2   HT     0.417000        1.0080           0
   16823 WT1  6168 TIP3 OH2  OT    -0.834000       15.9994           0
   16824 WT1  6168 TIP3 H1   HT     0.417000        1.0080           0
   16825 WT1  6168 TIP3 H2   HT     0.417000        1.0080           0
   16826 WT1  6169 TIP3 OH2  OT    -0.834000       15.9994           0
   16827 WT1  6169 TIP3 H1   HT     0.417000        1.0080           0
   16828 WT1  6169 TIP3 H2   HT     0.417000        1.0080           0
   16829 WT1  6170 TIP3 OH2  OT    -0.834000       15.9994           0
   16830 WT1  6170 TIP3 H1   HT     0.417000        1.0080           0
   16831 WT1  6170 TIP3 H2   HT     0.417000        1.0080           0
   16832 WT1  6171 TIP3 OH2  OT    -0.834000       15.9994           0
   16833 WT1  6171 TIP3 H1   HT     0.417000        1.0080           0
   16834 WT1  6171 TIP3 H2   HT     0.417000        1.0080           0
   16835 WT1  6172 TIP3 OH2  OT    -0.834000       15.9994           0
   16836 WT1  6172 TIP3 H1   HT     0.417000        1.0080           0
   16837 WT1  6172 TIP3 H2   HT     0.417000        1.0080           0
   16838 WT1  6175 TIP3 OH2  OT    -0.834000       15.9994           0
   16839 WT1  6175 TIP3 H1   HT     0.417000        1.0080           0
   16840 WT1  6175 TIP3 H2   HT     0.417000        1.0080           0
   16841 WT1  6176 TIP3 OH2  OT    -0.834000       15.9994           0
   16842 WT1  6176 TIP3 H1   HT     0.417000        1.0080           0
   16843 WT1  6176 TIP3 H2   HT     0.417000        1.0080           0
   16844 WT1  6177 TIP3 OH2  OT    -0.834000       15.9994           0
   16845 WT1  6177 TIP3 H1   HT     0.417000        1.0080           0
   16846 WT1  6177 TIP3 H2   HT     0.417000        1.0080           0
   16847 WT1  6178 TIP3 OH2  OT    -0.834000       15.9994           0
   16848 WT1  6178 TIP3 H1   HT     0.417000        1.0080           0
   16849 WT1  6178 TIP3 H2   HT     0.417000        1.0080           0
   16850 WT1  6180 TIP3 OH2  OT    -0.834000       15.9994           0
   16851 WT1  6180 TIP3 H1   HT     0.417000        1.0080           0
   16852 WT1  6180 TIP3 H2   HT     0.417000        1.0080           0
   16853 WT1  6181 TIP3 OH2  OT    -0.834000       15.9994           0
   16854 WT1  6181 TIP3 H1   HT     0.417000        1.0080           0
   16855 WT1  6181 TIP3 H2   HT     0.417000        1.0080           0
   16856 WT1  6182 TIP3 OH2  OT    -0.834000       15.9994           0
   16857 WT1  6182 TIP3 H1   HT     0.417000        1.0080           0
   16858 WT1  6182 TIP3 H2   HT     0.417000        1.0080           0
   16859 WT1  6183 TIP3 OH2  OT    -0.834000       15.9994           0
   16860 WT1  6183 TIP3 H1   HT     0.417000        1.0080           0
   16861 WT1  6183 TIP3 H2   HT     0.417000        1.0080           0
   16862 WT1  6184 TIP3 OH2  OT    -0.834000       15.9994           0
   16863 WT1  6184 TIP3 H1   HT     0.417000        1.0080           0
   16864 WT1  6184 TIP3 H2   HT     0.417000        1.0080           0
   16865 WT1  6185 TIP3 OH2  OT    -0.834000       15.9994           0
   16866 WT1  6185 TIP3 H1   HT     0.417000        1.0080           0
   16867 WT1  6185 TIP3 H2   HT     0.417000        1.0080           0
   16868 WT1  6186 TIP3 OH2  OT    -0.834000       15.9994           0
   16869 WT1  6186 TIP3 H1   HT     0.417000        1.0080           0
   16870 WT1  6186 TIP3 H2   HT     0.417000        1.0080           0
   16871 WT1  6187 TIP3 OH2  OT    -0.834000       15.9994           0
   16872 WT1  6187 TIP3 H1   HT     0.417000        1.0080           0
   16873 WT1  6187 TIP3 H2   HT     0.417000        1.0080           0
   16874 WT1  6188 TIP3 OH2  OT    -0.834000       15.9994           0
   16875 WT1  6188 TIP3 H1   HT     0.417000        1.0080           0
   16876 WT1  6188 TIP3 H2   HT     0.417000        1.0080           0
   16877 WT1  6190 TIP3 OH2  OT    -0.834000       15.9994           0
   16878 WT1  6190 TIP3 H1   HT     0.417000        1.0080           0
   16879 WT1  6190 TIP3 H2   HT     0.417000        1.0080           0
   16880 WT1  6191 TIP3 OH2  OT    -0.834000       15.9994           0
   16881 WT1  6191 TIP3 H1   HT     0.417000        1.0080           0
   16882 WT1  6191 TIP3 H2   HT     0.417000        1.0080           0
   16883 WT1  6192 TIP3 OH2  OT    -0.834000       15.9994           0
   16884 WT1  6192 TIP3 H1   HT     0.417000        1.0080           0
   16885 WT1  6192 TIP3 H2   HT     0.417000        1.0080           0
   16886 WT1  6193 TIP3 OH2  OT    -0.834000       15.9994           0
   16887 WT1  6193 TIP3 H1   HT     0.417000        1.0080           0
   16888 WT1  6193 TIP3 H2   HT     0.417000        1.0080           0
   16889 WT1  6194 TIP3 OH2  OT    -0.834000       15.9994           0
   16890 WT1  6194 TIP3 H1   HT     0.417000        1.0080           0
   16891 WT1  6194 TIP3 H2   HT     0.417000        1.0080           0
   16892 WT1  6195 TIP3 OH2  OT    -0.834000       15.9994           0
   16893 WT1  6195 TIP3 H1   HT     0.417000        1.0080           0
   16894 WT1  6195 TIP3 H2   HT     0.417000        1.0080           0
   16895 WT1  6198 TIP3 OH2  OT    -0.834000       15.9994           0
   16896 WT1  6198 TIP3 H1   HT     0.417000        1.0080           0
   16897 WT1  6198 TIP3 H2   HT     0.417000        1.0080           0
   16898 WT1  6200 TIP3 OH2  OT    -0.834000       15.9994           0
   16899 WT1  6200 TIP3 H1   HT     0.417000        1.0080           0
   16900 WT1  6200 TIP3 H2   HT     0.417000        1.0080           0
   16901 WT1  6203 TIP3 OH2  OT    -0.834000       15.9994           0
   16902 WT1  6203 TIP3 H1   HT     0.417000        1.0080           0
   16903 WT1  6203 TIP3 H2   HT     0.417000        1.0080           0
   16904 WT1  6204 TIP3 OH2  OT    -0.834000       15.9994           0
   16905 WT1  6204 TIP3 H1   HT     0.417000        1.0080           0
   16906 WT1  6204 TIP3 H2   HT     0.417000        1.0080           0
   16907 WT1  6205 TIP3 OH2  OT    -0.834000       15.9994           0
   16908 WT1  6205 TIP3 H1   HT     0.417000        1.0080           0
   16909 WT1  6205 TIP3 H2   HT     0.417000        1.0080           0
   16910 WT1  6206 TIP3 OH2  OT    -0.834000       15.9994           0
   16911 WT1  6206 TIP3 H1   HT     0.417000        1.0080           0
   16912 WT1  6206 TIP3 H2   HT     0.417000        1.0080           0
   16913 WT1  6208 TIP3 OH2  OT    -0.834000       15.9994           0
   16914 WT1  6208 TIP3 H1   HT     0.417000        1.0080           0
   16915 WT1  6208 TIP3 H2   HT     0.417000        1.0080           0
   16916 WT1  6209 TIP3 OH2  OT    -0.834000       15.9994           0
   16917 WT1  6209 TIP3 H1   HT     0.417000        1.0080           0
   16918 WT1  6209 TIP3 H2   HT     0.417000        1.0080           0
   16919 WT1  6210 TIP3 OH2  OT    -0.834000       15.9994           0
   16920 WT1  6210 TIP3 H1   HT     0.417000        1.0080           0
   16921 WT1  6210 TIP3 H2   HT     0.417000        1.0080           0
   16922 WT1  6211 TIP3 OH2  OT    -0.834000       15.9994           0
   16923 WT1  6211 TIP3 H1   HT     0.417000        1.0080           0
   16924 WT1  6211 TIP3 H2   HT     0.417000        1.0080           0
   16925 WT1  6212 TIP3 OH2  OT    -0.834000       15.9994           0
   16926 WT1  6212 TIP3 H1   HT     0.417000        1.0080           0
   16927 WT1  6212 TIP3 H2   HT     0.417000        1.0080           0
   16928 WT1  6213 TIP3 OH2  OT    -0.834000       15.9994           0
   16929 WT1  6213 TIP3 H1   HT     0.417000        1.0080           0
   16930 WT1  6213 TIP3 H2   HT     0.417000        1.0080           0
   16931 WT1  6214 TIP3 OH2  OT    -0.834000       15.9994           0
   16932 WT1  6214 TIP3 H1   HT     0.417000        1.0080           0
   16933 WT1  6214 TIP3 H2   HT     0.417000        1.0080           0
   16934 WT1  6215 TIP3 OH2  OT    -0.834000       15.9994           0
   16935 WT1  6215 TIP3 H1   HT     0.417000        1.0080           0
   16936 WT1  6215 TIP3 H2   HT     0.417000        1.0080           0
   16937 WT1  6216 TIP3 OH2  OT    -0.834000       15.9994           0
   16938 WT1  6216 TIP3 H1   HT     0.417000        1.0080           0
   16939 WT1  6216 TIP3 H2   HT     0.417000        1.0080           0
   16940 WT1  6217 TIP3 OH2  OT    -0.834000       15.9994           0
   16941 WT1  6217 TIP3 H1   HT     0.417000        1.0080           0
   16942 WT1  6217 TIP3 H2   HT     0.417000        1.0080           0
   16943 WT1  6218 TIP3 OH2  OT    -0.834000       15.9994           0
   16944 WT1  6218 TIP3 H1   HT     0.417000        1.0080           0
   16945 WT1  6218 TIP3 H2   HT     0.417000        1.0080           0
   16946 WT1  6219 TIP3 OH2  OT    -0.834000       15.9994           0
   16947 WT1  6219 TIP3 H1   HT     0.417000        1.0080           0
   16948 WT1  6219 TIP3 H2   HT     0.417000        1.0080           0
   16949 WT1  6220 TIP3 OH2  OT    -0.834000       15.9994           0
   16950 WT1  6220 TIP3 H1   HT     0.417000        1.0080           0
   16951 WT1  6220 TIP3 H2   HT     0.417000        1.0080           0
   16952 WT1  6221 TIP3 OH2  OT    -0.834000       15.9994           0
   16953 WT1  6221 TIP3 H1   HT     0.417000        1.0080           0
   16954 WT1  6221 TIP3 H2   HT     0.417000        1.0080           0
   16955 WT1  6222 TIP3 OH2  OT    -0.834000       15.9994           0
   16956 WT1  6222 TIP3 H1   HT     0.417000        1.0080           0
   16957 WT1  6222 TIP3 H2   HT     0.417000        1.0080           0
   16958 WT1  6223 TIP3 OH2  OT    -0.834000       15.9994           0
   16959 WT1  6223 TIP3 H1   HT     0.417000        1.0080           0
   16960 WT1  6223 TIP3 H2   HT     0.417000        1.0080           0
   16961 WT1  6224 TIP3 OH2  OT    -0.834000       15.9994           0
   16962 WT1  6224 TIP3 H1   HT     0.417000        1.0080           0
   16963 WT1  6224 TIP3 H2   HT     0.417000        1.0080           0
   16964 WT1  6225 TIP3 OH2  OT    -0.834000       15.9994           0
   16965 WT1  6225 TIP3 H1   HT     0.417000        1.0080           0
   16966 WT1  6225 TIP3 H2   HT     0.417000        1.0080           0
   16967 WT1  6226 TIP3 OH2  OT    -0.834000       15.9994           0
   16968 WT1  6226 TIP3 H1   HT     0.417000        1.0080           0
   16969 WT1  6226 TIP3 H2   HT     0.417000        1.0080           0
   16970 WT1  6227 TIP3 OH2  OT    -0.834000       15.9994           0
   16971 WT1  6227 TIP3 H1   HT     0.417000        1.0080           0
   16972 WT1  6227 TIP3 H2   HT     0.417000        1.0080           0
   16973 WT1  6228 TIP3 OH2  OT    -0.834000       15.9994           0
   16974 WT1  6228 TIP3 H1   HT     0.417000        1.0080           0
   16975 WT1  6228 TIP3 H2   HT     0.417000        1.0080           0
   16976 WT1  6229 TIP3 OH2  OT    -0.834000       15.9994           0
   16977 WT1  6229 TIP3 H1   HT     0.417000        1.0080           0
   16978 WT1  6229 TIP3 H2   HT     0.417000        1.0080           0
   16979 WT1  6230 TIP3 OH2  OT    -0.834000       15.9994           0
   16980 WT1  6230 TIP3 H1   HT     0.417000        1.0080           0
   16981 WT1  6230 TIP3 H2   HT     0.417000        1.0080           0
   16982 WT1  6231 TIP3 OH2  OT    -0.834000       15.9994           0
   16983 WT1  6231 TIP3 H1   HT     0.417000        1.0080           0
   16984 WT1  6231 TIP3 H2   HT     0.417000        1.0080           0
   16985 WT1  6232 TIP3 OH2  OT    -0.834000       15.9994           0
   16986 WT1  6232 TIP3 H1   HT     0.417000        1.0080           0
   16987 WT1  6232 TIP3 H2   HT     0.417000        1.0080           0
   16988 WT1  6233 TIP3 OH2  OT    -0.834000       15.9994           0
   16989 WT1  6233 TIP3 H1   HT     0.417000        1.0080           0
   16990 WT1  6233 TIP3 H2   HT     0.417000        1.0080           0
   16991 WT1  6234 TIP3 OH2  OT    -0.834000       15.9994           0
   16992 WT1  6234 TIP3 H1   HT     0.417000        1.0080           0
   16993 WT1  6234 TIP3 H2   HT     0.417000        1.0080           0
   16994 WT1  6235 TIP3 OH2  OT    -0.834000       15.9994           0
   16995 WT1  6235 TIP3 H1   HT     0.417000        1.0080           0
   16996 WT1  6235 TIP3 H2   HT     0.417000        1.0080           0
   16997 WT1  6236 TIP3 OH2  OT    -0.834000       15.9994           0
   16998 WT1  6236 TIP3 H1   HT     0.417000        1.0080           0
   16999 WT1  6236 TIP3 H2   HT     0.417000        1.0080           0
   17000 WT1  6237 TIP3 OH2  OT    -0.834000       15.9994           0
   17001 WT1  6237 TIP3 H1   HT     0.417000        1.0080           0
   17002 WT1  6237 TIP3 H2   HT     0.417000        1.0080           0
   17003 WT1  6238 TIP3 OH2  OT    -0.834000       15.9994           0
   17004 WT1  6238 TIP3 H1   HT     0.417000        1.0080           0
   17005 WT1  6238 TIP3 H2   HT     0.417000        1.0080           0
   17006 WT1  6240 TIP3 OH2  OT    -0.834000       15.9994           0
   17007 WT1  6240 TIP3 H1   HT     0.417000        1.0080           0
   17008 WT1  6240 TIP3 H2   HT     0.417000        1.0080           0
   17009 WT1  6241 TIP3 OH2  OT    -0.834000       15.9994           0
   17010 WT1  6241 TIP3 H1   HT     0.417000        1.0080           0
   17011 WT1  6241 TIP3 H2   HT     0.417000        1.0080           0
   17012 WT1  6243 TIP3 OH2  OT    -0.834000       15.9994           0
   17013 WT1  6243 TIP3 H1   HT     0.417000        1.0080           0
   17014 WT1  6243 TIP3 H2   HT     0.417000        1.0080           0
   17015 WT1  6244 TIP3 OH2  OT    -0.834000       15.9994           0
   17016 WT1  6244 TIP3 H1   HT     0.417000        1.0080           0
   17017 WT1  6244 TIP3 H2   HT     0.417000        1.0080           0
   17018 WT1  6245 TIP3 OH2  OT    -0.834000       15.9994           0
   17019 WT1  6245 TIP3 H1   HT     0.417000        1.0080           0
   17020 WT1  6245 TIP3 H2   HT     0.417000        1.0080           0
   17021 WT1  6246 TIP3 OH2  OT    -0.834000       15.9994           0
   17022 WT1  6246 TIP3 H1   HT     0.417000        1.0080           0
   17023 WT1  6246 TIP3 H2   HT     0.417000        1.0080           0
   17024 WT1  6247 TIP3 OH2  OT    -0.834000       15.9994           0
   17025 WT1  6247 TIP3 H1   HT     0.417000        1.0080           0
   17026 WT1  6247 TIP3 H2   HT     0.417000        1.0080           0
   17027 WT1  6248 TIP3 OH2  OT    -0.834000       15.9994           0
   17028 WT1  6248 TIP3 H1   HT     0.417000        1.0080           0
   17029 WT1  6248 TIP3 H2   HT     0.417000        1.0080           0
   17030 WT1  6249 TIP3 OH2  OT    -0.834000       15.9994           0
   17031 WT1  6249 TIP3 H1   HT     0.417000        1.0080           0
   17032 WT1  6249 TIP3 H2   HT     0.417000        1.0080           0
   17033 WT1  6250 TIP3 OH2  OT    -0.834000       15.9994           0
   17034 WT1  6250 TIP3 H1   HT     0.417000        1.0080           0
   17035 WT1  6250 TIP3 H2   HT     0.417000        1.0080           0
   17036 WT1  6251 TIP3 OH2  OT    -0.834000       15.9994           0
   17037 WT1  6251 TIP3 H1   HT     0.417000        1.0080           0
   17038 WT1  6251 TIP3 H2   HT     0.417000        1.0080           0
   17039 WT1  6252 TIP3 OH2  OT    -0.834000       15.9994           0
   17040 WT1  6252 TIP3 H1   HT     0.417000        1.0080           0
   17041 WT1  6252 TIP3 H2   HT     0.417000        1.0080           0
   17042 WT1  6253 TIP3 OH2  OT    -0.834000       15.9994           0
   17043 WT1  6253 TIP3 H1   HT     0.417000        1.0080           0
   17044 WT1  6253 TIP3 H2   HT     0.417000        1.0080           0
   17045 WT1  6254 TIP3 OH2  OT    -0.834000       15.9994           0
   17046 WT1  6254 TIP3 H1   HT     0.417000        1.0080           0
   17047 WT1  6254 TIP3 H2   HT     0.417000        1.0080           0
   17048 WT1  6255 TIP3 OH2  OT    -0.834000       15.9994           0
   17049 WT1  6255 TIP3 H1   HT     0.417000        1.0080           0
   17050 WT1  6255 TIP3 H2   HT     0.417000        1.0080           0
   17051 WT1  6256 TIP3 OH2  OT    -0.834000       15.9994           0
   17052 WT1  6256 TIP3 H1   HT     0.417000        1.0080           0
   17053 WT1  6256 TIP3 H2   HT     0.417000        1.0080           0
   17054 WT1  6257 TIP3 OH2  OT    -0.834000       15.9994           0
   17055 WT1  6257 TIP3 H1   HT     0.417000        1.0080           0
   17056 WT1  6257 TIP3 H2   HT     0.417000        1.0080           0
   17057 WT1  6260 TIP3 OH2  OT    -0.834000       15.9994           0
   17058 WT1  6260 TIP3 H1   HT     0.417000        1.0080           0
   17059 WT1  6260 TIP3 H2   HT     0.417000        1.0080           0
   17060 WT1  6261 TIP3 OH2  OT    -0.834000       15.9994           0
   17061 WT1  6261 TIP3 H1   HT     0.417000        1.0080           0
   17062 WT1  6261 TIP3 H2   HT     0.417000        1.0080           0
   17063 WT1  6263 TIP3 OH2  OT    -0.834000       15.9994           0
   17064 WT1  6263 TIP3 H1   HT     0.417000        1.0080           0
   17065 WT1  6263 TIP3 H2   HT     0.417000        1.0080           0
   17066 WT1  6264 TIP3 OH2  OT    -0.834000       15.9994           0
   17067 WT1  6264 TIP3 H1   HT     0.417000        1.0080           0
   17068 WT1  6264 TIP3 H2   HT     0.417000        1.0080           0
   17069 WT1  6266 TIP3 OH2  OT    -0.834000       15.9994           0
   17070 WT1  6266 TIP3 H1   HT     0.417000        1.0080           0
   17071 WT1  6266 TIP3 H2   HT     0.417000        1.0080           0
   17072 WT1  6267 TIP3 OH2  OT    -0.834000       15.9994           0
   17073 WT1  6267 TIP3 H1   HT     0.417000        1.0080           0
   17074 WT1  6267 TIP3 H2   HT     0.417000        1.0080           0
   17075 WT1  6268 TIP3 OH2  OT    -0.834000       15.9994           0
   17076 WT1  6268 TIP3 H1   HT     0.417000        1.0080           0
   17077 WT1  6268 TIP3 H2   HT     0.417000        1.0080           0
   17078 WT1  6269 TIP3 OH2  OT    -0.834000       15.9994           0
   17079 WT1  6269 TIP3 H1   HT     0.417000        1.0080           0
   17080 WT1  6269 TIP3 H2   HT     0.417000        1.0080           0
   17081 WT1  6270 TIP3 OH2  OT    -0.834000       15.9994           0
   17082 WT1  6270 TIP3 H1   HT     0.417000        1.0080           0
   17083 WT1  6270 TIP3 H2   HT     0.417000        1.0080           0
   17084 WT1  6271 TIP3 OH2  OT    -0.834000       15.9994           0
   17085 WT1  6271 TIP3 H1   HT     0.417000        1.0080           0
   17086 WT1  6271 TIP3 H2   HT     0.417000        1.0080           0
   17087 WT1  6272 TIP3 OH2  OT    -0.834000       15.9994           0
   17088 WT1  6272 TIP3 H1   HT     0.417000        1.0080           0
   17089 WT1  6272 TIP3 H2   HT     0.417000        1.0080           0
   17090 WT1  6273 TIP3 OH2  OT    -0.834000       15.9994           0
   17091 WT1  6273 TIP3 H1   HT     0.417000        1.0080           0
   17092 WT1  6273 TIP3 H2   HT     0.417000        1.0080           0
   17093 WT1  6274 TIP3 OH2  OT    -0.834000       15.9994           0
   17094 WT1  6274 TIP3 H1   HT     0.417000        1.0080           0
   17095 WT1  6274 TIP3 H2   HT     0.417000        1.0080           0
   17096 WT1  6275 TIP3 OH2  OT    -0.834000       15.9994           0
   17097 WT1  6275 TIP3 H1   HT     0.417000        1.0080           0
   17098 WT1  6275 TIP3 H2   HT     0.417000        1.0080           0
   17099 WT1  6278 TIP3 OH2  OT    -0.834000       15.9994           0
   17100 WT1  6278 TIP3 H1   HT     0.417000        1.0080           0
   17101 WT1  6278 TIP3 H2   HT     0.417000        1.0080           0
   17102 WT1  6279 TIP3 OH2  OT    -0.834000       15.9994           0
   17103 WT1  6279 TIP3 H1   HT     0.417000        1.0080           0
   17104 WT1  6279 TIP3 H2   HT     0.417000        1.0080           0
   17105 WT1  6280 TIP3 OH2  OT    -0.834000       15.9994           0
   17106 WT1  6280 TIP3 H1   HT     0.417000        1.0080           0
   17107 WT1  6280 TIP3 H2   HT     0.417000        1.0080           0
   17108 WT1  6281 TIP3 OH2  OT    -0.834000       15.9994           0
   17109 WT1  6281 TIP3 H1   HT     0.417000        1.0080           0
   17110 WT1  6281 TIP3 H2   HT     0.417000        1.0080           0
   17111 WT1  6282 TIP3 OH2  OT    -0.834000       15.9994           0
   17112 WT1  6282 TIP3 H1   HT     0.417000        1.0080           0
   17113 WT1  6282 TIP3 H2   HT     0.417000        1.0080           0
   17114 WT1  6283 TIP3 OH2  OT    -0.834000       15.9994           0
   17115 WT1  6283 TIP3 H1   HT     0.417000        1.0080           0
   17116 WT1  6283 TIP3 H2   HT     0.417000        1.0080           0
   17117 WT1  6284 TIP3 OH2  OT    -0.834000       15.9994           0
   17118 WT1  6284 TIP3 H1   HT     0.417000        1.0080           0
   17119 WT1  6284 TIP3 H2   HT     0.417000        1.0080           0
   17120 WT1  6286 TIP3 OH2  OT    -0.834000       15.9994           0
   17121 WT1  6286 TIP3 H1   HT     0.417000        1.0080           0
   17122 WT1  6286 TIP3 H2   HT     0.417000        1.0080           0
   17123 WT1  6287 TIP3 OH2  OT    -0.834000       15.9994           0
   17124 WT1  6287 TIP3 H1   HT     0.417000        1.0080           0
   17125 WT1  6287 TIP3 H2   HT     0.417000        1.0080           0
   17126 WT1  6289 TIP3 OH2  OT    -0.834000       15.9994           0
   17127 WT1  6289 TIP3 H1   HT     0.417000        1.0080           0
   17128 WT1  6289 TIP3 H2   HT     0.417000        1.0080           0
   17129 WT1  6290 TIP3 OH2  OT    -0.834000       15.9994           0
   17130 WT1  6290 TIP3 H1   HT     0.417000        1.0080           0
   17131 WT1  6290 TIP3 H2   HT     0.417000        1.0080           0
   17132 WT1  6291 TIP3 OH2  OT    -0.834000       15.9994           0
   17133 WT1  6291 TIP3 H1   HT     0.417000        1.0080           0
   17134 WT1  6291 TIP3 H2   HT     0.417000        1.0080           0
   17135 WT1  6292 TIP3 OH2  OT    -0.834000       15.9994           0
   17136 WT1  6292 TIP3 H1   HT     0.417000        1.0080           0
   17137 WT1  6292 TIP3 H2   HT     0.417000        1.0080           0
   17138 WT1  6293 TIP3 OH2  OT    -0.834000       15.9994           0
   17139 WT1  6293 TIP3 H1   HT     0.417000        1.0080           0
   17140 WT1  6293 TIP3 H2   HT     0.417000        1.0080           0
   17141 WT1  6294 TIP3 OH2  OT    -0.834000       15.9994           0
   17142 WT1  6294 TIP3 H1   HT     0.417000        1.0080           0
   17143 WT1  6294 TIP3 H2   HT     0.417000        1.0080           0
   17144 WT1  6295 TIP3 OH2  OT    -0.834000       15.9994           0
   17145 WT1  6295 TIP3 H1   HT     0.417000        1.0080           0
   17146 WT1  6295 TIP3 H2   HT     0.417000        1.0080           0
   17147 WT1  6297 TIP3 OH2  OT    -0.834000       15.9994           0
   17148 WT1  6297 TIP3 H1   HT     0.417000        1.0080           0
   17149 WT1  6297 TIP3 H2   HT     0.417000        1.0080           0
   17150 WT1  6298 TIP3 OH2  OT    -0.834000       15.9994           0
   17151 WT1  6298 TIP3 H1   HT     0.417000        1.0080           0
   17152 WT1  6298 TIP3 H2   HT     0.417000        1.0080           0
   17153 WT1  6299 TIP3 OH2  OT    -0.834000       15.9994           0
   17154 WT1  6299 TIP3 H1   HT     0.417000        1.0080           0
   17155 WT1  6299 TIP3 H2   HT     0.417000        1.0080           0
   17156 WT1  6300 TIP3 OH2  OT    -0.834000       15.9994           0
   17157 WT1  6300 TIP3 H1   HT     0.417000        1.0080           0
   17158 WT1  6300 TIP3 H2   HT     0.417000        1.0080           0
   17159 WT1  6301 TIP3 OH2  OT    -0.834000       15.9994           0
   17160 WT1  6301 TIP3 H1   HT     0.417000        1.0080           0
   17161 WT1  6301 TIP3 H2   HT     0.417000        1.0080           0
   17162 WT1  6302 TIP3 OH2  OT    -0.834000       15.9994           0
   17163 WT1  6302 TIP3 H1   HT     0.417000        1.0080           0
   17164 WT1  6302 TIP3 H2   HT     0.417000        1.0080           0
   17165 WT1  6303 TIP3 OH2  OT    -0.834000       15.9994           0
   17166 WT1  6303 TIP3 H1   HT     0.417000        1.0080           0
   17167 WT1  6303 TIP3 H2   HT     0.417000        1.0080           0
   17168 WT1  6304 TIP3 OH2  OT    -0.834000       15.9994           0
   17169 WT1  6304 TIP3 H1   HT     0.417000        1.0080           0
   17170 WT1  6304 TIP3 H2   HT     0.417000        1.0080           0
   17171 WT1  6305 TIP3 OH2  OT    -0.834000       15.9994           0
   17172 WT1  6305 TIP3 H1   HT     0.417000        1.0080           0
   17173 WT1  6305 TIP3 H2   HT     0.417000        1.0080           0
   17174 WT1  6306 TIP3 OH2  OT    -0.834000       15.9994           0
   17175 WT1  6306 TIP3 H1   HT     0.417000        1.0080           0
   17176 WT1  6306 TIP3 H2   HT     0.417000        1.0080           0
   17177 WT1  6307 TIP3 OH2  OT    -0.834000       15.9994           0
   17178 WT1  6307 TIP3 H1   HT     0.417000        1.0080           0
   17179 WT1  6307 TIP3 H2   HT     0.417000        1.0080           0
   17180 WT1  6308 TIP3 OH2  OT    -0.834000       15.9994           0
   17181 WT1  6308 TIP3 H1   HT     0.417000        1.0080           0
   17182 WT1  6308 TIP3 H2   HT     0.417000        1.0080           0
   17183 WT1  6309 TIP3 OH2  OT    -0.834000       15.9994           0
   17184 WT1  6309 TIP3 H1   HT     0.417000        1.0080           0
   17185 WT1  6309 TIP3 H2   HT     0.417000        1.0080           0
   17186 WT1  6310 TIP3 OH2  OT    -0.834000       15.9994           0
   17187 WT1  6310 TIP3 H1   HT     0.417000        1.0080           0
   17188 WT1  6310 TIP3 H2   HT     0.417000        1.0080           0
   17189 WT1  6311 TIP3 OH2  OT    -0.834000       15.9994           0
   17190 WT1  6311 TIP3 H1   HT     0.417000        1.0080           0
   17191 WT1  6311 TIP3 H2   HT     0.417000        1.0080           0
   17192 WT1  6312 TIP3 OH2  OT    -0.834000       15.9994           0
   17193 WT1  6312 TIP3 H1   HT     0.417000        1.0080           0
   17194 WT1  6312 TIP3 H2   HT     0.417000        1.0080           0
   17195 WT1  6315 TIP3 OH2  OT    -0.834000       15.9994           0
   17196 WT1  6315 TIP3 H1   HT     0.417000        1.0080           0
   17197 WT1  6315 TIP3 H2   HT     0.417000        1.0080           0
   17198 WT1  6316 TIP3 OH2  OT    -0.834000       15.9994           0
   17199 WT1  6316 TIP3 H1   HT     0.417000        1.0080           0
   17200 WT1  6316 TIP3 H2   HT     0.417000        1.0080           0
   17201 WT1  6317 TIP3 OH2  OT    -0.834000       15.9994           0
   17202 WT1  6317 TIP3 H1   HT     0.417000        1.0080           0
   17203 WT1  6317 TIP3 H2   HT     0.417000        1.0080           0
   17204 WT1  6318 TIP3 OH2  OT    -0.834000       15.9994           0
   17205 WT1  6318 TIP3 H1   HT     0.417000        1.0080           0
   17206 WT1  6318 TIP3 H2   HT     0.417000        1.0080           0
   17207 WT1  6319 TIP3 OH2  OT    -0.834000       15.9994           0
   17208 WT1  6319 TIP3 H1   HT     0.417000        1.0080           0
   17209 WT1  6319 TIP3 H2   HT     0.417000        1.0080           0
   17210 WT1  6321 TIP3 OH2  OT    -0.834000       15.9994           0
   17211 WT1  6321 TIP3 H1   HT     0.417000        1.0080           0
   17212 WT1  6321 TIP3 H2   HT     0.417000        1.0080           0
   17213 WT1  6323 TIP3 OH2  OT    -0.834000       15.9994           0
   17214 WT1  6323 TIP3 H1   HT     0.417000        1.0080           0
   17215 WT1  6323 TIP3 H2   HT     0.417000        1.0080           0
   17216 WT1  6324 TIP3 OH2  OT    -0.834000       15.9994           0
   17217 WT1  6324 TIP3 H1   HT     0.417000        1.0080           0
   17218 WT1  6324 TIP3 H2   HT     0.417000        1.0080           0
   17219 WT1  6325 TIP3 OH2  OT    -0.834000       15.9994           0
   17220 WT1  6325 TIP3 H1   HT     0.417000        1.0080           0
   17221 WT1  6325 TIP3 H2   HT     0.417000        1.0080           0
   17222 WT1  6326 TIP3 OH2  OT    -0.834000       15.9994           0
   17223 WT1  6326 TIP3 H1   HT     0.417000        1.0080           0
   17224 WT1  6326 TIP3 H2   HT     0.417000        1.0080           0
   17225 WT1  6327 TIP3 OH2  OT    -0.834000       15.9994           0
   17226 WT1  6327 TIP3 H1   HT     0.417000        1.0080           0
   17227 WT1  6327 TIP3 H2   HT     0.417000        1.0080           0
   17228 WT1  6328 TIP3 OH2  OT    -0.834000       15.9994           0
   17229 WT1  6328 TIP3 H1   HT     0.417000        1.0080           0
   17230 WT1  6328 TIP3 H2   HT     0.417000        1.0080           0
   17231 WT1  6329 TIP3 OH2  OT    -0.834000       15.9994           0
   17232 WT1  6329 TIP3 H1   HT     0.417000        1.0080           0
   17233 WT1  6329 TIP3 H2   HT     0.417000        1.0080           0
   17234 WT1  6330 TIP3 OH2  OT    -0.834000       15.9994           0
   17235 WT1  6330 TIP3 H1   HT     0.417000        1.0080           0
   17236 WT1  6330 TIP3 H2   HT     0.417000        1.0080           0
   17237 WT1  6331 TIP3 OH2  OT    -0.834000       15.9994           0
   17238 WT1  6331 TIP3 H1   HT     0.417000        1.0080           0
   17239 WT1  6331 TIP3 H2   HT     0.417000        1.0080           0
   17240 WT1  6332 TIP3 OH2  OT    -0.834000       15.9994           0
   17241 WT1  6332 TIP3 H1   HT     0.417000        1.0080           0
   17242 WT1  6332 TIP3 H2   HT     0.417000        1.0080           0
   17243 WT1  6333 TIP3 OH2  OT    -0.834000       15.9994           0
   17244 WT1  6333 TIP3 H1   HT     0.417000        1.0080           0
   17245 WT1  6333 TIP3 H2   HT     0.417000        1.0080           0
   17246 WT1  6334 TIP3 OH2  OT    -0.834000       15.9994           0
   17247 WT1  6334 TIP3 H1   HT     0.417000        1.0080           0
   17248 WT1  6334 TIP3 H2   HT     0.417000        1.0080           0
   17249 WT1  6336 TIP3 OH2  OT    -0.834000       15.9994           0
   17250 WT1  6336 TIP3 H1   HT     0.417000        1.0080           0
   17251 WT1  6336 TIP3 H2   HT     0.417000        1.0080           0
   17252 WT1  6337 TIP3 OH2  OT    -0.834000       15.9994           0
   17253 WT1  6337 TIP3 H1   HT     0.417000        1.0080           0
   17254 WT1  6337 TIP3 H2   HT     0.417000        1.0080           0
   17255 WT1  6338 TIP3 OH2  OT    -0.834000       15.9994           0
   17256 WT1  6338 TIP3 H1   HT     0.417000        1.0080           0
   17257 WT1  6338 TIP3 H2   HT     0.417000        1.0080           0
   17258 WT1  6339 TIP3 OH2  OT    -0.834000       15.9994           0
   17259 WT1  6339 TIP3 H1   HT     0.417000        1.0080           0
   17260 WT1  6339 TIP3 H2   HT     0.417000        1.0080           0
   17261 WT1  6340 TIP3 OH2  OT    -0.834000       15.9994           0
   17262 WT1  6340 TIP3 H1   HT     0.417000        1.0080           0
   17263 WT1  6340 TIP3 H2   HT     0.417000        1.0080           0
   17264 WT1  6341 TIP3 OH2  OT    -0.834000       15.9994           0
   17265 WT1  6341 TIP3 H1   HT     0.417000        1.0080           0
   17266 WT1  6341 TIP3 H2   HT     0.417000        1.0080           0
   17267 WT1  6342 TIP3 OH2  OT    -0.834000       15.9994           0
   17268 WT1  6342 TIP3 H1   HT     0.417000        1.0080           0
   17269 WT1  6342 TIP3 H2   HT     0.417000        1.0080           0
   17270 WT1  6343 TIP3 OH2  OT    -0.834000       15.9994           0
   17271 WT1  6343 TIP3 H1   HT     0.417000        1.0080           0
   17272 WT1  6343 TIP3 H2   HT     0.417000        1.0080           0
   17273 WT1  6344 TIP3 OH2  OT    -0.834000       15.9994           0
   17274 WT1  6344 TIP3 H1   HT     0.417000        1.0080           0
   17275 WT1  6344 TIP3 H2   HT     0.417000        1.0080           0
   17276 WT1  6345 TIP3 OH2  OT    -0.834000       15.9994           0
   17277 WT1  6345 TIP3 H1   HT     0.417000        1.0080           0
   17278 WT1  6345 TIP3 H2   HT     0.417000        1.0080           0
   17279 WT1  6346 TIP3 OH2  OT    -0.834000       15.9994           0
   17280 WT1  6346 TIP3 H1   HT     0.417000        1.0080           0
   17281 WT1  6346 TIP3 H2   HT     0.417000        1.0080           0
   17282 WT1  6347 TIP3 OH2  OT    -0.834000       15.9994           0
   17283 WT1  6347 TIP3 H1   HT     0.417000        1.0080           0
   17284 WT1  6347 TIP3 H2   HT     0.417000        1.0080           0
   17285 WT1  6348 TIP3 OH2  OT    -0.834000       15.9994           0
   17286 WT1  6348 TIP3 H1   HT     0.417000        1.0080           0
   17287 WT1  6348 TIP3 H2   HT     0.417000        1.0080           0
   17288 WT1  6349 TIP3 OH2  OT    -0.834000       15.9994           0
   17289 WT1  6349 TIP3 H1   HT     0.417000        1.0080           0
   17290 WT1  6349 TIP3 H2   HT     0.417000        1.0080           0
   17291 WT1  6351 TIP3 OH2  OT    -0.834000       15.9994           0
   17292 WT1  6351 TIP3 H1   HT     0.417000        1.0080           0
   17293 WT1  6351 TIP3 H2   HT     0.417000        1.0080           0
   17294 WT1  6353 TIP3 OH2  OT    -0.834000       15.9994           0
   17295 WT1  6353 TIP3 H1   HT     0.417000        1.0080           0
   17296 WT1  6353 TIP3 H2   HT     0.417000        1.0080           0
   17297 WT1  6354 TIP3 OH2  OT    -0.834000       15.9994           0
   17298 WT1  6354 TIP3 H1   HT     0.417000        1.0080           0
   17299 WT1  6354 TIP3 H2   HT     0.417000        1.0080           0
   17300 WT1  6356 TIP3 OH2  OT    -0.834000       15.9994           0
   17301 WT1  6356 TIP3 H1   HT     0.417000        1.0080           0
   17302 WT1  6356 TIP3 H2   HT     0.417000        1.0080           0
   17303 WT1  6357 TIP3 OH2  OT    -0.834000       15.9994           0
   17304 WT1  6357 TIP3 H1   HT     0.417000        1.0080           0
   17305 WT1  6357 TIP3 H2   HT     0.417000        1.0080           0
   17306 WT1  6358 TIP3 OH2  OT    -0.834000       15.9994           0
   17307 WT1  6358 TIP3 H1   HT     0.417000        1.0080           0
   17308 WT1  6358 TIP3 H2   HT     0.417000        1.0080           0
   17309 WT1  6359 TIP3 OH2  OT    -0.834000       15.9994           0
   17310 WT1  6359 TIP3 H1   HT     0.417000        1.0080           0
   17311 WT1  6359 TIP3 H2   HT     0.417000        1.0080           0
   17312 WT1  6360 TIP3 OH2  OT    -0.834000       15.9994           0
   17313 WT1  6360 TIP3 H1   HT     0.417000        1.0080           0
   17314 WT1  6360 TIP3 H2   HT     0.417000        1.0080           0
   17315 WT1  6362 TIP3 OH2  OT    -0.834000       15.9994           0
   17316 WT1  6362 TIP3 H1   HT     0.417000        1.0080           0
   17317 WT1  6362 TIP3 H2   HT     0.417000        1.0080           0
   17318 WT1  6363 TIP3 OH2  OT    -0.834000       15.9994           0
   17319 WT1  6363 TIP3 H1   HT     0.417000        1.0080           0
   17320 WT1  6363 TIP3 H2   HT     0.417000        1.0080           0
   17321 WT1  6364 TIP3 OH2  OT    -0.834000       15.9994           0
   17322 WT1  6364 TIP3 H1   HT     0.417000        1.0080           0
   17323 WT1  6364 TIP3 H2   HT     0.417000        1.0080           0
   17324 WT1  6365 TIP3 OH2  OT    -0.834000       15.9994           0
   17325 WT1  6365 TIP3 H1   HT     0.417000        1.0080           0
   17326 WT1  6365 TIP3 H2   HT     0.417000        1.0080           0
   17327 WT1  6367 TIP3 OH2  OT    -0.834000       15.9994           0
   17328 WT1  6367 TIP3 H1   HT     0.417000        1.0080           0
   17329 WT1  6367 TIP3 H2   HT     0.417000        1.0080           0
   17330 WT1  6368 TIP3 OH2  OT    -0.834000       15.9994           0
   17331 WT1  6368 TIP3 H1   HT     0.417000        1.0080           0
   17332 WT1  6368 TIP3 H2   HT     0.417000        1.0080           0
   17333 WT1  6370 TIP3 OH2  OT    -0.834000       15.9994           0
   17334 WT1  6370 TIP3 H1   HT     0.417000        1.0080           0
   17335 WT1  6370 TIP3 H2   HT     0.417000        1.0080           0
   17336 WT1  6371 TIP3 OH2  OT    -0.834000       15.9994           0
   17337 WT1  6371 TIP3 H1   HT     0.417000        1.0080           0
   17338 WT1  6371 TIP3 H2   HT     0.417000        1.0080           0
   17339 WT1  6372 TIP3 OH2  OT    -0.834000       15.9994           0
   17340 WT1  6372 TIP3 H1   HT     0.417000        1.0080           0
   17341 WT1  6372 TIP3 H2   HT     0.417000        1.0080           0
   17342 WT1  6376 TIP3 OH2  OT    -0.834000       15.9994           0
   17343 WT1  6376 TIP3 H1   HT     0.417000        1.0080           0
   17344 WT1  6376 TIP3 H2   HT     0.417000        1.0080           0
   17345 WT1  6377 TIP3 OH2  OT    -0.834000       15.9994           0
   17346 WT1  6377 TIP3 H1   HT     0.417000        1.0080           0
   17347 WT1  6377 TIP3 H2   HT     0.417000        1.0080           0
   17348 WT1  6379 TIP3 OH2  OT    -0.834000       15.9994           0
   17349 WT1  6379 TIP3 H1   HT     0.417000        1.0080           0
   17350 WT1  6379 TIP3 H2   HT     0.417000        1.0080           0
   17351 WT1  6380 TIP3 OH2  OT    -0.834000       15.9994           0
   17352 WT1  6380 TIP3 H1   HT     0.417000        1.0080           0
   17353 WT1  6380 TIP3 H2   HT     0.417000        1.0080           0
   17354 WT1  6381 TIP3 OH2  OT    -0.834000       15.9994           0
   17355 WT1  6381 TIP3 H1   HT     0.417000        1.0080           0
   17356 WT1  6381 TIP3 H2   HT     0.417000        1.0080           0
   17357 WT1  6382 TIP3 OH2  OT    -0.834000       15.9994           0
   17358 WT1  6382 TIP3 H1   HT     0.417000        1.0080           0
   17359 WT1  6382 TIP3 H2   HT     0.417000        1.0080           0
   17360 WT1  6383 TIP3 OH2  OT    -0.834000       15.9994           0
   17361 WT1  6383 TIP3 H1   HT     0.417000        1.0080           0
   17362 WT1  6383 TIP3 H2   HT     0.417000        1.0080           0
   17363 WT1  6384 TIP3 OH2  OT    -0.834000       15.9994           0
   17364 WT1  6384 TIP3 H1   HT     0.417000        1.0080           0
   17365 WT1  6384 TIP3 H2   HT     0.417000        1.0080           0
   17366 WT1  6385 TIP3 OH2  OT    -0.834000       15.9994           0
   17367 WT1  6385 TIP3 H1   HT     0.417000        1.0080           0
   17368 WT1  6385 TIP3 H2   HT     0.417000        1.0080           0
   17369 WT1  6386 TIP3 OH2  OT    -0.834000       15.9994           0
   17370 WT1  6386 TIP3 H1   HT     0.417000        1.0080           0
   17371 WT1  6386 TIP3 H2   HT     0.417000        1.0080           0
   17372 WT1  6387 TIP3 OH2  OT    -0.834000       15.9994           0
   17373 WT1  6387 TIP3 H1   HT     0.417000        1.0080           0
   17374 WT1  6387 TIP3 H2   HT     0.417000        1.0080           0
   17375 WT1  6388 TIP3 OH2  OT    -0.834000       15.9994           0
   17376 WT1  6388 TIP3 H1   HT     0.417000        1.0080           0
   17377 WT1  6388 TIP3 H2   HT     0.417000        1.0080           0
   17378 WT1  6390 TIP3 OH2  OT    -0.834000       15.9994           0
   17379 WT1  6390 TIP3 H1   HT     0.417000        1.0080           0
   17380 WT1  6390 TIP3 H2   HT     0.417000        1.0080           0
   17381 WT1  6391 TIP3 OH2  OT    -0.834000       15.9994           0
   17382 WT1  6391 TIP3 H1   HT     0.417000        1.0080           0
   17383 WT1  6391 TIP3 H2   HT     0.417000        1.0080           0
   17384 WT1  6392 TIP3 OH2  OT    -0.834000       15.9994           0
   17385 WT1  6392 TIP3 H1   HT     0.417000        1.0080           0
   17386 WT1  6392 TIP3 H2   HT     0.417000        1.0080           0
   17387 WT1  6393 TIP3 OH2  OT    -0.834000       15.9994           0
   17388 WT1  6393 TIP3 H1   HT     0.417000        1.0080           0
   17389 WT1  6393 TIP3 H2   HT     0.417000        1.0080           0
   17390 WT1  6394 TIP3 OH2  OT    -0.834000       15.9994           0
   17391 WT1  6394 TIP3 H1   HT     0.417000        1.0080           0
   17392 WT1  6394 TIP3 H2   HT     0.417000        1.0080           0
   17393 WT1  6395 TIP3 OH2  OT    -0.834000       15.9994           0
   17394 WT1  6395 TIP3 H1   HT     0.417000        1.0080           0
   17395 WT1  6395 TIP3 H2   HT     0.417000        1.0080           0
   17396 WT1  6397 TIP3 OH2  OT    -0.834000       15.9994           0
   17397 WT1  6397 TIP3 H1   HT     0.417000        1.0080           0
   17398 WT1  6397 TIP3 H2   HT     0.417000        1.0080           0
   17399 WT1  6399 TIP3 OH2  OT    -0.834000       15.9994           0
   17400 WT1  6399 TIP3 H1   HT     0.417000        1.0080           0
   17401 WT1  6399 TIP3 H2   HT     0.417000        1.0080           0
   17402 WT1  6400 TIP3 OH2  OT    -0.834000       15.9994           0
   17403 WT1  6400 TIP3 H1   HT     0.417000        1.0080           0
   17404 WT1  6400 TIP3 H2   HT     0.417000        1.0080           0
   17405 WT1  6402 TIP3 OH2  OT    -0.834000       15.9994           0
   17406 WT1  6402 TIP3 H1   HT     0.417000        1.0080           0
   17407 WT1  6402 TIP3 H2   HT     0.417000        1.0080           0
   17408 WT1  6403 TIP3 OH2  OT    -0.834000       15.9994           0
   17409 WT1  6403 TIP3 H1   HT     0.417000        1.0080           0
   17410 WT1  6403 TIP3 H2   HT     0.417000        1.0080           0
   17411 WT1  6405 TIP3 OH2  OT    -0.834000       15.9994           0
   17412 WT1  6405 TIP3 H1   HT     0.417000        1.0080           0
   17413 WT1  6405 TIP3 H2   HT     0.417000        1.0080           0
   17414 WT1  6407 TIP3 OH2  OT    -0.834000       15.9994           0
   17415 WT1  6407 TIP3 H1   HT     0.417000        1.0080           0
   17416 WT1  6407 TIP3 H2   HT     0.417000        1.0080           0
   17417 WT1  6408 TIP3 OH2  OT    -0.834000       15.9994           0
   17418 WT1  6408 TIP3 H1   HT     0.417000        1.0080           0
   17419 WT1  6408 TIP3 H2   HT     0.417000        1.0080           0
   17420 WT1  6409 TIP3 OH2  OT    -0.834000       15.9994           0
   17421 WT1  6409 TIP3 H1   HT     0.417000        1.0080           0
   17422 WT1  6409 TIP3 H2   HT     0.417000        1.0080           0
   17423 WT1  6410 TIP3 OH2  OT    -0.834000       15.9994           0
   17424 WT1  6410 TIP3 H1   HT     0.417000        1.0080           0
   17425 WT1  6410 TIP3 H2   HT     0.417000        1.0080           0
   17426 WT1  6411 TIP3 OH2  OT    -0.834000       15.9994           0
   17427 WT1  6411 TIP3 H1   HT     0.417000        1.0080           0
   17428 WT1  6411 TIP3 H2   HT     0.417000        1.0080           0
   17429 WT1  6413 TIP3 OH2  OT    -0.834000       15.9994           0
   17430 WT1  6413 TIP3 H1   HT     0.417000        1.0080           0
   17431 WT1  6413 TIP3 H2   HT     0.417000        1.0080           0
   17432 WT1  6414 TIP3 OH2  OT    -0.834000       15.9994           0
   17433 WT1  6414 TIP3 H1   HT     0.417000        1.0080           0
   17434 WT1  6414 TIP3 H2   HT     0.417000        1.0080           0
   17435 WT1  6415 TIP3 OH2  OT    -0.834000       15.9994           0
   17436 WT1  6415 TIP3 H1   HT     0.417000        1.0080           0
   17437 WT1  6415 TIP3 H2   HT     0.417000        1.0080           0
   17438 WT1  6416 TIP3 OH2  OT    -0.834000       15.9994           0
   17439 WT1  6416 TIP3 H1   HT     0.417000        1.0080           0
   17440 WT1  6416 TIP3 H2   HT     0.417000        1.0080           0
   17441 WT1  6417 TIP3 OH2  OT    -0.834000       15.9994           0
   17442 WT1  6417 TIP3 H1   HT     0.417000        1.0080           0
   17443 WT1  6417 TIP3 H2   HT     0.417000        1.0080           0
   17444 WT1  6418 TIP3 OH2  OT    -0.834000       15.9994           0
   17445 WT1  6418 TIP3 H1   HT     0.417000        1.0080           0
   17446 WT1  6418 TIP3 H2   HT     0.417000        1.0080           0
   17447 WT1  6419 TIP3 OH2  OT    -0.834000       15.9994           0
   17448 WT1  6419 TIP3 H1   HT     0.417000        1.0080           0
   17449 WT1  6419 TIP3 H2   HT     0.417000        1.0080           0
   17450 WT1  6420 TIP3 OH2  OT    -0.834000       15.9994           0
   17451 WT1  6420 TIP3 H1   HT     0.417000        1.0080           0
   17452 WT1  6420 TIP3 H2   HT     0.417000        1.0080           0
   17453 WT1  6421 TIP3 OH2  OT    -0.834000       15.9994           0
   17454 WT1  6421 TIP3 H1   HT     0.417000        1.0080           0
   17455 WT1  6421 TIP3 H2   HT     0.417000        1.0080           0
   17456 WT1  6422 TIP3 OH2  OT    -0.834000       15.9994           0
   17457 WT1  6422 TIP3 H1   HT     0.417000        1.0080           0
   17458 WT1  6422 TIP3 H2   HT     0.417000        1.0080           0
   17459 WT1  6424 TIP3 OH2  OT    -0.834000       15.9994           0
   17460 WT1  6424 TIP3 H1   HT     0.417000        1.0080           0
   17461 WT1  6424 TIP3 H2   HT     0.417000        1.0080           0
   17462 WT1  6425 TIP3 OH2  OT    -0.834000       15.9994           0
   17463 WT1  6425 TIP3 H1   HT     0.417000        1.0080           0
   17464 WT1  6425 TIP3 H2   HT     0.417000        1.0080           0
   17465 WT1  6427 TIP3 OH2  OT    -0.834000       15.9994           0
   17466 WT1  6427 TIP3 H1   HT     0.417000        1.0080           0
   17467 WT1  6427 TIP3 H2   HT     0.417000        1.0080           0
   17468 WT1  6428 TIP3 OH2  OT    -0.834000       15.9994           0
   17469 WT1  6428 TIP3 H1   HT     0.417000        1.0080           0
   17470 WT1  6428 TIP3 H2   HT     0.417000        1.0080           0
   17471 WT1  6429 TIP3 OH2  OT    -0.834000       15.9994           0
   17472 WT1  6429 TIP3 H1   HT     0.417000        1.0080           0
   17473 WT1  6429 TIP3 H2   HT     0.417000        1.0080           0
   17474 WT1  6430 TIP3 OH2  OT    -0.834000       15.9994           0
   17475 WT1  6430 TIP3 H1   HT     0.417000        1.0080           0
   17476 WT1  6430 TIP3 H2   HT     0.417000        1.0080           0
   17477 WT1  6431 TIP3 OH2  OT    -0.834000       15.9994           0
   17478 WT1  6431 TIP3 H1   HT     0.417000        1.0080           0
   17479 WT1  6431 TIP3 H2   HT     0.417000        1.0080           0
   17480 WT1  6432 TIP3 OH2  OT    -0.834000       15.9994           0
   17481 WT1  6432 TIP3 H1   HT     0.417000        1.0080           0
   17482 WT1  6432 TIP3 H2   HT     0.417000        1.0080           0
   17483 WT1  6433 TIP3 OH2  OT    -0.834000       15.9994           0
   17484 WT1  6433 TIP3 H1   HT     0.417000        1.0080           0
   17485 WT1  6433 TIP3 H2   HT     0.417000        1.0080           0
   17486 WT1  6434 TIP3 OH2  OT    -0.834000       15.9994           0
   17487 WT1  6434 TIP3 H1   HT     0.417000        1.0080           0
   17488 WT1  6434 TIP3 H2   HT     0.417000        1.0080           0
   17489 WT1  6435 TIP3 OH2  OT    -0.834000       15.9994           0
   17490 WT1  6435 TIP3 H1   HT     0.417000        1.0080           0
   17491 WT1  6435 TIP3 H2   HT     0.417000        1.0080           0
   17492 WT1  6436 TIP3 OH2  OT    -0.834000       15.9994           0
   17493 WT1  6436 TIP3 H1   HT     0.417000        1.0080           0
   17494 WT1  6436 TIP3 H2   HT     0.417000        1.0080           0
   17495 WT1  6437 TIP3 OH2  OT    -0.834000       15.9994           0
   17496 WT1  6437 TIP3 H1   HT     0.417000        1.0080           0
   17497 WT1  6437 TIP3 H2   HT     0.417000        1.0080           0
   17498 WT1  6438 TIP3 OH2  OT    -0.834000       15.9994           0
   17499 WT1  6438 TIP3 H1   HT     0.417000        1.0080           0
   17500 WT1  6438 TIP3 H2   HT     0.417000        1.0080           0
   17501 WT1  6442 TIP3 OH2  OT    -0.834000       15.9994           0
   17502 WT1  6442 TIP3 H1   HT     0.417000        1.0080           0
   17503 WT1  6442 TIP3 H2   HT     0.417000        1.0080           0
   17504 WT1  6443 TIP3 OH2  OT    -0.834000       15.9994           0
   17505 WT1  6443 TIP3 H1   HT     0.417000        1.0080           0
   17506 WT1  6443 TIP3 H2   HT     0.417000        1.0080           0
   17507 WT1  6444 TIP3 OH2  OT    -0.834000       15.9994           0
   17508 WT1  6444 TIP3 H1   HT     0.417000        1.0080           0
   17509 WT1  6444 TIP3 H2   HT     0.417000        1.0080           0
   17510 WT1  6446 TIP3 OH2  OT    -0.834000       15.9994           0
   17511 WT1  6446 TIP3 H1   HT     0.417000        1.0080           0
   17512 WT1  6446 TIP3 H2   HT     0.417000        1.0080           0
   17513 WT1  6447 TIP3 OH2  OT    -0.834000       15.9994           0
   17514 WT1  6447 TIP3 H1   HT     0.417000        1.0080           0
   17515 WT1  6447 TIP3 H2   HT     0.417000        1.0080           0
   17516 WT1  6448 TIP3 OH2  OT    -0.834000       15.9994           0
   17517 WT1  6448 TIP3 H1   HT     0.417000        1.0080           0
   17518 WT1  6448 TIP3 H2   HT     0.417000        1.0080           0
   17519 WT1  6449 TIP3 OH2  OT    -0.834000       15.9994           0
   17520 WT1  6449 TIP3 H1   HT     0.417000        1.0080           0
   17521 WT1  6449 TIP3 H2   HT     0.417000        1.0080           0
   17522 WT1  6450 TIP3 OH2  OT    -0.834000       15.9994           0
   17523 WT1  6450 TIP3 H1   HT     0.417000        1.0080           0
   17524 WT1  6450 TIP3 H2   HT     0.417000        1.0080           0
   17525 WT1  6451 TIP3 OH2  OT    -0.834000       15.9994           0
   17526 WT1  6451 TIP3 H1   HT     0.417000        1.0080           0
   17527 WT1  6451 TIP3 H2   HT     0.417000        1.0080           0
   17528 WT1  6453 TIP3 OH2  OT    -0.834000       15.9994           0
   17529 WT1  6453 TIP3 H1   HT     0.417000        1.0080           0
   17530 WT1  6453 TIP3 H2   HT     0.417000        1.0080           0
   17531 WT1  6454 TIP3 OH2  OT    -0.834000       15.9994           0
   17532 WT1  6454 TIP3 H1   HT     0.417000        1.0080           0
   17533 WT1  6454 TIP3 H2   HT     0.417000        1.0080           0
   17534 WT1  6455 TIP3 OH2  OT    -0.834000       15.9994           0
   17535 WT1  6455 TIP3 H1   HT     0.417000        1.0080           0
   17536 WT1  6455 TIP3 H2   HT     0.417000        1.0080           0
   17537 WT1  6457 TIP3 OH2  OT    -0.834000       15.9994           0
   17538 WT1  6457 TIP3 H1   HT     0.417000        1.0080           0
   17539 WT1  6457 TIP3 H2   HT     0.417000        1.0080           0
   17540 WT1  6458 TIP3 OH2  OT    -0.834000       15.9994           0
   17541 WT1  6458 TIP3 H1   HT     0.417000        1.0080           0
   17542 WT1  6458 TIP3 H2   HT     0.417000        1.0080           0
   17543 WT1  6460 TIP3 OH2  OT    -0.834000       15.9994           0
   17544 WT1  6460 TIP3 H1   HT     0.417000        1.0080           0
   17545 WT1  6460 TIP3 H2   HT     0.417000        1.0080           0
   17546 WT1  6462 TIP3 OH2  OT    -0.834000       15.9994           0
   17547 WT1  6462 TIP3 H1   HT     0.417000        1.0080           0
   17548 WT1  6462 TIP3 H2   HT     0.417000        1.0080           0
   17549 WT1  6463 TIP3 OH2  OT    -0.834000       15.9994           0
   17550 WT1  6463 TIP3 H1   HT     0.417000        1.0080           0
   17551 WT1  6463 TIP3 H2   HT     0.417000        1.0080           0
   17552 WT1  6464 TIP3 OH2  OT    -0.834000       15.9994           0
   17553 WT1  6464 TIP3 H1   HT     0.417000        1.0080           0
   17554 WT1  6464 TIP3 H2   HT     0.417000        1.0080           0
   17555 WT1  6465 TIP3 OH2  OT    -0.834000       15.9994           0
   17556 WT1  6465 TIP3 H1   HT     0.417000        1.0080           0
   17557 WT1  6465 TIP3 H2   HT     0.417000        1.0080           0
   17558 WT1  6466 TIP3 OH2  OT    -0.834000       15.9994           0
   17559 WT1  6466 TIP3 H1   HT     0.417000        1.0080           0
   17560 WT1  6466 TIP3 H2   HT     0.417000        1.0080           0
   17561 WT1  6467 TIP3 OH2  OT    -0.834000       15.9994           0
   17562 WT1  6467 TIP3 H1   HT     0.417000        1.0080           0
   17563 WT1  6467 TIP3 H2   HT     0.417000        1.0080           0
   17564 WT1  6469 TIP3 OH2  OT    -0.834000       15.9994           0
   17565 WT1  6469 TIP3 H1   HT     0.417000        1.0080           0
   17566 WT1  6469 TIP3 H2   HT     0.417000        1.0080           0
   17567 WT1  6470 TIP3 OH2  OT    -0.834000       15.9994           0
   17568 WT1  6470 TIP3 H1   HT     0.417000        1.0080           0
   17569 WT1  6470 TIP3 H2   HT     0.417000        1.0080           0
   17570 WT1  6471 TIP3 OH2  OT    -0.834000       15.9994           0
   17571 WT1  6471 TIP3 H1   HT     0.417000        1.0080           0
   17572 WT1  6471 TIP3 H2   HT     0.417000        1.0080           0
   17573 WT1  6472 TIP3 OH2  OT    -0.834000       15.9994           0
   17574 WT1  6472 TIP3 H1   HT     0.417000        1.0080           0
   17575 WT1  6472 TIP3 H2   HT     0.417000        1.0080           0
   17576 WT1  6474 TIP3 OH2  OT    -0.834000       15.9994           0
   17577 WT1  6474 TIP3 H1   HT     0.417000        1.0080           0
   17578 WT1  6474 TIP3 H2   HT     0.417000        1.0080           0
   17579 WT1  6475 TIP3 OH2  OT    -0.834000       15.9994           0
   17580 WT1  6475 TIP3 H1   HT     0.417000        1.0080           0
   17581 WT1  6475 TIP3 H2   HT     0.417000        1.0080           0
   17582 WT1  6476 TIP3 OH2  OT    -0.834000       15.9994           0
   17583 WT1  6476 TIP3 H1   HT     0.417000        1.0080           0
   17584 WT1  6476 TIP3 H2   HT     0.417000        1.0080           0
   17585 WT1  6477 TIP3 OH2  OT    -0.834000       15.9994           0
   17586 WT1  6477 TIP3 H1   HT     0.417000        1.0080           0
   17587 WT1  6477 TIP3 H2   HT     0.417000        1.0080           0
   17588 WT1  6478 TIP3 OH2  OT    -0.834000       15.9994           0
   17589 WT1  6478 TIP3 H1   HT     0.417000        1.0080           0
   17590 WT1  6478 TIP3 H2   HT     0.417000        1.0080           0
   17591 WT1  6479 TIP3 OH2  OT    -0.834000       15.9994           0
   17592 WT1  6479 TIP3 H1   HT     0.417000        1.0080           0
   17593 WT1  6479 TIP3 H2   HT     0.417000        1.0080           0
   17594 WT1  6480 TIP3 OH2  OT    -0.834000       15.9994           0
   17595 WT1  6480 TIP3 H1   HT     0.417000        1.0080           0
   17596 WT1  6480 TIP3 H2   HT     0.417000        1.0080           0
   17597 WT1  6482 TIP3 OH2  OT    -0.834000       15.9994           0
   17598 WT1  6482 TIP3 H1   HT     0.417000        1.0080           0
   17599 WT1  6482 TIP3 H2   HT     0.417000        1.0080           0
   17600 WT1  6486 TIP3 OH2  OT    -0.834000       15.9994           0
   17601 WT1  6486 TIP3 H1   HT     0.417000        1.0080           0
   17602 WT1  6486 TIP3 H2   HT     0.417000        1.0080           0
   17603 WT1  6487 TIP3 OH2  OT    -0.834000       15.9994           0
   17604 WT1  6487 TIP3 H1   HT     0.417000        1.0080           0
   17605 WT1  6487 TIP3 H2   HT     0.417000        1.0080           0
   17606 WT1  6488 TIP3 OH2  OT    -0.834000       15.9994           0
   17607 WT1  6488 TIP3 H1   HT     0.417000        1.0080           0
   17608 WT1  6488 TIP3 H2   HT     0.417000        1.0080           0
   17609 WT1  6489 TIP3 OH2  OT    -0.834000       15.9994           0
   17610 WT1  6489 TIP3 H1   HT     0.417000        1.0080           0
   17611 WT1  6489 TIP3 H2   HT     0.417000        1.0080           0
   17612 WT1  6491 TIP3 OH2  OT    -0.834000       15.9994           0
   17613 WT1  6491 TIP3 H1   HT     0.417000        1.0080           0
   17614 WT1  6491 TIP3 H2   HT     0.417000        1.0080           0
   17615 WT1  6493 TIP3 OH2  OT    -0.834000       15.9994           0
   17616 WT1  6493 TIP3 H1   HT     0.417000        1.0080           0
   17617 WT1  6493 TIP3 H2   HT     0.417000        1.0080           0
   17618 WT1  6494 TIP3 OH2  OT    -0.834000       15.9994           0
   17619 WT1  6494 TIP3 H1   HT     0.417000        1.0080           0
   17620 WT1  6494 TIP3 H2   HT     0.417000        1.0080           0
   17621 WT1  6495 TIP3 OH2  OT    -0.834000       15.9994           0
   17622 WT1  6495 TIP3 H1   HT     0.417000        1.0080           0
   17623 WT1  6495 TIP3 H2   HT     0.417000        1.0080           0
   17624 WT1  6496 TIP3 OH2  OT    -0.834000       15.9994           0
   17625 WT1  6496 TIP3 H1   HT     0.417000        1.0080           0
   17626 WT1  6496 TIP3 H2   HT     0.417000        1.0080           0
   17627 WT1  6497 TIP3 OH2  OT    -0.834000       15.9994           0
   17628 WT1  6497 TIP3 H1   HT     0.417000        1.0080           0
   17629 WT1  6497 TIP3 H2   HT     0.417000        1.0080           0
   17630 WT1  6498 TIP3 OH2  OT    -0.834000       15.9994           0
   17631 WT1  6498 TIP3 H1   HT     0.417000        1.0080           0
   17632 WT1  6498 TIP3 H2   HT     0.417000        1.0080           0
   17633 WT1  6500 TIP3 OH2  OT    -0.834000       15.9994           0
   17634 WT1  6500 TIP3 H1   HT     0.417000        1.0080           0
   17635 WT1  6500 TIP3 H2   HT     0.417000        1.0080           0
   17636 WT1  6501 TIP3 OH2  OT    -0.834000       15.9994           0
   17637 WT1  6501 TIP3 H1   HT     0.417000        1.0080           0
   17638 WT1  6501 TIP3 H2   HT     0.417000        1.0080           0
   17639 WT1  6502 TIP3 OH2  OT    -0.834000       15.9994           0
   17640 WT1  6502 TIP3 H1   HT     0.417000        1.0080           0
   17641 WT1  6502 TIP3 H2   HT     0.417000        1.0080           0
   17642 WT1  6503 TIP3 OH2  OT    -0.834000       15.9994           0
   17643 WT1  6503 TIP3 H1   HT     0.417000        1.0080           0
   17644 WT1  6503 TIP3 H2   HT     0.417000        1.0080           0
   17645 WT1  6504 TIP3 OH2  OT    -0.834000       15.9994           0
   17646 WT1  6504 TIP3 H1   HT     0.417000        1.0080           0
   17647 WT1  6504 TIP3 H2   HT     0.417000        1.0080           0
   17648 WT1  6506 TIP3 OH2  OT    -0.834000       15.9994           0
   17649 WT1  6506 TIP3 H1   HT     0.417000        1.0080           0
   17650 WT1  6506 TIP3 H2   HT     0.417000        1.0080           0
   17651 WT1  6507 TIP3 OH2  OT    -0.834000       15.9994           0
   17652 WT1  6507 TIP3 H1   HT     0.417000        1.0080           0
   17653 WT1  6507 TIP3 H2   HT     0.417000        1.0080           0
   17654 WT1  6508 TIP3 OH2  OT    -0.834000       15.9994           0
   17655 WT1  6508 TIP3 H1   HT     0.417000        1.0080           0
   17656 WT1  6508 TIP3 H2   HT     0.417000        1.0080           0
   17657 WT1  6510 TIP3 OH2  OT    -0.834000       15.9994           0
   17658 WT1  6510 TIP3 H1   HT     0.417000        1.0080           0
   17659 WT1  6510 TIP3 H2   HT     0.417000        1.0080           0
   17660 WT1  6511 TIP3 OH2  OT    -0.834000       15.9994           0
   17661 WT1  6511 TIP3 H1   HT     0.417000        1.0080           0
   17662 WT1  6511 TIP3 H2   HT     0.417000        1.0080           0
   17663 WT1  6513 TIP3 OH2  OT    -0.834000       15.9994           0
   17664 WT1  6513 TIP3 H1   HT     0.417000        1.0080           0
   17665 WT1  6513 TIP3 H2   HT     0.417000        1.0080           0
   17666 WT1  6514 TIP3 OH2  OT    -0.834000       15.9994           0
   17667 WT1  6514 TIP3 H1   HT     0.417000        1.0080           0
   17668 WT1  6514 TIP3 H2   HT     0.417000        1.0080           0
   17669 WT1  6516 TIP3 OH2  OT    -0.834000       15.9994           0
   17670 WT1  6516 TIP3 H1   HT     0.417000        1.0080           0
   17671 WT1  6516 TIP3 H2   HT     0.417000        1.0080           0
   17672 WT1  6517 TIP3 OH2  OT    -0.834000       15.9994           0
   17673 WT1  6517 TIP3 H1   HT     0.417000        1.0080           0
   17674 WT1  6517 TIP3 H2   HT     0.417000        1.0080           0
   17675 WT1  6519 TIP3 OH2  OT    -0.834000       15.9994           0
   17676 WT1  6519 TIP3 H1   HT     0.417000        1.0080           0
   17677 WT1  6519 TIP3 H2   HT     0.417000        1.0080           0
   17678 WT1  6520 TIP3 OH2  OT    -0.834000       15.9994           0
   17679 WT1  6520 TIP3 H1   HT     0.417000        1.0080           0
   17680 WT1  6520 TIP3 H2   HT     0.417000        1.0080           0
   17681 WT1  6521 TIP3 OH2  OT    -0.834000       15.9994           0
   17682 WT1  6521 TIP3 H1   HT     0.417000        1.0080           0
   17683 WT1  6521 TIP3 H2   HT     0.417000        1.0080           0
   17684 WT1  6522 TIP3 OH2  OT    -0.834000       15.9994           0
   17685 WT1  6522 TIP3 H1   HT     0.417000        1.0080           0
   17686 WT1  6522 TIP3 H2   HT     0.417000        1.0080           0
   17687 WT1  6523 TIP3 OH2  OT    -0.834000       15.9994           0
   17688 WT1  6523 TIP3 H1   HT     0.417000        1.0080           0
   17689 WT1  6523 TIP3 H2   HT     0.417000        1.0080           0
   17690 WT1  6524 TIP3 OH2  OT    -0.834000       15.9994           0
   17691 WT1  6524 TIP3 H1   HT     0.417000        1.0080           0
   17692 WT1  6524 TIP3 H2   HT     0.417000        1.0080           0
   17693 WT1  6525 TIP3 OH2  OT    -0.834000       15.9994           0
   17694 WT1  6525 TIP3 H1   HT     0.417000        1.0080           0
   17695 WT1  6525 TIP3 H2   HT     0.417000        1.0080           0
   17696 WT1  6526 TIP3 OH2  OT    -0.834000       15.9994           0
   17697 WT1  6526 TIP3 H1   HT     0.417000        1.0080           0
   17698 WT1  6526 TIP3 H2   HT     0.417000        1.0080           0
   17699 WT1  6527 TIP3 OH2  OT    -0.834000       15.9994           0
   17700 WT1  6527 TIP3 H1   HT     0.417000        1.0080           0
   17701 WT1  6527 TIP3 H2   HT     0.417000        1.0080           0
   17702 WT1  6531 TIP3 OH2  OT    -0.834000       15.9994           0
   17703 WT1  6531 TIP3 H1   HT     0.417000        1.0080           0
   17704 WT1  6531 TIP3 H2   HT     0.417000        1.0080           0
   17705 WT1  6533 TIP3 OH2  OT    -0.834000       15.9994           0
   17706 WT1  6533 TIP3 H1   HT     0.417000        1.0080           0
   17707 WT1  6533 TIP3 H2   HT     0.417000        1.0080           0
   17708 WT1  6534 TIP3 OH2  OT    -0.834000       15.9994           0
   17709 WT1  6534 TIP3 H1   HT     0.417000        1.0080           0
   17710 WT1  6534 TIP3 H2   HT     0.417000        1.0080           0
   17711 WT1  6535 TIP3 OH2  OT    -0.834000       15.9994           0
   17712 WT1  6535 TIP3 H1   HT     0.417000        1.0080           0
   17713 WT1  6535 TIP3 H2   HT     0.417000        1.0080           0
   17714 WT1  6536 TIP3 OH2  OT    -0.834000       15.9994           0
   17715 WT1  6536 TIP3 H1   HT     0.417000        1.0080           0
   17716 WT1  6536 TIP3 H2   HT     0.417000        1.0080           0
   17717 WT1  6538 TIP3 OH2  OT    -0.834000       15.9994           0
   17718 WT1  6538 TIP3 H1   HT     0.417000        1.0080           0
   17719 WT1  6538 TIP3 H2   HT     0.417000        1.0080           0
   17720 WT1  6539 TIP3 OH2  OT    -0.834000       15.9994           0
   17721 WT1  6539 TIP3 H1   HT     0.417000        1.0080           0
   17722 WT1  6539 TIP3 H2   HT     0.417000        1.0080           0
   17723 WT1  6540 TIP3 OH2  OT    -0.834000       15.9994           0
   17724 WT1  6540 TIP3 H1   HT     0.417000        1.0080           0
   17725 WT1  6540 TIP3 H2   HT     0.417000        1.0080           0
   17726 WT1  6541 TIP3 OH2  OT    -0.834000       15.9994           0
   17727 WT1  6541 TIP3 H1   HT     0.417000        1.0080           0
   17728 WT1  6541 TIP3 H2   HT     0.417000        1.0080           0
   17729 WT1  6542 TIP3 OH2  OT    -0.834000       15.9994           0
   17730 WT1  6542 TIP3 H1   HT     0.417000        1.0080           0
   17731 WT1  6542 TIP3 H2   HT     0.417000        1.0080           0
   17732 WT1  6543 TIP3 OH2  OT    -0.834000       15.9994           0
   17733 WT1  6543 TIP3 H1   HT     0.417000        1.0080           0
   17734 WT1  6543 TIP3 H2   HT     0.417000        1.0080           0
   17735 WT1  6545 TIP3 OH2  OT    -0.834000       15.9994           0
   17736 WT1  6545 TIP3 H1   HT     0.417000        1.0080           0
   17737 WT1  6545 TIP3 H2   HT     0.417000        1.0080           0
   17738 WT1  6547 TIP3 OH2  OT    -0.834000       15.9994           0
   17739 WT1  6547 TIP3 H1   HT     0.417000        1.0080           0
   17740 WT1  6547 TIP3 H2   HT     0.417000        1.0080           0
   17741 WT1  6549 TIP3 OH2  OT    -0.834000       15.9994           0
   17742 WT1  6549 TIP3 H1   HT     0.417000        1.0080           0
   17743 WT1  6549 TIP3 H2   HT     0.417000        1.0080           0
   17744 WT1  6550 TIP3 OH2  OT    -0.834000       15.9994           0
   17745 WT1  6550 TIP3 H1   HT     0.417000        1.0080           0
   17746 WT1  6550 TIP3 H2   HT     0.417000        1.0080           0
   17747 WT1  6551 TIP3 OH2  OT    -0.834000       15.9994           0
   17748 WT1  6551 TIP3 H1   HT     0.417000        1.0080           0
   17749 WT1  6551 TIP3 H2   HT     0.417000        1.0080           0
   17750 WT1  6553 TIP3 OH2  OT    -0.834000       15.9994           0
   17751 WT1  6553 TIP3 H1   HT     0.417000        1.0080           0
   17752 WT1  6553 TIP3 H2   HT     0.417000        1.0080           0
   17753 WT1  6554 TIP3 OH2  OT    -0.834000       15.9994           0
   17754 WT1  6554 TIP3 H1   HT     0.417000        1.0080           0
   17755 WT1  6554 TIP3 H2   HT     0.417000        1.0080           0
   17756 WT1  6555 TIP3 OH2  OT    -0.834000       15.9994           0
   17757 WT1  6555 TIP3 H1   HT     0.417000        1.0080           0
   17758 WT1  6555 TIP3 H2   HT     0.417000        1.0080           0
   17759 WT1  6556 TIP3 OH2  OT    -0.834000       15.9994           0
   17760 WT1  6556 TIP3 H1   HT     0.417000        1.0080           0
   17761 WT1  6556 TIP3 H2   HT     0.417000        1.0080           0
   17762 WT1  6557 TIP3 OH2  OT    -0.834000       15.9994           0
   17763 WT1  6557 TIP3 H1   HT     0.417000        1.0080           0
   17764 WT1  6557 TIP3 H2   HT     0.417000        1.0080           0
   17765 WT1  6558 TIP3 OH2  OT    -0.834000       15.9994           0
   17766 WT1  6558 TIP3 H1   HT     0.417000        1.0080           0
   17767 WT1  6558 TIP3 H2   HT     0.417000        1.0080           0
   17768 WT1  6559 TIP3 OH2  OT    -0.834000       15.9994           0
   17769 WT1  6559 TIP3 H1   HT     0.417000        1.0080           0
   17770 WT1  6559 TIP3 H2   HT     0.417000        1.0080           0
   17771 WT1  6560 TIP3 OH2  OT    -0.834000       15.9994           0
   17772 WT1  6560 TIP3 H1   HT     0.417000        1.0080           0
   17773 WT1  6560 TIP3 H2   HT     0.417000        1.0080           0
   17774 WT1  6561 TIP3 OH2  OT    -0.834000       15.9994           0
   17775 WT1  6561 TIP3 H1   HT     0.417000        1.0080           0
   17776 WT1  6561 TIP3 H2   HT     0.417000        1.0080           0
   17777 WT1  6562 TIP3 OH2  OT    -0.834000       15.9994           0
   17778 WT1  6562 TIP3 H1   HT     0.417000        1.0080           0
   17779 WT1  6562 TIP3 H2   HT     0.417000        1.0080           0
   17780 WT1  6563 TIP3 OH2  OT    -0.834000       15.9994           0
   17781 WT1  6563 TIP3 H1   HT     0.417000        1.0080           0
   17782 WT1  6563 TIP3 H2   HT     0.417000        1.0080           0
   17783 WT1  6564 TIP3 OH2  OT    -0.834000       15.9994           0
   17784 WT1  6564 TIP3 H1   HT     0.417000        1.0080           0
   17785 WT1  6564 TIP3 H2   HT     0.417000        1.0080           0
   17786 WT1  6565 TIP3 OH2  OT    -0.834000       15.9994           0
   17787 WT1  6565 TIP3 H1   HT     0.417000        1.0080           0
   17788 WT1  6565 TIP3 H2   HT     0.417000        1.0080           0
   17789 WT1  6566 TIP3 OH2  OT    -0.834000       15.9994           0
   17790 WT1  6566 TIP3 H1   HT     0.417000        1.0080           0
   17791 WT1  6566 TIP3 H2   HT     0.417000        1.0080           0
   17792 WT1  6567 TIP3 OH2  OT    -0.834000       15.9994           0
   17793 WT1  6567 TIP3 H1   HT     0.417000        1.0080           0
   17794 WT1  6567 TIP3 H2   HT     0.417000        1.0080           0
   17795 WT1  6568 TIP3 OH2  OT    -0.834000       15.9994           0
   17796 WT1  6568 TIP3 H1   HT     0.417000        1.0080           0
   17797 WT1  6568 TIP3 H2   HT     0.417000        1.0080           0
   17798 WT1  6569 TIP3 OH2  OT    -0.834000       15.9994           0
   17799 WT1  6569 TIP3 H1   HT     0.417000        1.0080           0
   17800 WT1  6569 TIP3 H2   HT     0.417000        1.0080           0
   17801 WT1  6570 TIP3 OH2  OT    -0.834000       15.9994           0
   17802 WT1  6570 TIP3 H1   HT     0.417000        1.0080           0
   17803 WT1  6570 TIP3 H2   HT     0.417000        1.0080           0
   17804 WT1  6571 TIP3 OH2  OT    -0.834000       15.9994           0
   17805 WT1  6571 TIP3 H1   HT     0.417000        1.0080           0
   17806 WT1  6571 TIP3 H2   HT     0.417000        1.0080           0
   17807 WT1  6572 TIP3 OH2  OT    -0.834000       15.9994           0
   17808 WT1  6572 TIP3 H1   HT     0.417000        1.0080           0
   17809 WT1  6572 TIP3 H2   HT     0.417000        1.0080           0
   17810 WT1  6573 TIP3 OH2  OT    -0.834000       15.9994           0
   17811 WT1  6573 TIP3 H1   HT     0.417000        1.0080           0
   17812 WT1  6573 TIP3 H2   HT     0.417000        1.0080           0
   17813 WT1  6574 TIP3 OH2  OT    -0.834000       15.9994           0
   17814 WT1  6574 TIP3 H1   HT     0.417000        1.0080           0
   17815 WT1  6574 TIP3 H2   HT     0.417000        1.0080           0
   17816 WT1  6575 TIP3 OH2  OT    -0.834000       15.9994           0
   17817 WT1  6575 TIP3 H1   HT     0.417000        1.0080           0
   17818 WT1  6575 TIP3 H2   HT     0.417000        1.0080           0
   17819 WT1  6576 TIP3 OH2  OT    -0.834000       15.9994           0
   17820 WT1  6576 TIP3 H1   HT     0.417000        1.0080           0
   17821 WT1  6576 TIP3 H2   HT     0.417000        1.0080           0
   17822 WT1  6577 TIP3 OH2  OT    -0.834000       15.9994           0
   17823 WT1  6577 TIP3 H1   HT     0.417000        1.0080           0
   17824 WT1  6577 TIP3 H2   HT     0.417000        1.0080           0
   17825 WT1  6578 TIP3 OH2  OT    -0.834000       15.9994           0
   17826 WT1  6578 TIP3 H1   HT     0.417000        1.0080           0
   17827 WT1  6578 TIP3 H2   HT     0.417000        1.0080           0
   17828 WT1  6579 TIP3 OH2  OT    -0.834000       15.9994           0
   17829 WT1  6579 TIP3 H1   HT     0.417000        1.0080           0
   17830 WT1  6579 TIP3 H2   HT     0.417000        1.0080           0
   17831 WT1  6580 TIP3 OH2  OT    -0.834000       15.9994           0
   17832 WT1  6580 TIP3 H1   HT     0.417000        1.0080           0
   17833 WT1  6580 TIP3 H2   HT     0.417000        1.0080           0
   17834 WT1  6581 TIP3 OH2  OT    -0.834000       15.9994           0
   17835 WT1  6581 TIP3 H1   HT     0.417000        1.0080           0
   17836 WT1  6581 TIP3 H2   HT     0.417000        1.0080           0
   17837 WT1  6582 TIP3 OH2  OT    -0.834000       15.9994           0
   17838 WT1  6582 TIP3 H1   HT     0.417000        1.0080           0
   17839 WT1  6582 TIP3 H2   HT     0.417000        1.0080           0
   17840 WT1  6583 TIP3 OH2  OT    -0.834000       15.9994           0
   17841 WT1  6583 TIP3 H1   HT     0.417000        1.0080           0
   17842 WT1  6583 TIP3 H2   HT     0.417000        1.0080           0
   17843 WT1  6584 TIP3 OH2  OT    -0.834000       15.9994           0
   17844 WT1  6584 TIP3 H1   HT     0.417000        1.0080           0
   17845 WT1  6584 TIP3 H2   HT     0.417000        1.0080           0
   17846 WT1  6585 TIP3 OH2  OT    -0.834000       15.9994           0
   17847 WT1  6585 TIP3 H1   HT     0.417000        1.0080           0
   17848 WT1  6585 TIP3 H2   HT     0.417000        1.0080           0
   17849 WT1  6586 TIP3 OH2  OT    -0.834000       15.9994           0
   17850 WT1  6586 TIP3 H1   HT     0.417000        1.0080           0
   17851 WT1  6586 TIP3 H2   HT     0.417000        1.0080           0
   17852 WT1  6587 TIP3 OH2  OT    -0.834000       15.9994           0
   17853 WT1  6587 TIP3 H1   HT     0.417000        1.0080           0
   17854 WT1  6587 TIP3 H2   HT     0.417000        1.0080           0
   17855 WT1  6589 TIP3 OH2  OT    -0.834000       15.9994           0
   17856 WT1  6589 TIP3 H1   HT     0.417000        1.0080           0
   17857 WT1  6589 TIP3 H2   HT     0.417000        1.0080           0
   17858 WT1  6590 TIP3 OH2  OT    -0.834000       15.9994           0
   17859 WT1  6590 TIP3 H1   HT     0.417000        1.0080           0
   17860 WT1  6590 TIP3 H2   HT     0.417000        1.0080           0
   17861 WT1  6592 TIP3 OH2  OT    -0.834000       15.9994           0
   17862 WT1  6592 TIP3 H1   HT     0.417000        1.0080           0
   17863 WT1  6592 TIP3 H2   HT     0.417000        1.0080           0
   17864 WT1  6593 TIP3 OH2  OT    -0.834000       15.9994           0
   17865 WT1  6593 TIP3 H1   HT     0.417000        1.0080           0
   17866 WT1  6593 TIP3 H2   HT     0.417000        1.0080           0
   17867 WT1  6594 TIP3 OH2  OT    -0.834000       15.9994           0
   17868 WT1  6594 TIP3 H1   HT     0.417000        1.0080           0
   17869 WT1  6594 TIP3 H2   HT     0.417000        1.0080           0
   17870 WT1  6595 TIP3 OH2  OT    -0.834000       15.9994           0
   17871 WT1  6595 TIP3 H1   HT     0.417000        1.0080           0
   17872 WT1  6595 TIP3 H2   HT     0.417000        1.0080           0
   17873 WT1  6596 TIP3 OH2  OT    -0.834000       15.9994           0
   17874 WT1  6596 TIP3 H1   HT     0.417000        1.0080           0
   17875 WT1  6596 TIP3 H2   HT     0.417000        1.0080           0
   17876 WT1  6597 TIP3 OH2  OT    -0.834000       15.9994           0
   17877 WT1  6597 TIP3 H1   HT     0.417000        1.0080           0
   17878 WT1  6597 TIP3 H2   HT     0.417000        1.0080           0
   17879 WT1  6598 TIP3 OH2  OT    -0.834000       15.9994           0
   17880 WT1  6598 TIP3 H1   HT     0.417000        1.0080           0
   17881 WT1  6598 TIP3 H2   HT     0.417000        1.0080           0
   17882 WT1  6599 TIP3 OH2  OT    -0.834000       15.9994           0
   17883 WT1  6599 TIP3 H1   HT     0.417000        1.0080           0
   17884 WT1  6599 TIP3 H2   HT     0.417000        1.0080           0
   17885 WT1  6600 TIP3 OH2  OT    -0.834000       15.9994           0
   17886 WT1  6600 TIP3 H1   HT     0.417000        1.0080           0
   17887 WT1  6600 TIP3 H2   HT     0.417000        1.0080           0
   17888 WT1  6601 TIP3 OH2  OT    -0.834000       15.9994           0
   17889 WT1  6601 TIP3 H1   HT     0.417000        1.0080           0
   17890 WT1  6601 TIP3 H2   HT     0.417000        1.0080           0
   17891 WT1  6602 TIP3 OH2  OT    -0.834000       15.9994           0
   17892 WT1  6602 TIP3 H1   HT     0.417000        1.0080           0
   17893 WT1  6602 TIP3 H2   HT     0.417000        1.0080           0
   17894 WT1  6603 TIP3 OH2  OT    -0.834000       15.9994           0
   17895 WT1  6603 TIP3 H1   HT     0.417000        1.0080           0
   17896 WT1  6603 TIP3 H2   HT     0.417000        1.0080           0
   17897 WT1  6604 TIP3 OH2  OT    -0.834000       15.9994           0
   17898 WT1  6604 TIP3 H1   HT     0.417000        1.0080           0
   17899 WT1  6604 TIP3 H2   HT     0.417000        1.0080           0
   17900 WT1  6605 TIP3 OH2  OT    -0.834000       15.9994           0
   17901 WT1  6605 TIP3 H1   HT     0.417000        1.0080           0
   17902 WT1  6605 TIP3 H2   HT     0.417000        1.0080           0
   17903 WT1  6607 TIP3 OH2  OT    -0.834000       15.9994           0
   17904 WT1  6607 TIP3 H1   HT     0.417000        1.0080           0
   17905 WT1  6607 TIP3 H2   HT     0.417000        1.0080           0
   17906 WT1  6609 TIP3 OH2  OT    -0.834000       15.9994           0
   17907 WT1  6609 TIP3 H1   HT     0.417000        1.0080           0
   17908 WT1  6609 TIP3 H2   HT     0.417000        1.0080           0
   17909 WT1  6610 TIP3 OH2  OT    -0.834000       15.9994           0
   17910 WT1  6610 TIP3 H1   HT     0.417000        1.0080           0
   17911 WT1  6610 TIP3 H2   HT     0.417000        1.0080           0
   17912 WT1  6611 TIP3 OH2  OT    -0.834000       15.9994           0
   17913 WT1  6611 TIP3 H1   HT     0.417000        1.0080           0
   17914 WT1  6611 TIP3 H2   HT     0.417000        1.0080           0
   17915 WT1  6612 TIP3 OH2  OT    -0.834000       15.9994           0
   17916 WT1  6612 TIP3 H1   HT     0.417000        1.0080           0
   17917 WT1  6612 TIP3 H2   HT     0.417000        1.0080           0
   17918 WT1  6614 TIP3 OH2  OT    -0.834000       15.9994           0
   17919 WT1  6614 TIP3 H1   HT     0.417000        1.0080           0
   17920 WT1  6614 TIP3 H2   HT     0.417000        1.0080           0
   17921 WT1  6615 TIP3 OH2  OT    -0.834000       15.9994           0
   17922 WT1  6615 TIP3 H1   HT     0.417000        1.0080           0
   17923 WT1  6615 TIP3 H2   HT     0.417000        1.0080           0
   17924 WT1  6616 TIP3 OH2  OT    -0.834000       15.9994           0
   17925 WT1  6616 TIP3 H1   HT     0.417000        1.0080           0
   17926 WT1  6616 TIP3 H2   HT     0.417000        1.0080           0
   17927 WT1  6617 TIP3 OH2  OT    -0.834000       15.9994           0
   17928 WT1  6617 TIP3 H1   HT     0.417000        1.0080           0
   17929 WT1  6617 TIP3 H2   HT     0.417000        1.0080           0
   17930 WT1  6618 TIP3 OH2  OT    -0.834000       15.9994           0
   17931 WT1  6618 TIP3 H1   HT     0.417000        1.0080           0
   17932 WT1  6618 TIP3 H2   HT     0.417000        1.0080           0
   17933 WT1  6619 TIP3 OH2  OT    -0.834000       15.9994           0
   17934 WT1  6619 TIP3 H1   HT     0.417000        1.0080           0
   17935 WT1  6619 TIP3 H2   HT     0.417000        1.0080           0
   17936 WT1  6620 TIP3 OH2  OT    -0.834000       15.9994           0
   17937 WT1  6620 TIP3 H1   HT     0.417000        1.0080           0
   17938 WT1  6620 TIP3 H2   HT     0.417000        1.0080           0
   17939 WT1  6621 TIP3 OH2  OT    -0.834000       15.9994           0
   17940 WT1  6621 TIP3 H1   HT     0.417000        1.0080           0
   17941 WT1  6621 TIP3 H2   HT     0.417000        1.0080           0
   17942 WT1  6622 TIP3 OH2  OT    -0.834000       15.9994           0
   17943 WT1  6622 TIP3 H1   HT     0.417000        1.0080           0
   17944 WT1  6622 TIP3 H2   HT     0.417000        1.0080           0
   17945 WT1  6623 TIP3 OH2  OT    -0.834000       15.9994           0
   17946 WT1  6623 TIP3 H1   HT     0.417000        1.0080           0
   17947 WT1  6623 TIP3 H2   HT     0.417000        1.0080           0
   17948 WT1  6624 TIP3 OH2  OT    -0.834000       15.9994           0
   17949 WT1  6624 TIP3 H1   HT     0.417000        1.0080           0
   17950 WT1  6624 TIP3 H2   HT     0.417000        1.0080           0
   17951 WT1  6625 TIP3 OH2  OT    -0.834000       15.9994           0
   17952 WT1  6625 TIP3 H1   HT     0.417000        1.0080           0
   17953 WT1  6625 TIP3 H2   HT     0.417000        1.0080           0
   17954 WT1  6626 TIP3 OH2  OT    -0.834000       15.9994           0
   17955 WT1  6626 TIP3 H1   HT     0.417000        1.0080           0
   17956 WT1  6626 TIP3 H2   HT     0.417000        1.0080           0
   17957 WT1  6627 TIP3 OH2  OT    -0.834000       15.9994           0
   17958 WT1  6627 TIP3 H1   HT     0.417000        1.0080           0
   17959 WT1  6627 TIP3 H2   HT     0.417000        1.0080           0
   17960 WT1  6628 TIP3 OH2  OT    -0.834000       15.9994           0
   17961 WT1  6628 TIP3 H1   HT     0.417000        1.0080           0
   17962 WT1  6628 TIP3 H2   HT     0.417000        1.0080           0
   17963 WT1  6629 TIP3 OH2  OT    -0.834000       15.9994           0
   17964 WT1  6629 TIP3 H1   HT     0.417000        1.0080           0
   17965 WT1  6629 TIP3 H2   HT     0.417000        1.0080           0
   17966 WT1  6630 TIP3 OH2  OT    -0.834000       15.9994           0
   17967 WT1  6630 TIP3 H1   HT     0.417000        1.0080           0
   17968 WT1  6630 TIP3 H2   HT     0.417000        1.0080           0
   17969 WT1  6631 TIP3 OH2  OT    -0.834000       15.9994           0
   17970 WT1  6631 TIP3 H1   HT     0.417000        1.0080           0
   17971 WT1  6631 TIP3 H2   HT     0.417000        1.0080           0
   17972 WT1  6632 TIP3 OH2  OT    -0.834000       15.9994           0
   17973 WT1  6632 TIP3 H1   HT     0.417000        1.0080           0
   17974 WT1  6632 TIP3 H2   HT     0.417000        1.0080           0
   17975 WT1  6633 TIP3 OH2  OT    -0.834000       15.9994           0
   17976 WT1  6633 TIP3 H1   HT     0.417000        1.0080           0
   17977 WT1  6633 TIP3 H2   HT     0.417000        1.0080           0
   17978 WT1  6634 TIP3 OH2  OT    -0.834000       15.9994           0
   17979 WT1  6634 TIP3 H1   HT     0.417000        1.0080           0
   17980 WT1  6634 TIP3 H2   HT     0.417000        1.0080           0
   17981 WT1  6637 TIP3 OH2  OT    -0.834000       15.9994           0
   17982 WT1  6637 TIP3 H1   HT     0.417000        1.0080           0
   17983 WT1  6637 TIP3 H2   HT     0.417000        1.0080           0
   17984 WT1  6638 TIP3 OH2  OT    -0.834000       15.9994           0
   17985 WT1  6638 TIP3 H1   HT     0.417000        1.0080           0
   17986 WT1  6638 TIP3 H2   HT     0.417000        1.0080           0
   17987 WT1  6639 TIP3 OH2  OT    -0.834000       15.9994           0
   17988 WT1  6639 TIP3 H1   HT     0.417000        1.0080           0
   17989 WT1  6639 TIP3 H2   HT     0.417000        1.0080           0
   17990 WT1  6641 TIP3 OH2  OT    -0.834000       15.9994           0
   17991 WT1  6641 TIP3 H1   HT     0.417000        1.0080           0
   17992 WT1  6641 TIP3 H2   HT     0.417000        1.0080           0
   17993 WT1  6642 TIP3 OH2  OT    -0.834000       15.9994           0
   17994 WT1  6642 TIP3 H1   HT     0.417000        1.0080           0
   17995 WT1  6642 TIP3 H2   HT     0.417000        1.0080           0
   17996 WT1  6643 TIP3 OH2  OT    -0.834000       15.9994           0
   17997 WT1  6643 TIP3 H1   HT     0.417000        1.0080           0
   17998 WT1  6643 TIP3 H2   HT     0.417000        1.0080           0
   17999 WT1  6644 TIP3 OH2  OT    -0.834000       15.9994           0
   18000 WT1  6644 TIP3 H1   HT     0.417000        1.0080           0
   18001 WT1  6644 TIP3 H2   HT     0.417000        1.0080           0
   18002 WT1  6645 TIP3 OH2  OT    -0.834000       15.9994           0
   18003 WT1  6645 TIP3 H1   HT     0.417000        1.0080           0
   18004 WT1  6645 TIP3 H2   HT     0.417000        1.0080           0
   18005 WT1  6646 TIP3 OH2  OT    -0.834000       15.9994           0
   18006 WT1  6646 TIP3 H1   HT     0.417000        1.0080           0
   18007 WT1  6646 TIP3 H2   HT     0.417000        1.0080           0
   18008 WT1  6647 TIP3 OH2  OT    -0.834000       15.9994           0
   18009 WT1  6647 TIP3 H1   HT     0.417000        1.0080           0
   18010 WT1  6647 TIP3 H2   HT     0.417000        1.0080           0
   18011 WT1  6649 TIP3 OH2  OT    -0.834000       15.9994           0
   18012 WT1  6649 TIP3 H1   HT     0.417000        1.0080           0
   18013 WT1  6649 TIP3 H2   HT     0.417000        1.0080           0
   18014 WT1  6650 TIP3 OH2  OT    -0.834000       15.9994           0
   18015 WT1  6650 TIP3 H1   HT     0.417000        1.0080           0
   18016 WT1  6650 TIP3 H2   HT     0.417000        1.0080           0
   18017 WT1  6651 TIP3 OH2  OT    -0.834000       15.9994           0
   18018 WT1  6651 TIP3 H1   HT     0.417000        1.0080           0
   18019 WT1  6651 TIP3 H2   HT     0.417000        1.0080           0
   18020 WT1  6652 TIP3 OH2  OT    -0.834000       15.9994           0
   18021 WT1  6652 TIP3 H1   HT     0.417000        1.0080           0
   18022 WT1  6652 TIP3 H2   HT     0.417000        1.0080           0
   18023 WT1  6653 TIP3 OH2  OT    -0.834000       15.9994           0
   18024 WT1  6653 TIP3 H1   HT     0.417000        1.0080           0
   18025 WT1  6653 TIP3 H2   HT     0.417000        1.0080           0
   18026 WT1  6654 TIP3 OH2  OT    -0.834000       15.9994           0
   18027 WT1  6654 TIP3 H1   HT     0.417000        1.0080           0
   18028 WT1  6654 TIP3 H2   HT     0.417000        1.0080           0
   18029 WT1  6655 TIP3 OH2  OT    -0.834000       15.9994           0
   18030 WT1  6655 TIP3 H1   HT     0.417000        1.0080           0
   18031 WT1  6655 TIP3 H2   HT     0.417000        1.0080           0
   18032 WT1  6656 TIP3 OH2  OT    -0.834000       15.9994           0
   18033 WT1  6656 TIP3 H1   HT     0.417000        1.0080           0
   18034 WT1  6656 TIP3 H2   HT     0.417000        1.0080           0
   18035 WT1  6657 TIP3 OH2  OT    -0.834000       15.9994           0
   18036 WT1  6657 TIP3 H1   HT     0.417000        1.0080           0
   18037 WT1  6657 TIP3 H2   HT     0.417000        1.0080           0
   18038 WT1  6658 TIP3 OH2  OT    -0.834000       15.9994           0
   18039 WT1  6658 TIP3 H1   HT     0.417000        1.0080           0
   18040 WT1  6658 TIP3 H2   HT     0.417000        1.0080           0
   18041 WT1  6659 TIP3 OH2  OT    -0.834000       15.9994           0
   18042 WT1  6659 TIP3 H1   HT     0.417000        1.0080           0
   18043 WT1  6659 TIP3 H2   HT     0.417000        1.0080           0
   18044 WT1  6660 TIP3 OH2  OT    -0.834000       15.9994           0
   18045 WT1  6660 TIP3 H1   HT     0.417000        1.0080           0
   18046 WT1  6660 TIP3 H2   HT     0.417000        1.0080           0
   18047 WT1  6661 TIP3 OH2  OT    -0.834000       15.9994           0
   18048 WT1  6661 TIP3 H1   HT     0.417000        1.0080           0
   18049 WT1  6661 TIP3 H2   HT     0.417000        1.0080           0
   18050 WT1  6663 TIP3 OH2  OT    -0.834000       15.9994           0
   18051 WT1  6663 TIP3 H1   HT     0.417000        1.0080           0
   18052 WT1  6663 TIP3 H2   HT     0.417000        1.0080           0
   18053 WT1  6664 TIP3 OH2  OT    -0.834000       15.9994           0
   18054 WT1  6664 TIP3 H1   HT     0.417000        1.0080           0
   18055 WT1  6664 TIP3 H2   HT     0.417000        1.0080           0
   18056 WT1  6665 TIP3 OH2  OT    -0.834000       15.9994           0
   18057 WT1  6665 TIP3 H1   HT     0.417000        1.0080           0
   18058 WT1  6665 TIP3 H2   HT     0.417000        1.0080           0
   18059 WT1  6666 TIP3 OH2  OT    -0.834000       15.9994           0
   18060 WT1  6666 TIP3 H1   HT     0.417000        1.0080           0
   18061 WT1  6666 TIP3 H2   HT     0.417000        1.0080           0
   18062 WT1  6667 TIP3 OH2  OT    -0.834000       15.9994           0
   18063 WT1  6667 TIP3 H1   HT     0.417000        1.0080           0
   18064 WT1  6667 TIP3 H2   HT     0.417000        1.0080           0
   18065 WT1  6668 TIP3 OH2  OT    -0.834000       15.9994           0
   18066 WT1  6668 TIP3 H1   HT     0.417000        1.0080           0
   18067 WT1  6668 TIP3 H2   HT     0.417000        1.0080           0
   18068 WT1  6669 TIP3 OH2  OT    -0.834000       15.9994           0
   18069 WT1  6669 TIP3 H1   HT     0.417000        1.0080           0
   18070 WT1  6669 TIP3 H2   HT     0.417000        1.0080           0
   18071 WT1  6670 TIP3 OH2  OT    -0.834000       15.9994           0
   18072 WT1  6670 TIP3 H1   HT     0.417000        1.0080           0
   18073 WT1  6670 TIP3 H2   HT     0.417000        1.0080           0
   18074 WT1  6671 TIP3 OH2  OT    -0.834000       15.9994           0
   18075 WT1  6671 TIP3 H1   HT     0.417000        1.0080           0
   18076 WT1  6671 TIP3 H2   HT     0.417000        1.0080           0
   18077 WT1  6673 TIP3 OH2  OT    -0.834000       15.9994           0
   18078 WT1  6673 TIP3 H1   HT     0.417000        1.0080           0
   18079 WT1  6673 TIP3 H2   HT     0.417000        1.0080           0
   18080 WT1  6674 TIP3 OH2  OT    -0.834000       15.9994           0
   18081 WT1  6674 TIP3 H1   HT     0.417000        1.0080           0
   18082 WT1  6674 TIP3 H2   HT     0.417000        1.0080           0
   18083 WT1  6676 TIP3 OH2  OT    -0.834000       15.9994           0
   18084 WT1  6676 TIP3 H1   HT     0.417000        1.0080           0
   18085 WT1  6676 TIP3 H2   HT     0.417000        1.0080           0
   18086 WT1  6677 TIP3 OH2  OT    -0.834000       15.9994           0
   18087 WT1  6677 TIP3 H1   HT     0.417000        1.0080           0
   18088 WT1  6677 TIP3 H2   HT     0.417000        1.0080           0
   18089 WT1  6678 TIP3 OH2  OT    -0.834000       15.9994           0
   18090 WT1  6678 TIP3 H1   HT     0.417000        1.0080           0
   18091 WT1  6678 TIP3 H2   HT     0.417000        1.0080           0
   18092 WT1  6679 TIP3 OH2  OT    -0.834000       15.9994           0
   18093 WT1  6679 TIP3 H1   HT     0.417000        1.0080           0
   18094 WT1  6679 TIP3 H2   HT     0.417000        1.0080           0
   18095 WT1  6680 TIP3 OH2  OT    -0.834000       15.9994           0
   18096 WT1  6680 TIP3 H1   HT     0.417000        1.0080           0
   18097 WT1  6680 TIP3 H2   HT     0.417000        1.0080           0
   18098 WT1  6681 TIP3 OH2  OT    -0.834000       15.9994           0
   18099 WT1  6681 TIP3 H1   HT     0.417000        1.0080           0
   18100 WT1  6681 TIP3 H2   HT     0.417000        1.0080           0
   18101 WT1  6684 TIP3 OH2  OT    -0.834000       15.9994           0
   18102 WT1  6684 TIP3 H1   HT     0.417000        1.0080           0
   18103 WT1  6684 TIP3 H2   HT     0.417000        1.0080           0
   18104 WT1  6685 TIP3 OH2  OT    -0.834000       15.9994           0
   18105 WT1  6685 TIP3 H1   HT     0.417000        1.0080           0
   18106 WT1  6685 TIP3 H2   HT     0.417000        1.0080           0
   18107 WT1  6686 TIP3 OH2  OT    -0.834000       15.9994           0
   18108 WT1  6686 TIP3 H1   HT     0.417000        1.0080           0
   18109 WT1  6686 TIP3 H2   HT     0.417000        1.0080           0
   18110 WT1  6687 TIP3 OH2  OT    -0.834000       15.9994           0
   18111 WT1  6687 TIP3 H1   HT     0.417000        1.0080           0
   18112 WT1  6687 TIP3 H2   HT     0.417000        1.0080           0
   18113 WT1  6688 TIP3 OH2  OT    -0.834000       15.9994           0
   18114 WT1  6688 TIP3 H1   HT     0.417000        1.0080           0
   18115 WT1  6688 TIP3 H2   HT     0.417000        1.0080           0
   18116 WT1  6689 TIP3 OH2  OT    -0.834000       15.9994           0
   18117 WT1  6689 TIP3 H1   HT     0.417000        1.0080           0
   18118 WT1  6689 TIP3 H2   HT     0.417000        1.0080           0
   18119 WT1  6690 TIP3 OH2  OT    -0.834000       15.9994           0
   18120 WT1  6690 TIP3 H1   HT     0.417000        1.0080           0
   18121 WT1  6690 TIP3 H2   HT     0.417000        1.0080           0
   18122 WT1  6691 TIP3 OH2  OT    -0.834000       15.9994           0
   18123 WT1  6691 TIP3 H1   HT     0.417000        1.0080           0
   18124 WT1  6691 TIP3 H2   HT     0.417000        1.0080           0
   18125 WT1  6692 TIP3 OH2  OT    -0.834000       15.9994           0
   18126 WT1  6692 TIP3 H1   HT     0.417000        1.0080           0
   18127 WT1  6692 TIP3 H2   HT     0.417000        1.0080           0
   18128 WT1  6693 TIP3 OH2  OT    -0.834000       15.9994           0
   18129 WT1  6693 TIP3 H1   HT     0.417000        1.0080           0
   18130 WT1  6693 TIP3 H2   HT     0.417000        1.0080           0
   18131 WT1  6694 TIP3 OH2  OT    -0.834000       15.9994           0
   18132 WT1  6694 TIP3 H1   HT     0.417000        1.0080           0
   18133 WT1  6694 TIP3 H2   HT     0.417000        1.0080           0
   18134 WT1  6695 TIP3 OH2  OT    -0.834000       15.9994           0
   18135 WT1  6695 TIP3 H1   HT     0.417000        1.0080           0
   18136 WT1  6695 TIP3 H2   HT     0.417000        1.0080           0
   18137 WT1  6696 TIP3 OH2  OT    -0.834000       15.9994           0
   18138 WT1  6696 TIP3 H1   HT     0.417000        1.0080           0
   18139 WT1  6696 TIP3 H2   HT     0.417000        1.0080           0
   18140 WT1  6697 TIP3 OH2  OT    -0.834000       15.9994           0
   18141 WT1  6697 TIP3 H1   HT     0.417000        1.0080           0
   18142 WT1  6697 TIP3 H2   HT     0.417000        1.0080           0
   18143 WT1  6698 TIP3 OH2  OT    -0.834000       15.9994           0
   18144 WT1  6698 TIP3 H1   HT     0.417000        1.0080           0
   18145 WT1  6698 TIP3 H2   HT     0.417000        1.0080           0
   18146 WT1  6699 TIP3 OH2  OT    -0.834000       15.9994           0
   18147 WT1  6699 TIP3 H1   HT     0.417000        1.0080           0
   18148 WT1  6699 TIP3 H2   HT     0.417000        1.0080           0
   18149 WT1  6701 TIP3 OH2  OT    -0.834000       15.9994           0
   18150 WT1  6701 TIP3 H1   HT     0.417000        1.0080           0
   18151 WT1  6701 TIP3 H2   HT     0.417000        1.0080           0
   18152 WT1  6702 TIP3 OH2  OT    -0.834000       15.9994           0
   18153 WT1  6702 TIP3 H1   HT     0.417000        1.0080           0
   18154 WT1  6702 TIP3 H2   HT     0.417000        1.0080           0
   18155 WT1  6703 TIP3 OH2  OT    -0.834000       15.9994           0
   18156 WT1  6703 TIP3 H1   HT     0.417000        1.0080           0
   18157 WT1  6703 TIP3 H2   HT     0.417000        1.0080           0
   18158 WT1  6704 TIP3 OH2  OT    -0.834000       15.9994           0
   18159 WT1  6704 TIP3 H1   HT     0.417000        1.0080           0
   18160 WT1  6704 TIP3 H2   HT     0.417000        1.0080           0
   18161 WT1  6705 TIP3 OH2  OT    -0.834000       15.9994           0
   18162 WT1  6705 TIP3 H1   HT     0.417000        1.0080           0
   18163 WT1  6705 TIP3 H2   HT     0.417000        1.0080           0
   18164 WT1  6706 TIP3 OH2  OT    -0.834000       15.9994           0
   18165 WT1  6706 TIP3 H1   HT     0.417000        1.0080           0
   18166 WT1  6706 TIP3 H2   HT     0.417000        1.0080           0
   18167 WT1  6707 TIP3 OH2  OT    -0.834000       15.9994           0
   18168 WT1  6707 TIP3 H1   HT     0.417000        1.0080           0
   18169 WT1  6707 TIP3 H2   HT     0.417000        1.0080           0
   18170 WT1  6708 TIP3 OH2  OT    -0.834000       15.9994           0
   18171 WT1  6708 TIP3 H1   HT     0.417000        1.0080           0
   18172 WT1  6708 TIP3 H2   HT     0.417000        1.0080           0
   18173 WT1  6710 TIP3 OH2  OT    -0.834000       15.9994           0
   18174 WT1  6710 TIP3 H1   HT     0.417000        1.0080           0
   18175 WT1  6710 TIP3 H2   HT     0.417000        1.0080           0
   18176 WT1  6711 TIP3 OH2  OT    -0.834000       15.9994           0
   18177 WT1  6711 TIP3 H1   HT     0.417000        1.0080           0
   18178 WT1  6711 TIP3 H2   HT     0.417000        1.0080           0
   18179 WT1  6712 TIP3 OH2  OT    -0.834000       15.9994           0
   18180 WT1  6712 TIP3 H1   HT     0.417000        1.0080           0
   18181 WT1  6712 TIP3 H2   HT     0.417000        1.0080           0
   18182 WT1  6713 TIP3 OH2  OT    -0.834000       15.9994           0
   18183 WT1  6713 TIP3 H1   HT     0.417000        1.0080           0
   18184 WT1  6713 TIP3 H2   HT     0.417000        1.0080           0
   18185 WT1  6714 TIP3 OH2  OT    -0.834000       15.9994           0
   18186 WT1  6714 TIP3 H1   HT     0.417000        1.0080           0
   18187 WT1  6714 TIP3 H2   HT     0.417000        1.0080           0
   18188 WT1  6715 TIP3 OH2  OT    -0.834000       15.9994           0
   18189 WT1  6715 TIP3 H1   HT     0.417000        1.0080           0
   18190 WT1  6715 TIP3 H2   HT     0.417000        1.0080           0
   18191 WT1  6716 TIP3 OH2  OT    -0.834000       15.9994           0
   18192 WT1  6716 TIP3 H1   HT     0.417000        1.0080           0
   18193 WT1  6716 TIP3 H2   HT     0.417000        1.0080           0
   18194 WT1  6717 TIP3 OH2  OT    -0.834000       15.9994           0
   18195 WT1  6717 TIP3 H1   HT     0.417000        1.0080           0
   18196 WT1  6717 TIP3 H2   HT     0.417000        1.0080           0
   18197 WT1  6718 TIP3 OH2  OT    -0.834000       15.9994           0
   18198 WT1  6718 TIP3 H1   HT     0.417000        1.0080           0
   18199 WT1  6718 TIP3 H2   HT     0.417000        1.0080           0
   18200 WT1  6719 TIP3 OH2  OT    -0.834000       15.9994           0
   18201 WT1  6719 TIP3 H1   HT     0.417000        1.0080           0
   18202 WT1  6719 TIP3 H2   HT     0.417000        1.0080           0
   18203 WT1  6720 TIP3 OH2  OT    -0.834000       15.9994           0
   18204 WT1  6720 TIP3 H1   HT     0.417000        1.0080           0
   18205 WT1  6720 TIP3 H2   HT     0.417000        1.0080           0
   18206 WT1  6721 TIP3 OH2  OT    -0.834000       15.9994           0
   18207 WT1  6721 TIP3 H1   HT     0.417000        1.0080           0
   18208 WT1  6721 TIP3 H2   HT     0.417000        1.0080           0
   18209 WT1  6722 TIP3 OH2  OT    -0.834000       15.9994           0
   18210 WT1  6722 TIP3 H1   HT     0.417000        1.0080           0
   18211 WT1  6722 TIP3 H2   HT     0.417000        1.0080           0
   18212 WT1  6723 TIP3 OH2  OT    -0.834000       15.9994           0
   18213 WT1  6723 TIP3 H1   HT     0.417000        1.0080           0
   18214 WT1  6723 TIP3 H2   HT     0.417000        1.0080           0
   18215 WT1  6724 TIP3 OH2  OT    -0.834000       15.9994           0
   18216 WT1  6724 TIP3 H1   HT     0.417000        1.0080           0
   18217 WT1  6724 TIP3 H2   HT     0.417000        1.0080           0
   18218 WT1  6725 TIP3 OH2  OT    -0.834000       15.9994           0
   18219 WT1  6725 TIP3 H1   HT     0.417000        1.0080           0
   18220 WT1  6725 TIP3 H2   HT     0.417000        1.0080           0
   18221 WT1  6726 TIP3 OH2  OT    -0.834000       15.9994           0
   18222 WT1  6726 TIP3 H1   HT     0.417000        1.0080           0
   18223 WT1  6726 TIP3 H2   HT     0.417000        1.0080           0
   18224 WT1  6727 TIP3 OH2  OT    -0.834000       15.9994           0
   18225 WT1  6727 TIP3 H1   HT     0.417000        1.0080           0
   18226 WT1  6727 TIP3 H2   HT     0.417000        1.0080           0
   18227 WT1  6728 TIP3 OH2  OT    -0.834000       15.9994           0
   18228 WT1  6728 TIP3 H1   HT     0.417000        1.0080           0
   18229 WT1  6728 TIP3 H2   HT     0.417000        1.0080           0
   18230 WT1  6729 TIP3 OH2  OT    -0.834000       15.9994           0
   18231 WT1  6729 TIP3 H1   HT     0.417000        1.0080           0
   18232 WT1  6729 TIP3 H2   HT     0.417000        1.0080           0
   18233 WT1  6731 TIP3 OH2  OT    -0.834000       15.9994           0
   18234 WT1  6731 TIP3 H1   HT     0.417000        1.0080           0
   18235 WT1  6731 TIP3 H2   HT     0.417000        1.0080           0
   18236 WT1  6734 TIP3 OH2  OT    -0.834000       15.9994           0
   18237 WT1  6734 TIP3 H1   HT     0.417000        1.0080           0
   18238 WT1  6734 TIP3 H2   HT     0.417000        1.0080           0
   18239 WT1  6735 TIP3 OH2  OT    -0.834000       15.9994           0
   18240 WT1  6735 TIP3 H1   HT     0.417000        1.0080           0
   18241 WT1  6735 TIP3 H2   HT     0.417000        1.0080           0
   18242 WT1  6736 TIP3 OH2  OT    -0.834000       15.9994           0
   18243 WT1  6736 TIP3 H1   HT     0.417000        1.0080           0
   18244 WT1  6736 TIP3 H2   HT     0.417000        1.0080           0
   18245 WT1  6738 TIP3 OH2  OT    -0.834000       15.9994           0
   18246 WT1  6738 TIP3 H1   HT     0.417000        1.0080           0
   18247 WT1  6738 TIP3 H2   HT     0.417000        1.0080           0
   18248 WT1  6739 TIP3 OH2  OT    -0.834000       15.9994           0
   18249 WT1  6739 TIP3 H1   HT     0.417000        1.0080           0
   18250 WT1  6739 TIP3 H2   HT     0.417000        1.0080           0
   18251 WT1  6740 TIP3 OH2  OT    -0.834000       15.9994           0
   18252 WT1  6740 TIP3 H1   HT     0.417000        1.0080           0
   18253 WT1  6740 TIP3 H2   HT     0.417000        1.0080           0
   18254 WT1  6741 TIP3 OH2  OT    -0.834000       15.9994           0
   18255 WT1  6741 TIP3 H1   HT     0.417000        1.0080           0
   18256 WT1  6741 TIP3 H2   HT     0.417000        1.0080           0
   18257 WT1  6742 TIP3 OH2  OT    -0.834000       15.9994           0
   18258 WT1  6742 TIP3 H1   HT     0.417000        1.0080           0
   18259 WT1  6742 TIP3 H2   HT     0.417000        1.0080           0
   18260 WT1  6743 TIP3 OH2  OT    -0.834000       15.9994           0
   18261 WT1  6743 TIP3 H1   HT     0.417000        1.0080           0
   18262 WT1  6743 TIP3 H2   HT     0.417000        1.0080           0
   18263 WT1  6744 TIP3 OH2  OT    -0.834000       15.9994           0
   18264 WT1  6744 TIP3 H1   HT     0.417000        1.0080           0
   18265 WT1  6744 TIP3 H2   HT     0.417000        1.0080           0
   18266 WT1  6746 TIP3 OH2  OT    -0.834000       15.9994           0
   18267 WT1  6746 TIP3 H1   HT     0.417000        1.0080           0
   18268 WT1  6746 TIP3 H2   HT     0.417000        1.0080           0
   18269 WT1  6747 TIP3 OH2  OT    -0.834000       15.9994           0
   18270 WT1  6747 TIP3 H1   HT     0.417000        1.0080           0
   18271 WT1  6747 TIP3 H2   HT     0.417000        1.0080           0
   18272 WT1  6748 TIP3 OH2  OT    -0.834000       15.9994           0
   18273 WT1  6748 TIP3 H1   HT     0.417000        1.0080           0
   18274 WT1  6748 TIP3 H2   HT     0.417000        1.0080           0
   18275 WT1  6749 TIP3 OH2  OT    -0.834000       15.9994           0
   18276 WT1  6749 TIP3 H1   HT     0.417000        1.0080           0
   18277 WT1  6749 TIP3 H2   HT     0.417000        1.0080           0
   18278 WT1  6751 TIP3 OH2  OT    -0.834000       15.9994           0
   18279 WT1  6751 TIP3 H1   HT     0.417000        1.0080           0
   18280 WT1  6751 TIP3 H2   HT     0.417000        1.0080           0
   18281 WT1  6752 TIP3 OH2  OT    -0.834000       15.9994           0
   18282 WT1  6752 TIP3 H1   HT     0.417000        1.0080           0
   18283 WT1  6752 TIP3 H2   HT     0.417000        1.0080           0
   18284 WT1  6754 TIP3 OH2  OT    -0.834000       15.9994           0
   18285 WT1  6754 TIP3 H1   HT     0.417000        1.0080           0
   18286 WT1  6754 TIP3 H2   HT     0.417000        1.0080           0
   18287 WT1  6755 TIP3 OH2  OT    -0.834000       15.9994           0
   18288 WT1  6755 TIP3 H1   HT     0.417000        1.0080           0
   18289 WT1  6755 TIP3 H2   HT     0.417000        1.0080           0
   18290 WT1  6756 TIP3 OH2  OT    -0.834000       15.9994           0
   18291 WT1  6756 TIP3 H1   HT     0.417000        1.0080           0
   18292 WT1  6756 TIP3 H2   HT     0.417000        1.0080           0
   18293 WT1  6757 TIP3 OH2  OT    -0.834000       15.9994           0
   18294 WT1  6757 TIP3 H1   HT     0.417000        1.0080           0
   18295 WT1  6757 TIP3 H2   HT     0.417000        1.0080           0
   18296 WT1  6759 TIP3 OH2  OT    -0.834000       15.9994           0
   18297 WT1  6759 TIP3 H1   HT     0.417000        1.0080           0
   18298 WT1  6759 TIP3 H2   HT     0.417000        1.0080           0
   18299 WT1  6760 TIP3 OH2  OT    -0.834000       15.9994           0
   18300 WT1  6760 TIP3 H1   HT     0.417000        1.0080           0
   18301 WT1  6760 TIP3 H2   HT     0.417000        1.0080           0
   18302 WT1  6761 TIP3 OH2  OT    -0.834000       15.9994           0
   18303 WT1  6761 TIP3 H1   HT     0.417000        1.0080           0
   18304 WT1  6761 TIP3 H2   HT     0.417000        1.0080           0
   18305 WT1  6763 TIP3 OH2  OT    -0.834000       15.9994           0
   18306 WT1  6763 TIP3 H1   HT     0.417000        1.0080           0
   18307 WT1  6763 TIP3 H2   HT     0.417000        1.0080           0
   18308 WT1  6764 TIP3 OH2  OT    -0.834000       15.9994           0
   18309 WT1  6764 TIP3 H1   HT     0.417000        1.0080           0
   18310 WT1  6764 TIP3 H2   HT     0.417000        1.0080           0
   18311 WT1  6765 TIP3 OH2  OT    -0.834000       15.9994           0
   18312 WT1  6765 TIP3 H1   HT     0.417000        1.0080           0
   18313 WT1  6765 TIP3 H2   HT     0.417000        1.0080           0
   18314 WT1  6766 TIP3 OH2  OT    -0.834000       15.9994           0
   18315 WT1  6766 TIP3 H1   HT     0.417000        1.0080           0
   18316 WT1  6766 TIP3 H2   HT     0.417000        1.0080           0
   18317 WT1  6767 TIP3 OH2  OT    -0.834000       15.9994           0
   18318 WT1  6767 TIP3 H1   HT     0.417000        1.0080           0
   18319 WT1  6767 TIP3 H2   HT     0.417000        1.0080           0
   18320 WT1  6768 TIP3 OH2  OT    -0.834000       15.9994           0
   18321 WT1  6768 TIP3 H1   HT     0.417000        1.0080           0
   18322 WT1  6768 TIP3 H2   HT     0.417000        1.0080           0
   18323 WT1  6769 TIP3 OH2  OT    -0.834000       15.9994           0
   18324 WT1  6769 TIP3 H1   HT     0.417000        1.0080           0
   18325 WT1  6769 TIP3 H2   HT     0.417000        1.0080           0
   18326 WT1  6772 TIP3 OH2  OT    -0.834000       15.9994           0
   18327 WT1  6772 TIP3 H1   HT     0.417000        1.0080           0
   18328 WT1  6772 TIP3 H2   HT     0.417000        1.0080           0
   18329 WT1  6775 TIP3 OH2  OT    -0.834000       15.9994           0
   18330 WT1  6775 TIP3 H1   HT     0.417000        1.0080           0
   18331 WT1  6775 TIP3 H2   HT     0.417000        1.0080           0
   18332 WT1  6776 TIP3 OH2  OT    -0.834000       15.9994           0
   18333 WT1  6776 TIP3 H1   HT     0.417000        1.0080           0
   18334 WT1  6776 TIP3 H2   HT     0.417000        1.0080           0
   18335 WT1  6777 TIP3 OH2  OT    -0.834000       15.9994           0
   18336 WT1  6777 TIP3 H1   HT     0.417000        1.0080           0
   18337 WT1  6777 TIP3 H2   HT     0.417000        1.0080           0
   18338 WT1  6778 TIP3 OH2  OT    -0.834000       15.9994           0
   18339 WT1  6778 TIP3 H1   HT     0.417000        1.0080           0
   18340 WT1  6778 TIP3 H2   HT     0.417000        1.0080           0
   18341 WT1  6779 TIP3 OH2  OT    -0.834000       15.9994           0
   18342 WT1  6779 TIP3 H1   HT     0.417000        1.0080           0
   18343 WT1  6779 TIP3 H2   HT     0.417000        1.0080           0
   18344 WT1  6780 TIP3 OH2  OT    -0.834000       15.9994           0
   18345 WT1  6780 TIP3 H1   HT     0.417000        1.0080           0
   18346 WT1  6780 TIP3 H2   HT     0.417000        1.0080           0
   18347 WT1  6781 TIP3 OH2  OT    -0.834000       15.9994           0
   18348 WT1  6781 TIP3 H1   HT     0.417000        1.0080           0
   18349 WT1  6781 TIP3 H2   HT     0.417000        1.0080           0
   18350 WT1  6782 TIP3 OH2  OT    -0.834000       15.9994           0
   18351 WT1  6782 TIP3 H1   HT     0.417000        1.0080           0
   18352 WT1  6782 TIP3 H2   HT     0.417000        1.0080           0
   18353 WT1  6783 TIP3 OH2  OT    -0.834000       15.9994           0
   18354 WT1  6783 TIP3 H1   HT     0.417000        1.0080           0
   18355 WT1  6783 TIP3 H2   HT     0.417000        1.0080           0
   18356 WT1  6784 TIP3 OH2  OT    -0.834000       15.9994           0
   18357 WT1  6784 TIP3 H1   HT     0.417000        1.0080           0
   18358 WT1  6784 TIP3 H2   HT     0.417000        1.0080           0
   18359 WT1  6785 TIP3 OH2  OT    -0.834000       15.9994           0
   18360 WT1  6785 TIP3 H1   HT     0.417000        1.0080           0
   18361 WT1  6785 TIP3 H2   HT     0.417000        1.0080           0
   18362 WT1  6786 TIP3 OH2  OT    -0.834000       15.9994           0
   18363 WT1  6786 TIP3 H1   HT     0.417000        1.0080           0
   18364 WT1  6786 TIP3 H2   HT     0.417000        1.0080           0
   18365 WT1  6787 TIP3 OH2  OT    -0.834000       15.9994           0
   18366 WT1  6787 TIP3 H1   HT     0.417000        1.0080           0
   18367 WT1  6787 TIP3 H2   HT     0.417000        1.0080           0
   18368 WT1  6790 TIP3 OH2  OT    -0.834000       15.9994           0
   18369 WT1  6790 TIP3 H1   HT     0.417000        1.0080           0
   18370 WT1  6790 TIP3 H2   HT     0.417000        1.0080           0
   18371 WT1  6791 TIP3 OH2  OT    -0.834000       15.9994           0
   18372 WT1  6791 TIP3 H1   HT     0.417000        1.0080           0
   18373 WT1  6791 TIP3 H2   HT     0.417000        1.0080           0
   18374 WT1  6792 TIP3 OH2  OT    -0.834000       15.9994           0
   18375 WT1  6792 TIP3 H1   HT     0.417000        1.0080           0
   18376 WT1  6792 TIP3 H2   HT     0.417000        1.0080           0
   18377 WT1  6793 TIP3 OH2  OT    -0.834000       15.9994           0
   18378 WT1  6793 TIP3 H1   HT     0.417000        1.0080           0
   18379 WT1  6793 TIP3 H2   HT     0.417000        1.0080           0
   18380 WT1  6794 TIP3 OH2  OT    -0.834000       15.9994           0
   18381 WT1  6794 TIP3 H1   HT     0.417000        1.0080           0
   18382 WT1  6794 TIP3 H2   HT     0.417000        1.0080           0
   18383 WT1  6795 TIP3 OH2  OT    -0.834000       15.9994           0
   18384 WT1  6795 TIP3 H1   HT     0.417000        1.0080           0
   18385 WT1  6795 TIP3 H2   HT     0.417000        1.0080           0
   18386 WT1  6798 TIP3 OH2  OT    -0.834000       15.9994           0
   18387 WT1  6798 TIP3 H1   HT     0.417000        1.0080           0
   18388 WT1  6798 TIP3 H2   HT     0.417000        1.0080           0
   18389 WT1  6799 TIP3 OH2  OT    -0.834000       15.9994           0
   18390 WT1  6799 TIP3 H1   HT     0.417000        1.0080           0
   18391 WT1  6799 TIP3 H2   HT     0.417000        1.0080           0
   18392 WT1  6801 TIP3 OH2  OT    -0.834000       15.9994           0
   18393 WT1  6801 TIP3 H1   HT     0.417000        1.0080           0
   18394 WT1  6801 TIP3 H2   HT     0.417000        1.0080           0
   18395 WT1  6802 TIP3 OH2  OT    -0.834000       15.9994           0
   18396 WT1  6802 TIP3 H1   HT     0.417000        1.0080           0
   18397 WT1  6802 TIP3 H2   HT     0.417000        1.0080           0
   18398 WT1  6803 TIP3 OH2  OT    -0.834000       15.9994           0
   18399 WT1  6803 TIP3 H1   HT     0.417000        1.0080           0
   18400 WT1  6803 TIP3 H2   HT     0.417000        1.0080           0
   18401 WT1  6804 TIP3 OH2  OT    -0.834000       15.9994           0
   18402 WT1  6804 TIP3 H1   HT     0.417000        1.0080           0
   18403 WT1  6804 TIP3 H2   HT     0.417000        1.0080           0
   18404 WT1  6805 TIP3 OH2  OT    -0.834000       15.9994           0
   18405 WT1  6805 TIP3 H1   HT     0.417000        1.0080           0
   18406 WT1  6805 TIP3 H2   HT     0.417000        1.0080           0
   18407 WT1  6806 TIP3 OH2  OT    -0.834000       15.9994           0
   18408 WT1  6806 TIP3 H1   HT     0.417000        1.0080           0
   18409 WT1  6806 TIP3 H2   HT     0.417000        1.0080           0
   18410 WT1  6807 TIP3 OH2  OT    -0.834000       15.9994           0
   18411 WT1  6807 TIP3 H1   HT     0.417000        1.0080           0
   18412 WT1  6807 TIP3 H2   HT     0.417000        1.0080           0
   18413 WT1  6808 TIP3 OH2  OT    -0.834000       15.9994           0
   18414 WT1  6808 TIP3 H1   HT     0.417000        1.0080           0
   18415 WT1  6808 TIP3 H2   HT     0.417000        1.0080           0
   18416 WT1  6809 TIP3 OH2  OT    -0.834000       15.9994           0
   18417 WT1  6809 TIP3 H1   HT     0.417000        1.0080           0
   18418 WT1  6809 TIP3 H2   HT     0.417000        1.0080           0
   18419 WT1  6811 TIP3 OH2  OT    -0.834000       15.9994           0
   18420 WT1  6811 TIP3 H1   HT     0.417000        1.0080           0
   18421 WT1  6811 TIP3 H2   HT     0.417000        1.0080           0
   18422 WT1  6812 TIP3 OH2  OT    -0.834000       15.9994           0
   18423 WT1  6812 TIP3 H1   HT     0.417000        1.0080           0
   18424 WT1  6812 TIP3 H2   HT     0.417000        1.0080           0
   18425 WT1  6813 TIP3 OH2  OT    -0.834000       15.9994           0
   18426 WT1  6813 TIP3 H1   HT     0.417000        1.0080           0
   18427 WT1  6813 TIP3 H2   HT     0.417000        1.0080           0
   18428 WT1  6814 TIP3 OH2  OT    -0.834000       15.9994           0
   18429 WT1  6814 TIP3 H1   HT     0.417000        1.0080           0
   18430 WT1  6814 TIP3 H2   HT     0.417000        1.0080           0
   18431 WT1  6815 TIP3 OH2  OT    -0.834000       15.9994           0
   18432 WT1  6815 TIP3 H1   HT     0.417000        1.0080           0
   18433 WT1  6815 TIP3 H2   HT     0.417000        1.0080           0
   18434 WT1  6816 TIP3 OH2  OT    -0.834000       15.9994           0
   18435 WT1  6816 TIP3 H1   HT     0.417000        1.0080           0
   18436 WT1  6816 TIP3 H2   HT     0.417000        1.0080           0
   18437 WT1  6817 TIP3 OH2  OT    -0.834000       15.9994           0
   18438 WT1  6817 TIP3 H1   HT     0.417000        1.0080           0
   18439 WT1  6817 TIP3 H2   HT     0.417000        1.0080           0
   18440 WT1  6818 TIP3 OH2  OT    -0.834000       15.9994           0
   18441 WT1  6818 TIP3 H1   HT     0.417000        1.0080           0
   18442 WT1  6818 TIP3 H2   HT     0.417000        1.0080           0
   18443 WT1  6820 TIP3 OH2  OT    -0.834000       15.9994           0
   18444 WT1  6820 TIP3 H1   HT     0.417000        1.0080           0
   18445 WT1  6820 TIP3 H2   HT     0.417000        1.0080           0
   18446 WT1  6822 TIP3 OH2  OT    -0.834000       15.9994           0
   18447 WT1  6822 TIP3 H1   HT     0.417000        1.0080           0
   18448 WT1  6822 TIP3 H2   HT     0.417000        1.0080           0
   18449 WT1  6823 TIP3 OH2  OT    -0.834000       15.9994           0
   18450 WT1  6823 TIP3 H1   HT     0.417000        1.0080           0
   18451 WT1  6823 TIP3 H2   HT     0.417000        1.0080           0
   18452 WT1  6825 TIP3 OH2  OT    -0.834000       15.9994           0
   18453 WT1  6825 TIP3 H1   HT     0.417000        1.0080           0
   18454 WT1  6825 TIP3 H2   HT     0.417000        1.0080           0
   18455 WT1  6827 TIP3 OH2  OT    -0.834000       15.9994           0
   18456 WT1  6827 TIP3 H1   HT     0.417000        1.0080           0
   18457 WT1  6827 TIP3 H2   HT     0.417000        1.0080           0
   18458 WT1  6828 TIP3 OH2  OT    -0.834000       15.9994           0
   18459 WT1  6828 TIP3 H1   HT     0.417000        1.0080           0
   18460 WT1  6828 TIP3 H2   HT     0.417000        1.0080           0
   18461 WT1  6830 TIP3 OH2  OT    -0.834000       15.9994           0
   18462 WT1  6830 TIP3 H1   HT     0.417000        1.0080           0
   18463 WT1  6830 TIP3 H2   HT     0.417000        1.0080           0
   18464 WT1  6831 TIP3 OH2  OT    -0.834000       15.9994           0
   18465 WT1  6831 TIP3 H1   HT     0.417000        1.0080           0
   18466 WT1  6831 TIP3 H2   HT     0.417000        1.0080           0
   18467 WT1  6832 TIP3 OH2  OT    -0.834000       15.9994           0
   18468 WT1  6832 TIP3 H1   HT     0.417000        1.0080           0
   18469 WT1  6832 TIP3 H2   HT     0.417000        1.0080           0
   18470 WT1  6833 TIP3 OH2  OT    -0.834000       15.9994           0
   18471 WT1  6833 TIP3 H1   HT     0.417000        1.0080           0
   18472 WT1  6833 TIP3 H2   HT     0.417000        1.0080           0
   18473 WT1  6836 TIP3 OH2  OT    -0.834000       15.9994           0
   18474 WT1  6836 TIP3 H1   HT     0.417000        1.0080           0
   18475 WT1  6836 TIP3 H2   HT     0.417000        1.0080           0
   18476 WT1  6837 TIP3 OH2  OT    -0.834000       15.9994           0
   18477 WT1  6837 TIP3 H1   HT     0.417000        1.0080           0
   18478 WT1  6837 TIP3 H2   HT     0.417000        1.0080           0
   18479 WT1  6838 TIP3 OH2  OT    -0.834000       15.9994           0
   18480 WT1  6838 TIP3 H1   HT     0.417000        1.0080           0
   18481 WT1  6838 TIP3 H2   HT     0.417000        1.0080           0
   18482 WT1  6839 TIP3 OH2  OT    -0.834000       15.9994           0
   18483 WT1  6839 TIP3 H1   HT     0.417000        1.0080           0
   18484 WT1  6839 TIP3 H2   HT     0.417000        1.0080           0
   18485 WT1  6840 TIP3 OH2  OT    -0.834000       15.9994           0
   18486 WT1  6840 TIP3 H1   HT     0.417000        1.0080           0
   18487 WT1  6840 TIP3 H2   HT     0.417000        1.0080           0
   18488 WT1  6841 TIP3 OH2  OT    -0.834000       15.9994           0
   18489 WT1  6841 TIP3 H1   HT     0.417000        1.0080           0
   18490 WT1  6841 TIP3 H2   HT     0.417000        1.0080           0
   18491 WT1  6843 TIP3 OH2  OT    -0.834000       15.9994           0
   18492 WT1  6843 TIP3 H1   HT     0.417000        1.0080           0
   18493 WT1  6843 TIP3 H2   HT     0.417000        1.0080           0
   18494 WT1  6844 TIP3 OH2  OT    -0.834000       15.9994           0
   18495 WT1  6844 TIP3 H1   HT     0.417000        1.0080           0
   18496 WT1  6844 TIP3 H2   HT     0.417000        1.0080           0
   18497 WT1  6845 TIP3 OH2  OT    -0.834000       15.9994           0
   18498 WT1  6845 TIP3 H1   HT     0.417000        1.0080           0
   18499 WT1  6845 TIP3 H2   HT     0.417000        1.0080           0
   18500 WT1  6846 TIP3 OH2  OT    -0.834000       15.9994           0
   18501 WT1  6846 TIP3 H1   HT     0.417000        1.0080           0
   18502 WT1  6846 TIP3 H2   HT     0.417000        1.0080           0
   18503 WT1  6847 TIP3 OH2  OT    -0.834000       15.9994           0
   18504 WT1  6847 TIP3 H1   HT     0.417000        1.0080           0
   18505 WT1  6847 TIP3 H2   HT     0.417000        1.0080           0
   18506 WT1  6848 TIP3 OH2  OT    -0.834000       15.9994           0
   18507 WT1  6848 TIP3 H1   HT     0.417000        1.0080           0
   18508 WT1  6848 TIP3 H2   HT     0.417000        1.0080           0
   18509 WT1  6849 TIP3 OH2  OT    -0.834000       15.9994           0
   18510 WT1  6849 TIP3 H1   HT     0.417000        1.0080           0
   18511 WT1  6849 TIP3 H2   HT     0.417000        1.0080           0
   18512 WT1  6851 TIP3 OH2  OT    -0.834000       15.9994           0
   18513 WT1  6851 TIP3 H1   HT     0.417000        1.0080           0
   18514 WT1  6851 TIP3 H2   HT     0.417000        1.0080           0
   18515 WT1  6852 TIP3 OH2  OT    -0.834000       15.9994           0
   18516 WT1  6852 TIP3 H1   HT     0.417000        1.0080           0
   18517 WT1  6852 TIP3 H2   HT     0.417000        1.0080           0
   18518 WT1  6853 TIP3 OH2  OT    -0.834000       15.9994           0
   18519 WT1  6853 TIP3 H1   HT     0.417000        1.0080           0
   18520 WT1  6853 TIP3 H2   HT     0.417000        1.0080           0
   18521 WT1  6854 TIP3 OH2  OT    -0.834000       15.9994           0
   18522 WT1  6854 TIP3 H1   HT     0.417000        1.0080           0
   18523 WT1  6854 TIP3 H2   HT     0.417000        1.0080           0
   18524 WT1  6855 TIP3 OH2  OT    -0.834000       15.9994           0
   18525 WT1  6855 TIP3 H1   HT     0.417000        1.0080           0
   18526 WT1  6855 TIP3 H2   HT     0.417000        1.0080           0
   18527 WT1  6856 TIP3 OH2  OT    -0.834000       15.9994           0
   18528 WT1  6856 TIP3 H1   HT     0.417000        1.0080           0
   18529 WT1  6856 TIP3 H2   HT     0.417000        1.0080           0
   18530 WT1  6857 TIP3 OH2  OT    -0.834000       15.9994           0
   18531 WT1  6857 TIP3 H1   HT     0.417000        1.0080           0
   18532 WT1  6857 TIP3 H2   HT     0.417000        1.0080           0
   18533 WT1  6858 TIP3 OH2  OT    -0.834000       15.9994           0
   18534 WT1  6858 TIP3 H1   HT     0.417000        1.0080           0
   18535 WT1  6858 TIP3 H2   HT     0.417000        1.0080           0
   18536 WT1  6860 TIP3 OH2  OT    -0.834000       15.9994           0
   18537 WT1  6860 TIP3 H1   HT     0.417000        1.0080           0
   18538 WT1  6860 TIP3 H2   HT     0.417000        1.0080           0
   18539 WT1  6861 TIP3 OH2  OT    -0.834000       15.9994           0
   18540 WT1  6861 TIP3 H1   HT     0.417000        1.0080           0
   18541 WT1  6861 TIP3 H2   HT     0.417000        1.0080           0
   18542 WT1  6862 TIP3 OH2  OT    -0.834000       15.9994           0
   18543 WT1  6862 TIP3 H1   HT     0.417000        1.0080           0
   18544 WT1  6862 TIP3 H2   HT     0.417000        1.0080           0
   18545 WT1  6864 TIP3 OH2  OT    -0.834000       15.9994           0
   18546 WT1  6864 TIP3 H1   HT     0.417000        1.0080           0
   18547 WT1  6864 TIP3 H2   HT     0.417000        1.0080           0
   18548 WT1  6865 TIP3 OH2  OT    -0.834000       15.9994           0
   18549 WT1  6865 TIP3 H1   HT     0.417000        1.0080           0
   18550 WT1  6865 TIP3 H2   HT     0.417000        1.0080           0
   18551 WT1  6866 TIP3 OH2  OT    -0.834000       15.9994           0
   18552 WT1  6866 TIP3 H1   HT     0.417000        1.0080           0
   18553 WT1  6866 TIP3 H2   HT     0.417000        1.0080           0
   18554 WT1  6867 TIP3 OH2  OT    -0.834000       15.9994           0
   18555 WT1  6867 TIP3 H1   HT     0.417000        1.0080           0
   18556 WT1  6867 TIP3 H2   HT     0.417000        1.0080           0
   18557 WT1  6868 TIP3 OH2  OT    -0.834000       15.9994           0
   18558 WT1  6868 TIP3 H1   HT     0.417000        1.0080           0
   18559 WT1  6868 TIP3 H2   HT     0.417000        1.0080           0
   18560 WT1  6869 TIP3 OH2  OT    -0.834000       15.9994           0
   18561 WT1  6869 TIP3 H1   HT     0.417000        1.0080           0
   18562 WT1  6869 TIP3 H2   HT     0.417000        1.0080           0
   18563 WT1  6870 TIP3 OH2  OT    -0.834000       15.9994           0
   18564 WT1  6870 TIP3 H1   HT     0.417000        1.0080           0
   18565 WT1  6870 TIP3 H2   HT     0.417000        1.0080           0
   18566 WT1  6871 TIP3 OH2  OT    -0.834000       15.9994           0
   18567 WT1  6871 TIP3 H1   HT     0.417000        1.0080           0
   18568 WT1  6871 TIP3 H2   HT     0.417000        1.0080           0
   18569 WT1  6872 TIP3 OH2  OT    -0.834000       15.9994           0
   18570 WT1  6872 TIP3 H1   HT     0.417000        1.0080           0
   18571 WT1  6872 TIP3 H2   HT     0.417000        1.0080           0
   18572 WT1  6873 TIP3 OH2  OT    -0.834000       15.9994           0
   18573 WT1  6873 TIP3 H1   HT     0.417000        1.0080           0
   18574 WT1  6873 TIP3 H2   HT     0.417000        1.0080           0
   18575 WT1  6874 TIP3 OH2  OT    -0.834000       15.9994           0
   18576 WT1  6874 TIP3 H1   HT     0.417000        1.0080           0
   18577 WT1  6874 TIP3 H2   HT     0.417000        1.0080           0
   18578 WT1  6875 TIP3 OH2  OT    -0.834000       15.9994           0
   18579 WT1  6875 TIP3 H1   HT     0.417000        1.0080           0
   18580 WT1  6875 TIP3 H2   HT     0.417000        1.0080           0
   18581 WT1  6876 TIP3 OH2  OT    -0.834000       15.9994           0
   18582 WT1  6876 TIP3 H1   HT     0.417000        1.0080           0
   18583 WT1  6876 TIP3 H2   HT     0.417000        1.0080           0
   18584 WT1  6878 TIP3 OH2  OT    -0.834000       15.9994           0
   18585 WT1  6878 TIP3 H1   HT     0.417000        1.0080           0
   18586 WT1  6878 TIP3 H2   HT     0.417000        1.0080           0
   18587 WT1  6879 TIP3 OH2  OT    -0.834000       15.9994           0
   18588 WT1  6879 TIP3 H1   HT     0.417000        1.0080           0
   18589 WT1  6879 TIP3 H2   HT     0.417000        1.0080           0
   18590 WT1  6880 TIP3 OH2  OT    -0.834000       15.9994           0
   18591 WT1  6880 TIP3 H1   HT     0.417000        1.0080           0
   18592 WT1  6880 TIP3 H2   HT     0.417000        1.0080           0
   18593 WT1  6883 TIP3 OH2  OT    -0.834000       15.9994           0
   18594 WT1  6883 TIP3 H1   HT     0.417000        1.0080           0
   18595 WT1  6883 TIP3 H2   HT     0.417000        1.0080           0
   18596 WT1  6884 TIP3 OH2  OT    -0.834000       15.9994           0
   18597 WT1  6884 TIP3 H1   HT     0.417000        1.0080           0
   18598 WT1  6884 TIP3 H2   HT     0.417000        1.0080           0
   18599 WT1  6885 TIP3 OH2  OT    -0.834000       15.9994           0
   18600 WT1  6885 TIP3 H1   HT     0.417000        1.0080           0
   18601 WT1  6885 TIP3 H2   HT     0.417000        1.0080           0
   18602 WT1  6886 TIP3 OH2  OT    -0.834000       15.9994           0
   18603 WT1  6886 TIP3 H1   HT     0.417000        1.0080           0
   18604 WT1  6886 TIP3 H2   HT     0.417000        1.0080           0
   18605 WT1  6887 TIP3 OH2  OT    -0.834000       15.9994           0
   18606 WT1  6887 TIP3 H1   HT     0.417000        1.0080           0
   18607 WT1  6887 TIP3 H2   HT     0.417000        1.0080           0
   18608 WT1  6888 TIP3 OH2  OT    -0.834000       15.9994           0
   18609 WT1  6888 TIP3 H1   HT     0.417000        1.0080           0
   18610 WT1  6888 TIP3 H2   HT     0.417000        1.0080           0
   18611 WT1  6890 TIP3 OH2  OT    -0.834000       15.9994           0
   18612 WT1  6890 TIP3 H1   HT     0.417000        1.0080           0
   18613 WT1  6890 TIP3 H2   HT     0.417000        1.0080           0
   18614 WT1  6891 TIP3 OH2  OT    -0.834000       15.9994           0
   18615 WT1  6891 TIP3 H1   HT     0.417000        1.0080           0
   18616 WT1  6891 TIP3 H2   HT     0.417000        1.0080           0
   18617 WT1  6892 TIP3 OH2  OT    -0.834000       15.9994           0
   18618 WT1  6892 TIP3 H1   HT     0.417000        1.0080           0
   18619 WT1  6892 TIP3 H2   HT     0.417000        1.0080           0
   18620 WT1  6893 TIP3 OH2  OT    -0.834000       15.9994           0
   18621 WT1  6893 TIP3 H1   HT     0.417000        1.0080           0
   18622 WT1  6893 TIP3 H2   HT     0.417000        1.0080           0
   18623 WT1  6894 TIP3 OH2  OT    -0.834000       15.9994           0
   18624 WT1  6894 TIP3 H1   HT     0.417000        1.0080           0
   18625 WT1  6894 TIP3 H2   HT     0.417000        1.0080           0
   18626 WT1  6895 TIP3 OH2  OT    -0.834000       15.9994           0
   18627 WT1  6895 TIP3 H1   HT     0.417000        1.0080           0
   18628 WT1  6895 TIP3 H2   HT     0.417000        1.0080           0
   18629 WT1  6896 TIP3 OH2  OT    -0.834000       15.9994           0
   18630 WT1  6896 TIP3 H1   HT     0.417000        1.0080           0
   18631 WT1  6896 TIP3 H2   HT     0.417000        1.0080           0
   18632 WT1  6897 TIP3 OH2  OT    -0.834000       15.9994           0
   18633 WT1  6897 TIP3 H1   HT     0.417000        1.0080           0
   18634 WT1  6897 TIP3 H2   HT     0.417000        1.0080           0
   18635 WT1  6899 TIP3 OH2  OT    -0.834000       15.9994           0
   18636 WT1  6899 TIP3 H1   HT     0.417000        1.0080           0
   18637 WT1  6899 TIP3 H2   HT     0.417000        1.0080           0
   18638 WT1  6900 TIP3 OH2  OT    -0.834000       15.9994           0
   18639 WT1  6900 TIP3 H1   HT     0.417000        1.0080           0
   18640 WT1  6900 TIP3 H2   HT     0.417000        1.0080           0
   18641 WT1  6903 TIP3 OH2  OT    -0.834000       15.9994           0
   18642 WT1  6903 TIP3 H1   HT     0.417000        1.0080           0
   18643 WT1  6903 TIP3 H2   HT     0.417000        1.0080           0
   18644 WT1  6904 TIP3 OH2  OT    -0.834000       15.9994           0
   18645 WT1  6904 TIP3 H1   HT     0.417000        1.0080           0
   18646 WT1  6904 TIP3 H2   HT     0.417000        1.0080           0
   18647 WT1  6905 TIP3 OH2  OT    -0.834000       15.9994           0
   18648 WT1  6905 TIP3 H1   HT     0.417000        1.0080           0
   18649 WT1  6905 TIP3 H2   HT     0.417000        1.0080           0
   18650 WT1  6907 TIP3 OH2  OT    -0.834000       15.9994           0
   18651 WT1  6907 TIP3 H1   HT     0.417000        1.0080           0
   18652 WT1  6907 TIP3 H2   HT     0.417000        1.0080           0
   18653 WT1  6908 TIP3 OH2  OT    -0.834000       15.9994           0
   18654 WT1  6908 TIP3 H1   HT     0.417000        1.0080           0
   18655 WT1  6908 TIP3 H2   HT     0.417000        1.0080           0
   18656 WT1  6909 TIP3 OH2  OT    -0.834000       15.9994           0
   18657 WT1  6909 TIP3 H1   HT     0.417000        1.0080           0
   18658 WT1  6909 TIP3 H2   HT     0.417000        1.0080           0
   18659 WT1  6910 TIP3 OH2  OT    -0.834000       15.9994           0
   18660 WT1  6910 TIP3 H1   HT     0.417000        1.0080           0
   18661 WT1  6910 TIP3 H2   HT     0.417000        1.0080           0
   18662 WT1  6911 TIP3 OH2  OT    -0.834000       15.9994           0
   18663 WT1  6911 TIP3 H1   HT     0.417000        1.0080           0
   18664 WT1  6911 TIP3 H2   HT     0.417000        1.0080           0
   18665 WT1  6914 TIP3 OH2  OT    -0.834000       15.9994           0
   18666 WT1  6914 TIP3 H1   HT     0.417000        1.0080           0
   18667 WT1  6914 TIP3 H2   HT     0.417000        1.0080           0
   18668 WT1  6915 TIP3 OH2  OT    -0.834000       15.9994           0
   18669 WT1  6915 TIP3 H1   HT     0.417000        1.0080           0
   18670 WT1  6915 TIP3 H2   HT     0.417000        1.0080           0
   18671 WT1  6918 TIP3 OH2  OT    -0.834000       15.9994           0
   18672 WT1  6918 TIP3 H1   HT     0.417000        1.0080           0
   18673 WT1  6918 TIP3 H2   HT     0.417000        1.0080           0
   18674 WT1  6919 TIP3 OH2  OT    -0.834000       15.9994           0
   18675 WT1  6919 TIP3 H1   HT     0.417000        1.0080           0
   18676 WT1  6919 TIP3 H2   HT     0.417000        1.0080           0
   18677 WT1  6920 TIP3 OH2  OT    -0.834000       15.9994           0
   18678 WT1  6920 TIP3 H1   HT     0.417000        1.0080           0
   18679 WT1  6920 TIP3 H2   HT     0.417000        1.0080           0
   18680 WT1  6921 TIP3 OH2  OT    -0.834000       15.9994           0
   18681 WT1  6921 TIP3 H1   HT     0.417000        1.0080           0
   18682 WT1  6921 TIP3 H2   HT     0.417000        1.0080           0
   18683 WT1  6922 TIP3 OH2  OT    -0.834000       15.9994           0
   18684 WT1  6922 TIP3 H1   HT     0.417000        1.0080           0
   18685 WT1  6922 TIP3 H2   HT     0.417000        1.0080           0
   18686 WT1  6923 TIP3 OH2  OT    -0.834000       15.9994           0
   18687 WT1  6923 TIP3 H1   HT     0.417000        1.0080           0
   18688 WT1  6923 TIP3 H2   HT     0.417000        1.0080           0
   18689 WT1  6924 TIP3 OH2  OT    -0.834000       15.9994           0
   18690 WT1  6924 TIP3 H1   HT     0.417000        1.0080           0
   18691 WT1  6924 TIP3 H2   HT     0.417000        1.0080           0
   18692 WT1  6925 TIP3 OH2  OT    -0.834000       15.9994           0
   18693 WT1  6925 TIP3 H1   HT     0.417000        1.0080           0
   18694 WT1  6925 TIP3 H2   HT     0.417000        1.0080           0
   18695 WT1  6926 TIP3 OH2  OT    -0.834000       15.9994           0
   18696 WT1  6926 TIP3 H1   HT     0.417000        1.0080           0
   18697 WT1  6926 TIP3 H2   HT     0.417000        1.0080           0
   18698 WT1  6927 TIP3 OH2  OT    -0.834000       15.9994           0
   18699 WT1  6927 TIP3 H1   HT     0.417000        1.0080           0
   18700 WT1  6927 TIP3 H2   HT     0.417000        1.0080           0
   18701 WT1  6928 TIP3 OH2  OT    -0.834000       15.9994           0
   18702 WT1  6928 TIP3 H1   HT     0.417000        1.0080           0
   18703 WT1  6928 TIP3 H2   HT     0.417000        1.0080           0
   18704 WT1  6929 TIP3 OH2  OT    -0.834000       15.9994           0
   18705 WT1  6929 TIP3 H1   HT     0.417000        1.0080           0
   18706 WT1  6929 TIP3 H2   HT     0.417000        1.0080           0
   18707 WT1  6930 TIP3 OH2  OT    -0.834000       15.9994           0
   18708 WT1  6930 TIP3 H1   HT     0.417000        1.0080           0
   18709 WT1  6930 TIP3 H2   HT     0.417000        1.0080           0
   18710 WT1  6932 TIP3 OH2  OT    -0.834000       15.9994           0
   18711 WT1  6932 TIP3 H1   HT     0.417000        1.0080           0
   18712 WT1  6932 TIP3 H2   HT     0.417000        1.0080           0
   18713 WT1  6933 TIP3 OH2  OT    -0.834000       15.9994           0
   18714 WT1  6933 TIP3 H1   HT     0.417000        1.0080           0
   18715 WT1  6933 TIP3 H2   HT     0.417000        1.0080           0
   18716 WT1  6934 TIP3 OH2  OT    -0.834000       15.9994           0
   18717 WT1  6934 TIP3 H1   HT     0.417000        1.0080           0
   18718 WT1  6934 TIP3 H2   HT     0.417000        1.0080           0
   18719 WT1  6935 TIP3 OH2  OT    -0.834000       15.9994           0
   18720 WT1  6935 TIP3 H1   HT     0.417000        1.0080           0
   18721 WT1  6935 TIP3 H2   HT     0.417000        1.0080           0
   18722 WT1  6936 TIP3 OH2  OT    -0.834000       15.9994           0
   18723 WT1  6936 TIP3 H1   HT     0.417000        1.0080           0
   18724 WT1  6936 TIP3 H2   HT     0.417000        1.0080           0
   18725 WT1  6937 TIP3 OH2  OT    -0.834000       15.9994           0
   18726 WT1  6937 TIP3 H1   HT     0.417000        1.0080           0
   18727 WT1  6937 TIP3 H2   HT     0.417000        1.0080           0
   18728 WT1  6938 TIP3 OH2  OT    -0.834000       15.9994           0
   18729 WT1  6938 TIP3 H1   HT     0.417000        1.0080           0
   18730 WT1  6938 TIP3 H2   HT     0.417000        1.0080           0
   18731 WT1  6939 TIP3 OH2  OT    -0.834000       15.9994           0
   18732 WT1  6939 TIP3 H1   HT     0.417000        1.0080           0
   18733 WT1  6939 TIP3 H2   HT     0.417000        1.0080           0
   18734 WT1  6940 TIP3 OH2  OT    -0.834000       15.9994           0
   18735 WT1  6940 TIP3 H1   HT     0.417000        1.0080           0
   18736 WT1  6940 TIP3 H2   HT     0.417000        1.0080           0
   18737 WT1  6941 TIP3 OH2  OT    -0.834000       15.9994           0
   18738 WT1  6941 TIP3 H1   HT     0.417000        1.0080           0
   18739 WT1  6941 TIP3 H2   HT     0.417000        1.0080           0
   18740 WT1  6942 TIP3 OH2  OT    -0.834000       15.9994           0
   18741 WT1  6942 TIP3 H1   HT     0.417000        1.0080           0
   18742 WT1  6942 TIP3 H2   HT     0.417000        1.0080           0
   18743 WT1  6943 TIP3 OH2  OT    -0.834000       15.9994           0
   18744 WT1  6943 TIP3 H1   HT     0.417000        1.0080           0
   18745 WT1  6943 TIP3 H2   HT     0.417000        1.0080           0
   18746 WT1  6944 TIP3 OH2  OT    -0.834000       15.9994           0
   18747 WT1  6944 TIP3 H1   HT     0.417000        1.0080           0
   18748 WT1  6944 TIP3 H2   HT     0.417000        1.0080           0
   18749 WT1  6945 TIP3 OH2  OT    -0.834000       15.9994           0
   18750 WT1  6945 TIP3 H1   HT     0.417000        1.0080           0
   18751 WT1  6945 TIP3 H2   HT     0.417000        1.0080           0
   18752 WT1  6946 TIP3 OH2  OT    -0.834000       15.9994           0
   18753 WT1  6946 TIP3 H1   HT     0.417000        1.0080           0
   18754 WT1  6946 TIP3 H2   HT     0.417000        1.0080           0
   18755 WT1  6948 TIP3 OH2  OT    -0.834000       15.9994           0
   18756 WT1  6948 TIP3 H1   HT     0.417000        1.0080           0
   18757 WT1  6948 TIP3 H2   HT     0.417000        1.0080           0
   18758 WT1  6949 TIP3 OH2  OT    -0.834000       15.9994           0
   18759 WT1  6949 TIP3 H1   HT     0.417000        1.0080           0
   18760 WT1  6949 TIP3 H2   HT     0.417000        1.0080           0
   18761 WT1  6950 TIP3 OH2  OT    -0.834000       15.9994           0
   18762 WT1  6950 TIP3 H1   HT     0.417000        1.0080           0
   18763 WT1  6950 TIP3 H2   HT     0.417000        1.0080           0
   18764 WT1  6952 TIP3 OH2  OT    -0.834000       15.9994           0
   18765 WT1  6952 TIP3 H1   HT     0.417000        1.0080           0
   18766 WT1  6952 TIP3 H2   HT     0.417000        1.0080           0
   18767 WT1  6954 TIP3 OH2  OT    -0.834000       15.9994           0
   18768 WT1  6954 TIP3 H1   HT     0.417000        1.0080           0
   18769 WT1  6954 TIP3 H2   HT     0.417000        1.0080           0
   18770 WT1  6955 TIP3 OH2  OT    -0.834000       15.9994           0
   18771 WT1  6955 TIP3 H1   HT     0.417000        1.0080           0
   18772 WT1  6955 TIP3 H2   HT     0.417000        1.0080           0
   18773 WT1  6956 TIP3 OH2  OT    -0.834000       15.9994           0
   18774 WT1  6956 TIP3 H1   HT     0.417000        1.0080           0
   18775 WT1  6956 TIP3 H2   HT     0.417000        1.0080           0
   18776 WT1  6957 TIP3 OH2  OT    -0.834000       15.9994           0
   18777 WT1  6957 TIP3 H1   HT     0.417000        1.0080           0
   18778 WT1  6957 TIP3 H2   HT     0.417000        1.0080           0
   18779 WT1  6958 TIP3 OH2  OT    -0.834000       15.9994           0
   18780 WT1  6958 TIP3 H1   HT     0.417000        1.0080           0
   18781 WT1  6958 TIP3 H2   HT     0.417000        1.0080           0
   18782 WT1  6959 TIP3 OH2  OT    -0.834000       15.9994           0
   18783 WT1  6959 TIP3 H1   HT     0.417000        1.0080           0
   18784 WT1  6959 TIP3 H2   HT     0.417000        1.0080           0
   18785 WT1  6961 TIP3 OH2  OT    -0.834000       15.9994           0
   18786 WT1  6961 TIP3 H1   HT     0.417000        1.0080           0
   18787 WT1  6961 TIP3 H2   HT     0.417000        1.0080           0
   18788 WT1  6963 TIP3 OH2  OT    -0.834000       15.9994           0
   18789 WT1  6963 TIP3 H1   HT     0.417000        1.0080           0
   18790 WT1  6963 TIP3 H2   HT     0.417000        1.0080           0
   18791 WT1  6964 TIP3 OH2  OT    -0.834000       15.9994           0
   18792 WT1  6964 TIP3 H1   HT     0.417000        1.0080           0
   18793 WT1  6964 TIP3 H2   HT     0.417000        1.0080           0
   18794 WT1  6965 TIP3 OH2  OT    -0.834000       15.9994           0
   18795 WT1  6965 TIP3 H1   HT     0.417000        1.0080           0
   18796 WT1  6965 TIP3 H2   HT     0.417000        1.0080           0
   18797 WT1  6969 TIP3 OH2  OT    -0.834000       15.9994           0
   18798 WT1  6969 TIP3 H1   HT     0.417000        1.0080           0
   18799 WT1  6969 TIP3 H2   HT     0.417000        1.0080           0
   18800 WT1  6971 TIP3 OH2  OT    -0.834000       15.9994           0
   18801 WT1  6971 TIP3 H1   HT     0.417000        1.0080           0
   18802 WT1  6971 TIP3 H2   HT     0.417000        1.0080           0
   18803 WT1  6972 TIP3 OH2  OT    -0.834000       15.9994           0
   18804 WT1  6972 TIP3 H1   HT     0.417000        1.0080           0
   18805 WT1  6972 TIP3 H2   HT     0.417000        1.0080           0
   18806 WT1  6973 TIP3 OH2  OT    -0.834000       15.9994           0
   18807 WT1  6973 TIP3 H1   HT     0.417000        1.0080           0
   18808 WT1  6973 TIP3 H2   HT     0.417000        1.0080           0
   18809 WT1  6974 TIP3 OH2  OT    -0.834000       15.9994           0
   18810 WT1  6974 TIP3 H1   HT     0.417000        1.0080           0
   18811 WT1  6974 TIP3 H2   HT     0.417000        1.0080           0
   18812 WT1  6975 TIP3 OH2  OT    -0.834000       15.9994           0
   18813 WT1  6975 TIP3 H1   HT     0.417000        1.0080           0
   18814 WT1  6975 TIP3 H2   HT     0.417000        1.0080           0
   18815 WT1  6976 TIP3 OH2  OT    -0.834000       15.9994           0
   18816 WT1  6976 TIP3 H1   HT     0.417000        1.0080           0
   18817 WT1  6976 TIP3 H2   HT     0.417000        1.0080           0
   18818 WT1  6977 TIP3 OH2  OT    -0.834000       15.9994           0
   18819 WT1  6977 TIP3 H1   HT     0.417000        1.0080           0
   18820 WT1  6977 TIP3 H2   HT     0.417000        1.0080           0
   18821 WT1  6979 TIP3 OH2  OT    -0.834000       15.9994           0
   18822 WT1  6979 TIP3 H1   HT     0.417000        1.0080           0
   18823 WT1  6979 TIP3 H2   HT     0.417000        1.0080           0
   18824 WT1  6980 TIP3 OH2  OT    -0.834000       15.9994           0
   18825 WT1  6980 TIP3 H1   HT     0.417000        1.0080           0
   18826 WT1  6980 TIP3 H2   HT     0.417000        1.0080           0
   18827 WT1  6981 TIP3 OH2  OT    -0.834000       15.9994           0
   18828 WT1  6981 TIP3 H1   HT     0.417000        1.0080           0
   18829 WT1  6981 TIP3 H2   HT     0.417000        1.0080           0
   18830 WT1  6982 TIP3 OH2  OT    -0.834000       15.9994           0
   18831 WT1  6982 TIP3 H1   HT     0.417000        1.0080           0
   18832 WT1  6982 TIP3 H2   HT     0.417000        1.0080           0
   18833 WT1  6983 TIP3 OH2  OT    -0.834000       15.9994           0
   18834 WT1  6983 TIP3 H1   HT     0.417000        1.0080           0
   18835 WT1  6983 TIP3 H2   HT     0.417000        1.0080           0
   18836 WT1  6984 TIP3 OH2  OT    -0.834000       15.9994           0
   18837 WT1  6984 TIP3 H1   HT     0.417000        1.0080           0
   18838 WT1  6984 TIP3 H2   HT     0.417000        1.0080           0
   18839 WT1  6985 TIP3 OH2  OT    -0.834000       15.9994           0
   18840 WT1  6985 TIP3 H1   HT     0.417000        1.0080           0
   18841 WT1  6985 TIP3 H2   HT     0.417000        1.0080           0
   18842 WT1  6986 TIP3 OH2  OT    -0.834000       15.9994           0
   18843 WT1  6986 TIP3 H1   HT     0.417000        1.0080           0
   18844 WT1  6986 TIP3 H2   HT     0.417000        1.0080           0
   18845 WT1  6987 TIP3 OH2  OT    -0.834000       15.9994           0
   18846 WT1  6987 TIP3 H1   HT     0.417000        1.0080           0
   18847 WT1  6987 TIP3 H2   HT     0.417000        1.0080           0
   18848 WT1  6988 TIP3 OH2  OT    -0.834000       15.9994           0
   18849 WT1  6988 TIP3 H1   HT     0.417000        1.0080           0
   18850 WT1  6988 TIP3 H2   HT     0.417000        1.0080           0
   18851 WT1  6989 TIP3 OH2  OT    -0.834000       15.9994           0
   18852 WT1  6989 TIP3 H1   HT     0.417000        1.0080           0
   18853 WT1  6989 TIP3 H2   HT     0.417000        1.0080           0
   18854 WT1  6990 TIP3 OH2  OT    -0.834000       15.9994           0
   18855 WT1  6990 TIP3 H1   HT     0.417000        1.0080           0
   18856 WT1  6990 TIP3 H2   HT     0.417000        1.0080           0
   18857 WT1  6992 TIP3 OH2  OT    -0.834000       15.9994           0
   18858 WT1  6992 TIP3 H1   HT     0.417000        1.0080           0
   18859 WT1  6992 TIP3 H2   HT     0.417000        1.0080           0
   18860 WT1  6993 TIP3 OH2  OT    -0.834000       15.9994           0
   18861 WT1  6993 TIP3 H1   HT     0.417000        1.0080           0
   18862 WT1  6993 TIP3 H2   HT     0.417000        1.0080           0
   18863 WT1  6994 TIP3 OH2  OT    -0.834000       15.9994           0
   18864 WT1  6994 TIP3 H1   HT     0.417000        1.0080           0
   18865 WT1  6994 TIP3 H2   HT     0.417000        1.0080           0
   18866 WT1  6995 TIP3 OH2  OT    -0.834000       15.9994           0
   18867 WT1  6995 TIP3 H1   HT     0.417000        1.0080           0
   18868 WT1  6995 TIP3 H2   HT     0.417000        1.0080           0
   18869 WT1  6996 TIP3 OH2  OT    -0.834000       15.9994           0
   18870 WT1  6996 TIP3 H1   HT     0.417000        1.0080           0
   18871 WT1  6996 TIP3 H2   HT     0.417000        1.0080           0
   18872 WT1  6997 TIP3 OH2  OT    -0.834000       15.9994           0
   18873 WT1  6997 TIP3 H1   HT     0.417000        1.0080           0
   18874 WT1  6997 TIP3 H2   HT     0.417000        1.0080           0
   18875 WT1  6999 TIP3 OH2  OT    -0.834000       15.9994           0
   18876 WT1  6999 TIP3 H1   HT     0.417000        1.0080           0
   18877 WT1  6999 TIP3 H2   HT     0.417000        1.0080           0
   18878 WT1  7000 TIP3 OH2  OT    -0.834000       15.9994           0
   18879 WT1  7000 TIP3 H1   HT     0.417000        1.0080           0
   18880 WT1  7000 TIP3 H2   HT     0.417000        1.0080           0
   18881 WT1  7001 TIP3 OH2  OT    -0.834000       15.9994           0
   18882 WT1  7001 TIP3 H1   HT     0.417000        1.0080           0
   18883 WT1  7001 TIP3 H2   HT     0.417000        1.0080           0
   18884 WT1  7002 TIP3 OH2  OT    -0.834000       15.9994           0
   18885 WT1  7002 TIP3 H1   HT     0.417000        1.0080           0
   18886 WT1  7002 TIP3 H2   HT     0.417000        1.0080           0
   18887 WT1  7003 TIP3 OH2  OT    -0.834000       15.9994           0
   18888 WT1  7003 TIP3 H1   HT     0.417000        1.0080           0
   18889 WT1  7003 TIP3 H2   HT     0.417000        1.0080           0
   18890 WT1  7004 TIP3 OH2  OT    -0.834000       15.9994           0
   18891 WT1  7004 TIP3 H1   HT     0.417000        1.0080           0
   18892 WT1  7004 TIP3 H2   HT     0.417000        1.0080           0
   18893 WT1  7005 TIP3 OH2  OT    -0.834000       15.9994           0
   18894 WT1  7005 TIP3 H1   HT     0.417000        1.0080           0
   18895 WT1  7005 TIP3 H2   HT     0.417000        1.0080           0
   18896 WT1  7006 TIP3 OH2  OT    -0.834000       15.9994           0
   18897 WT1  7006 TIP3 H1   HT     0.417000        1.0080           0
   18898 WT1  7006 TIP3 H2   HT     0.417000        1.0080           0
   18899 WT1  7007 TIP3 OH2  OT    -0.834000       15.9994           0
   18900 WT1  7007 TIP3 H1   HT     0.417000        1.0080           0
   18901 WT1  7007 TIP3 H2   HT     0.417000        1.0080           0
   18902 WT1  7009 TIP3 OH2  OT    -0.834000       15.9994           0
   18903 WT1  7009 TIP3 H1   HT     0.417000        1.0080           0
   18904 WT1  7009 TIP3 H2   HT     0.417000        1.0080           0
   18905 WT1  7010 TIP3 OH2  OT    -0.834000       15.9994           0
   18906 WT1  7010 TIP3 H1   HT     0.417000        1.0080           0
   18907 WT1  7010 TIP3 H2   HT     0.417000        1.0080           0
   18908 WT1  7011 TIP3 OH2  OT    -0.834000       15.9994           0
   18909 WT1  7011 TIP3 H1   HT     0.417000        1.0080           0
   18910 WT1  7011 TIP3 H2   HT     0.417000        1.0080           0
   18911 WT1  7012 TIP3 OH2  OT    -0.834000       15.9994           0
   18912 WT1  7012 TIP3 H1   HT     0.417000        1.0080           0
   18913 WT1  7012 TIP3 H2   HT     0.417000        1.0080           0
   18914 WT1  7013 TIP3 OH2  OT    -0.834000       15.9994           0
   18915 WT1  7013 TIP3 H1   HT     0.417000        1.0080           0
   18916 WT1  7013 TIP3 H2   HT     0.417000        1.0080           0
   18917 WT1  7014 TIP3 OH2  OT    -0.834000       15.9994           0
   18918 WT1  7014 TIP3 H1   HT     0.417000        1.0080           0
   18919 WT1  7014 TIP3 H2   HT     0.417000        1.0080           0
   18920 WT1  7016 TIP3 OH2  OT    -0.834000       15.9994           0
   18921 WT1  7016 TIP3 H1   HT     0.417000        1.0080           0
   18922 WT1  7016 TIP3 H2   HT     0.417000        1.0080           0
   18923 WT1  7018 TIP3 OH2  OT    -0.834000       15.9994           0
   18924 WT1  7018 TIP3 H1   HT     0.417000        1.0080           0
   18925 WT1  7018 TIP3 H2   HT     0.417000        1.0080           0
   18926 WT1  7019 TIP3 OH2  OT    -0.834000       15.9994           0
   18927 WT1  7019 TIP3 H1   HT     0.417000        1.0080           0
   18928 WT1  7019 TIP3 H2   HT     0.417000        1.0080           0
   18929 WT1  7020 TIP3 OH2  OT    -0.834000       15.9994           0
   18930 WT1  7020 TIP3 H1   HT     0.417000        1.0080           0
   18931 WT1  7020 TIP3 H2   HT     0.417000        1.0080           0
   18932 WT1  7021 TIP3 OH2  OT    -0.834000       15.9994           0
   18933 WT1  7021 TIP3 H1   HT     0.417000        1.0080           0
   18934 WT1  7021 TIP3 H2   HT     0.417000        1.0080           0
   18935 WT1  7023 TIP3 OH2  OT    -0.834000       15.9994           0
   18936 WT1  7023 TIP3 H1   HT     0.417000        1.0080           0
   18937 WT1  7023 TIP3 H2   HT     0.417000        1.0080           0
   18938 WT1  7024 TIP3 OH2  OT    -0.834000       15.9994           0
   18939 WT1  7024 TIP3 H1   HT     0.417000        1.0080           0
   18940 WT1  7024 TIP3 H2   HT     0.417000        1.0080           0
   18941 WT1  7025 TIP3 OH2  OT    -0.834000       15.9994           0
   18942 WT1  7025 TIP3 H1   HT     0.417000        1.0080           0
   18943 WT1  7025 TIP3 H2   HT     0.417000        1.0080           0
   18944 WT1  7026 TIP3 OH2  OT    -0.834000       15.9994           0
   18945 WT1  7026 TIP3 H1   HT     0.417000        1.0080           0
   18946 WT1  7026 TIP3 H2   HT     0.417000        1.0080           0
   18947 WT1  7028 TIP3 OH2  OT    -0.834000       15.9994           0
   18948 WT1  7028 TIP3 H1   HT     0.417000        1.0080           0
   18949 WT1  7028 TIP3 H2   HT     0.417000        1.0080           0
   18950 WT1  7029 TIP3 OH2  OT    -0.834000       15.9994           0
   18951 WT1  7029 TIP3 H1   HT     0.417000        1.0080           0
   18952 WT1  7029 TIP3 H2   HT     0.417000        1.0080           0
   18953 WT1  7030 TIP3 OH2  OT    -0.834000       15.9994           0
   18954 WT1  7030 TIP3 H1   HT     0.417000        1.0080           0
   18955 WT1  7030 TIP3 H2   HT     0.417000        1.0080           0
   18956 WT1  7031 TIP3 OH2  OT    -0.834000       15.9994           0
   18957 WT1  7031 TIP3 H1   HT     0.417000        1.0080           0
   18958 WT1  7031 TIP3 H2   HT     0.417000        1.0080           0
   18959 WT1  7032 TIP3 OH2  OT    -0.834000       15.9994           0
   18960 WT1  7032 TIP3 H1   HT     0.417000        1.0080           0
   18961 WT1  7032 TIP3 H2   HT     0.417000        1.0080           0
   18962 WT1  7034 TIP3 OH2  OT    -0.834000       15.9994           0
   18963 WT1  7034 TIP3 H1   HT     0.417000        1.0080           0
   18964 WT1  7034 TIP3 H2   HT     0.417000        1.0080           0
   18965 WT1  7036 TIP3 OH2  OT    -0.834000       15.9994           0
   18966 WT1  7036 TIP3 H1   HT     0.417000        1.0080           0
   18967 WT1  7036 TIP3 H2   HT     0.417000        1.0080           0
   18968 WT1  7037 TIP3 OH2  OT    -0.834000       15.9994           0
   18969 WT1  7037 TIP3 H1   HT     0.417000        1.0080           0
   18970 WT1  7037 TIP3 H2   HT     0.417000        1.0080           0
   18971 WT1  7038 TIP3 OH2  OT    -0.834000       15.9994           0
   18972 WT1  7038 TIP3 H1   HT     0.417000        1.0080           0
   18973 WT1  7038 TIP3 H2   HT     0.417000        1.0080           0
   18974 WT1  7039 TIP3 OH2  OT    -0.834000       15.9994           0
   18975 WT1  7039 TIP3 H1   HT     0.417000        1.0080           0
   18976 WT1  7039 TIP3 H2   HT     0.417000        1.0080           0
   18977 WT1  7040 TIP3 OH2  OT    -0.834000       15.9994           0
   18978 WT1  7040 TIP3 H1   HT     0.417000        1.0080           0
   18979 WT1  7040 TIP3 H2   HT     0.417000        1.0080           0
   18980 WT1  7042 TIP3 OH2  OT    -0.834000       15.9994           0
   18981 WT1  7042 TIP3 H1   HT     0.417000        1.0080           0
   18982 WT1  7042 TIP3 H2   HT     0.417000        1.0080           0
   18983 WT1  7043 TIP3 OH2  OT    -0.834000       15.9994           0
   18984 WT1  7043 TIP3 H1   HT     0.417000        1.0080           0
   18985 WT1  7043 TIP3 H2   HT     0.417000        1.0080           0
   18986 WT1  7044 TIP3 OH2  OT    -0.834000       15.9994           0
   18987 WT1  7044 TIP3 H1   HT     0.417000        1.0080           0
   18988 WT1  7044 TIP3 H2   HT     0.417000        1.0080           0
   18989 WT1  7045 TIP3 OH2  OT    -0.834000       15.9994           0
   18990 WT1  7045 TIP3 H1   HT     0.417000        1.0080           0
   18991 WT1  7045 TIP3 H2   HT     0.417000        1.0080           0
   18992 WT1  7046 TIP3 OH2  OT    -0.834000       15.9994           0
   18993 WT1  7046 TIP3 H1   HT     0.417000        1.0080           0
   18994 WT1  7046 TIP3 H2   HT     0.417000        1.0080           0
   18995 WT1  7048 TIP3 OH2  OT    -0.834000       15.9994           0
   18996 WT1  7048 TIP3 H1   HT     0.417000        1.0080           0
   18997 WT1  7048 TIP3 H2   HT     0.417000        1.0080           0
   18998 WT1  7049 TIP3 OH2  OT    -0.834000       15.9994           0
   18999 WT1  7049 TIP3 H1   HT     0.417000        1.0080           0
   19000 WT1  7049 TIP3 H2   HT     0.417000        1.0080           0
   19001 WT1  7050 TIP3 OH2  OT    -0.834000       15.9994           0
   19002 WT1  7050 TIP3 H1   HT     0.417000        1.0080           0
   19003 WT1  7050 TIP3 H2   HT     0.417000        1.0080           0
   19004 WT1  7051 TIP3 OH2  OT    -0.834000       15.9994           0
   19005 WT1  7051 TIP3 H1   HT     0.417000        1.0080           0
   19006 WT1  7051 TIP3 H2   HT     0.417000        1.0080           0
   19007 WT1  7052 TIP3 OH2  OT    -0.834000       15.9994           0
   19008 WT1  7052 TIP3 H1   HT     0.417000        1.0080           0
   19009 WT1  7052 TIP3 H2   HT     0.417000        1.0080           0
   19010 WT1  7054 TIP3 OH2  OT    -0.834000       15.9994           0
   19011 WT1  7054 TIP3 H1   HT     0.417000        1.0080           0
   19012 WT1  7054 TIP3 H2   HT     0.417000        1.0080           0
   19013 WT1  7055 TIP3 OH2  OT    -0.834000       15.9994           0
   19014 WT1  7055 TIP3 H1   HT     0.417000        1.0080           0
   19015 WT1  7055 TIP3 H2   HT     0.417000        1.0080           0
   19016 WT1  7056 TIP3 OH2  OT    -0.834000       15.9994           0
   19017 WT1  7056 TIP3 H1   HT     0.417000        1.0080           0
   19018 WT1  7056 TIP3 H2   HT     0.417000        1.0080           0
   19019 WT1  7057 TIP3 OH2  OT    -0.834000       15.9994           0
   19020 WT1  7057 TIP3 H1   HT     0.417000        1.0080           0
   19021 WT1  7057 TIP3 H2   HT     0.417000        1.0080           0
   19022 WT1  7058 TIP3 OH2  OT    -0.834000       15.9994           0
   19023 WT1  7058 TIP3 H1   HT     0.417000        1.0080           0
   19024 WT1  7058 TIP3 H2   HT     0.417000        1.0080           0
   19025 WT1  7059 TIP3 OH2  OT    -0.834000       15.9994           0
   19026 WT1  7059 TIP3 H1   HT     0.417000        1.0080           0
   19027 WT1  7059 TIP3 H2   HT     0.417000        1.0080           0
   19028 WT1  7060 TIP3 OH2  OT    -0.834000       15.9994           0
   19029 WT1  7060 TIP3 H1   HT     0.417000        1.0080           0
   19030 WT1  7060 TIP3 H2   HT     0.417000        1.0080           0
   19031 WT1  7061 TIP3 OH2  OT    -0.834000       15.9994           0
   19032 WT1  7061 TIP3 H1   HT     0.417000        1.0080           0
   19033 WT1  7061 TIP3 H2   HT     0.417000        1.0080           0
   19034 WT1  7062 TIP3 OH2  OT    -0.834000       15.9994           0
   19035 WT1  7062 TIP3 H1   HT     0.417000        1.0080           0
   19036 WT1  7062 TIP3 H2   HT     0.417000        1.0080           0
   19037 WT1  7063 TIP3 OH2  OT    -0.834000       15.9994           0
   19038 WT1  7063 TIP3 H1   HT     0.417000        1.0080           0
   19039 WT1  7063 TIP3 H2   HT     0.417000        1.0080           0
   19040 WT1  7064 TIP3 OH2  OT    -0.834000       15.9994           0
   19041 WT1  7064 TIP3 H1   HT     0.417000        1.0080           0
   19042 WT1  7064 TIP3 H2   HT     0.417000        1.0080           0
   19043 WT1  7066 TIP3 OH2  OT    -0.834000       15.9994           0
   19044 WT1  7066 TIP3 H1   HT     0.417000        1.0080           0
   19045 WT1  7066 TIP3 H2   HT     0.417000        1.0080           0
   19046 WT1  7067 TIP3 OH2  OT    -0.834000       15.9994           0
   19047 WT1  7067 TIP3 H1   HT     0.417000        1.0080           0
   19048 WT1  7067 TIP3 H2   HT     0.417000        1.0080           0
   19049 WT1  7068 TIP3 OH2  OT    -0.834000       15.9994           0
   19050 WT1  7068 TIP3 H1   HT     0.417000        1.0080           0
   19051 WT1  7068 TIP3 H2   HT     0.417000        1.0080           0
   19052 WT1  7069 TIP3 OH2  OT    -0.834000       15.9994           0
   19053 WT1  7069 TIP3 H1   HT     0.417000        1.0080           0
   19054 WT1  7069 TIP3 H2   HT     0.417000        1.0080           0
   19055 WT1  7071 TIP3 OH2  OT    -0.834000       15.9994           0
   19056 WT1  7071 TIP3 H1   HT     0.417000        1.0080           0
   19057 WT1  7071 TIP3 H2   HT     0.417000        1.0080           0
   19058 WT1  7072 TIP3 OH2  OT    -0.834000       15.9994           0
   19059 WT1  7072 TIP3 H1   HT     0.417000        1.0080           0
   19060 WT1  7072 TIP3 H2   HT     0.417000        1.0080           0
   19061 WT1  7073 TIP3 OH2  OT    -0.834000       15.9994           0
   19062 WT1  7073 TIP3 H1   HT     0.417000        1.0080           0
   19063 WT1  7073 TIP3 H2   HT     0.417000        1.0080           0
   19064 WT1  7074 TIP3 OH2  OT    -0.834000       15.9994           0
   19065 WT1  7074 TIP3 H1   HT     0.417000        1.0080           0
   19066 WT1  7074 TIP3 H2   HT     0.417000        1.0080           0
   19067 WT1  7075 TIP3 OH2  OT    -0.834000       15.9994           0
   19068 WT1  7075 TIP3 H1   HT     0.417000        1.0080           0
   19069 WT1  7075 TIP3 H2   HT     0.417000        1.0080           0
   19070 WT1  7076 TIP3 OH2  OT    -0.834000       15.9994           0
   19071 WT1  7076 TIP3 H1   HT     0.417000        1.0080           0
   19072 WT1  7076 TIP3 H2   HT     0.417000        1.0080           0
   19073 WT1  7077 TIP3 OH2  OT    -0.834000       15.9994           0
   19074 WT1  7077 TIP3 H1   HT     0.417000        1.0080           0
   19075 WT1  7077 TIP3 H2   HT     0.417000        1.0080           0
   19076 WT1  7078 TIP3 OH2  OT    -0.834000       15.9994           0
   19077 WT1  7078 TIP3 H1   HT     0.417000        1.0080           0
   19078 WT1  7078 TIP3 H2   HT     0.417000        1.0080           0
   19079 WT1  7079 TIP3 OH2  OT    -0.834000       15.9994           0
   19080 WT1  7079 TIP3 H1   HT     0.417000        1.0080           0
   19081 WT1  7079 TIP3 H2   HT     0.417000        1.0080           0
   19082 WT1  7080 TIP3 OH2  OT    -0.834000       15.9994           0
   19083 WT1  7080 TIP3 H1   HT     0.417000        1.0080           0
   19084 WT1  7080 TIP3 H2   HT     0.417000        1.0080           0
   19085 WT1  7082 TIP3 OH2  OT    -0.834000       15.9994           0
   19086 WT1  7082 TIP3 H1   HT     0.417000        1.0080           0
   19087 WT1  7082 TIP3 H2   HT     0.417000        1.0080           0
   19088 WT1  7083 TIP3 OH2  OT    -0.834000       15.9994           0
   19089 WT1  7083 TIP3 H1   HT     0.417000        1.0080           0
   19090 WT1  7083 TIP3 H2   HT     0.417000        1.0080           0
   19091 WT1  7084 TIP3 OH2  OT    -0.834000       15.9994           0
   19092 WT1  7084 TIP3 H1   HT     0.417000        1.0080           0
   19093 WT1  7084 TIP3 H2   HT     0.417000        1.0080           0
   19094 WT1  7085 TIP3 OH2  OT    -0.834000       15.9994           0
   19095 WT1  7085 TIP3 H1   HT     0.417000        1.0080           0
   19096 WT1  7085 TIP3 H2   HT     0.417000        1.0080           0
   19097 WT1  7086 TIP3 OH2  OT    -0.834000       15.9994           0
   19098 WT1  7086 TIP3 H1   HT     0.417000        1.0080           0
   19099 WT1  7086 TIP3 H2   HT     0.417000        1.0080           0
   19100 WT1  7087 TIP3 OH2  OT    -0.834000       15.9994           0
   19101 WT1  7087 TIP3 H1   HT     0.417000        1.0080           0
   19102 WT1  7087 TIP3 H2   HT     0.417000        1.0080           0
   19103 WT1  7088 TIP3 OH2  OT    -0.834000       15.9994           0
   19104 WT1  7088 TIP3 H1   HT     0.417000        1.0080           0
   19105 WT1  7088 TIP3 H2   HT     0.417000        1.0080           0
   19106 WT1  7089 TIP3 OH2  OT    -0.834000       15.9994           0
   19107 WT1  7089 TIP3 H1   HT     0.417000        1.0080           0
   19108 WT1  7089 TIP3 H2   HT     0.417000        1.0080           0
   19109 WT1  7090 TIP3 OH2  OT    -0.834000       15.9994           0
   19110 WT1  7090 TIP3 H1   HT     0.417000        1.0080           0
   19111 WT1  7090 TIP3 H2   HT     0.417000        1.0080           0
   19112 WT1  7091 TIP3 OH2  OT    -0.834000       15.9994           0
   19113 WT1  7091 TIP3 H1   HT     0.417000        1.0080           0
   19114 WT1  7091 TIP3 H2   HT     0.417000        1.0080           0
   19115 WT1  7092 TIP3 OH2  OT    -0.834000       15.9994           0
   19116 WT1  7092 TIP3 H1   HT     0.417000        1.0080           0
   19117 WT1  7092 TIP3 H2   HT     0.417000        1.0080           0
   19118 WT1  7093 TIP3 OH2  OT    -0.834000       15.9994           0
   19119 WT1  7093 TIP3 H1   HT     0.417000        1.0080           0
   19120 WT1  7093 TIP3 H2   HT     0.417000        1.0080           0
   19121 WT1  7094 TIP3 OH2  OT    -0.834000       15.9994           0
   19122 WT1  7094 TIP3 H1   HT     0.417000        1.0080           0
   19123 WT1  7094 TIP3 H2   HT     0.417000        1.0080           0
   19124 WT1  7095 TIP3 OH2  OT    -0.834000       15.9994           0
   19125 WT1  7095 TIP3 H1   HT     0.417000        1.0080           0
   19126 WT1  7095 TIP3 H2   HT     0.417000        1.0080           0
   19127 WT1  7096 TIP3 OH2  OT    -0.834000       15.9994           0
   19128 WT1  7096 TIP3 H1   HT     0.417000        1.0080           0
   19129 WT1  7096 TIP3 H2   HT     0.417000        1.0080           0
   19130 WT1  7098 TIP3 OH2  OT    -0.834000       15.9994           0
   19131 WT1  7098 TIP3 H1   HT     0.417000        1.0080           0
   19132 WT1  7098 TIP3 H2   HT     0.417000        1.0080           0
   19133 WT1  7099 TIP3 OH2  OT    -0.834000       15.9994           0
   19134 WT1  7099 TIP3 H1   HT     0.417000        1.0080           0
   19135 WT1  7099 TIP3 H2   HT     0.417000        1.0080           0
   19136 WT1  7101 TIP3 OH2  OT    -0.834000       15.9994           0
   19137 WT1  7101 TIP3 H1   HT     0.417000        1.0080           0
   19138 WT1  7101 TIP3 H2   HT     0.417000        1.0080           0
   19139 WT1  7102 TIP3 OH2  OT    -0.834000       15.9994           0
   19140 WT1  7102 TIP3 H1   HT     0.417000        1.0080           0
   19141 WT1  7102 TIP3 H2   HT     0.417000        1.0080           0
   19142 WT1  7103 TIP3 OH2  OT    -0.834000       15.9994           0
   19143 WT1  7103 TIP3 H1   HT     0.417000        1.0080           0
   19144 WT1  7103 TIP3 H2   HT     0.417000        1.0080           0
   19145 WT1  7105 TIP3 OH2  OT    -0.834000       15.9994           0
   19146 WT1  7105 TIP3 H1   HT     0.417000        1.0080           0
   19147 WT1  7105 TIP3 H2   HT     0.417000        1.0080           0
   19148 WT1  7107 TIP3 OH2  OT    -0.834000       15.9994           0
   19149 WT1  7107 TIP3 H1   HT     0.417000        1.0080           0
   19150 WT1  7107 TIP3 H2   HT     0.417000        1.0080           0
   19151 WT1  7108 TIP3 OH2  OT    -0.834000       15.9994           0
   19152 WT1  7108 TIP3 H1   HT     0.417000        1.0080           0
   19153 WT1  7108 TIP3 H2   HT     0.417000        1.0080           0
   19154 WT1  7109 TIP3 OH2  OT    -0.834000       15.9994           0
   19155 WT1  7109 TIP3 H1   HT     0.417000        1.0080           0
   19156 WT1  7109 TIP3 H2   HT     0.417000        1.0080           0
   19157 WT1  7110 TIP3 OH2  OT    -0.834000       15.9994           0
   19158 WT1  7110 TIP3 H1   HT     0.417000        1.0080           0
   19159 WT1  7110 TIP3 H2   HT     0.417000        1.0080           0
   19160 WT1  7111 TIP3 OH2  OT    -0.834000       15.9994           0
   19161 WT1  7111 TIP3 H1   HT     0.417000        1.0080           0
   19162 WT1  7111 TIP3 H2   HT     0.417000        1.0080           0
   19163 WT1  7113 TIP3 OH2  OT    -0.834000       15.9994           0
   19164 WT1  7113 TIP3 H1   HT     0.417000        1.0080           0
   19165 WT1  7113 TIP3 H2   HT     0.417000        1.0080           0
   19166 WT1  7114 TIP3 OH2  OT    -0.834000       15.9994           0
   19167 WT1  7114 TIP3 H1   HT     0.417000        1.0080           0
   19168 WT1  7114 TIP3 H2   HT     0.417000        1.0080           0
   19169 WT1  7115 TIP3 OH2  OT    -0.834000       15.9994           0
   19170 WT1  7115 TIP3 H1   HT     0.417000        1.0080           0
   19171 WT1  7115 TIP3 H2   HT     0.417000        1.0080           0
   19172 WT1  7116 TIP3 OH2  OT    -0.834000       15.9994           0
   19173 WT1  7116 TIP3 H1   HT     0.417000        1.0080           0
   19174 WT1  7116 TIP3 H2   HT     0.417000        1.0080           0
   19175 WT1  7118 TIP3 OH2  OT    -0.834000       15.9994           0
   19176 WT1  7118 TIP3 H1   HT     0.417000        1.0080           0
   19177 WT1  7118 TIP3 H2   HT     0.417000        1.0080           0
   19178 WT1  7119 TIP3 OH2  OT    -0.834000       15.9994           0
   19179 WT1  7119 TIP3 H1   HT     0.417000        1.0080           0
   19180 WT1  7119 TIP3 H2   HT     0.417000        1.0080           0
   19181 WT1  7120 TIP3 OH2  OT    -0.834000       15.9994           0
   19182 WT1  7120 TIP3 H1   HT     0.417000        1.0080           0
   19183 WT1  7120 TIP3 H2   HT     0.417000        1.0080           0
   19184 WT1  7121 TIP3 OH2  OT    -0.834000       15.9994           0
   19185 WT1  7121 TIP3 H1   HT     0.417000        1.0080           0
   19186 WT1  7121 TIP3 H2   HT     0.417000        1.0080           0
   19187 WT1  7122 TIP3 OH2  OT    -0.834000       15.9994           0
   19188 WT1  7122 TIP3 H1   HT     0.417000        1.0080           0
   19189 WT1  7122 TIP3 H2   HT     0.417000        1.0080           0
   19190 WT1  7123 TIP3 OH2  OT    -0.834000       15.9994           0
   19191 WT1  7123 TIP3 H1   HT     0.417000        1.0080           0
   19192 WT1  7123 TIP3 H2   HT     0.417000        1.0080           0
   19193 WT1  7124 TIP3 OH2  OT    -0.834000       15.9994           0
   19194 WT1  7124 TIP3 H1   HT     0.417000        1.0080           0
   19195 WT1  7124 TIP3 H2   HT     0.417000        1.0080           0
   19196 WT1  7125 TIP3 OH2  OT    -0.834000       15.9994           0
   19197 WT1  7125 TIP3 H1   HT     0.417000        1.0080           0
   19198 WT1  7125 TIP3 H2   HT     0.417000        1.0080           0
   19199 WT1  7126 TIP3 OH2  OT    -0.834000       15.9994           0
   19200 WT1  7126 TIP3 H1   HT     0.417000        1.0080           0
   19201 WT1  7126 TIP3 H2   HT     0.417000        1.0080           0
   19202 WT1  7127 TIP3 OH2  OT    -0.834000       15.9994           0
   19203 WT1  7127 TIP3 H1   HT     0.417000        1.0080           0
   19204 WT1  7127 TIP3 H2   HT     0.417000        1.0080           0
   19205 WT1  7128 TIP3 OH2  OT    -0.834000       15.9994           0
   19206 WT1  7128 TIP3 H1   HT     0.417000        1.0080           0
   19207 WT1  7128 TIP3 H2   HT     0.417000        1.0080           0
   19208 WT1  7129 TIP3 OH2  OT    -0.834000       15.9994           0
   19209 WT1  7129 TIP3 H1   HT     0.417000        1.0080           0
   19210 WT1  7129 TIP3 H2   HT     0.417000        1.0080           0
   19211 WT1  7130 TIP3 OH2  OT    -0.834000       15.9994           0
   19212 WT1  7130 TIP3 H1   HT     0.417000        1.0080           0
   19213 WT1  7130 TIP3 H2   HT     0.417000        1.0080           0
   19214 WT1  7131 TIP3 OH2  OT    -0.834000       15.9994           0
   19215 WT1  7131 TIP3 H1   HT     0.417000        1.0080           0
   19216 WT1  7131 TIP3 H2   HT     0.417000        1.0080           0
   19217 WT1  7132 TIP3 OH2  OT    -0.834000       15.9994           0
   19218 WT1  7132 TIP3 H1   HT     0.417000        1.0080           0
   19219 WT1  7132 TIP3 H2   HT     0.417000        1.0080           0
   19220 WT1  7133 TIP3 OH2  OT    -0.834000       15.9994           0
   19221 WT1  7133 TIP3 H1   HT     0.417000        1.0080           0
   19222 WT1  7133 TIP3 H2   HT     0.417000        1.0080           0
   19223 WT1  7134 TIP3 OH2  OT    -0.834000       15.9994           0
   19224 WT1  7134 TIP3 H1   HT     0.417000        1.0080           0
   19225 WT1  7134 TIP3 H2   HT     0.417000        1.0080           0
   19226 WT1  7135 TIP3 OH2  OT    -0.834000       15.9994           0
   19227 WT1  7135 TIP3 H1   HT     0.417000        1.0080           0
   19228 WT1  7135 TIP3 H2   HT     0.417000        1.0080           0
   19229 WT1  7136 TIP3 OH2  OT    -0.834000       15.9994           0
   19230 WT1  7136 TIP3 H1   HT     0.417000        1.0080           0
   19231 WT1  7136 TIP3 H2   HT     0.417000        1.0080           0
   19232 WT1  7138 TIP3 OH2  OT    -0.834000       15.9994           0
   19233 WT1  7138 TIP3 H1   HT     0.417000        1.0080           0
   19234 WT1  7138 TIP3 H2   HT     0.417000        1.0080           0
   19235 WT1  7139 TIP3 OH2  OT    -0.834000       15.9994           0
   19236 WT1  7139 TIP3 H1   HT     0.417000        1.0080           0
   19237 WT1  7139 TIP3 H2   HT     0.417000        1.0080           0
   19238 WT1  7142 TIP3 OH2  OT    -0.834000       15.9994           0
   19239 WT1  7142 TIP3 H1   HT     0.417000        1.0080           0
   19240 WT1  7142 TIP3 H2   HT     0.417000        1.0080           0
   19241 WT1  7143 TIP3 OH2  OT    -0.834000       15.9994           0
   19242 WT1  7143 TIP3 H1   HT     0.417000        1.0080           0
   19243 WT1  7143 TIP3 H2   HT     0.417000        1.0080           0
   19244 WT1  7144 TIP3 OH2  OT    -0.834000       15.9994           0
   19245 WT1  7144 TIP3 H1   HT     0.417000        1.0080           0
   19246 WT1  7144 TIP3 H2   HT     0.417000        1.0080           0
   19247 WT1  7145 TIP3 OH2  OT    -0.834000       15.9994           0
   19248 WT1  7145 TIP3 H1   HT     0.417000        1.0080           0
   19249 WT1  7145 TIP3 H2   HT     0.417000        1.0080           0
   19250 WT1  7146 TIP3 OH2  OT    -0.834000       15.9994           0
   19251 WT1  7146 TIP3 H1   HT     0.417000        1.0080           0
   19252 WT1  7146 TIP3 H2   HT     0.417000        1.0080           0
   19253 WT1  7148 TIP3 OH2  OT    -0.834000       15.9994           0
   19254 WT1  7148 TIP3 H1   HT     0.417000        1.0080           0
   19255 WT1  7148 TIP3 H2   HT     0.417000        1.0080           0
   19256 WT1  7149 TIP3 OH2  OT    -0.834000       15.9994           0
   19257 WT1  7149 TIP3 H1   HT     0.417000        1.0080           0
   19258 WT1  7149 TIP3 H2   HT     0.417000        1.0080           0
   19259 WT1  7150 TIP3 OH2  OT    -0.834000       15.9994           0
   19260 WT1  7150 TIP3 H1   HT     0.417000        1.0080           0
   19261 WT1  7150 TIP3 H2   HT     0.417000        1.0080           0
   19262 WT1  7151 TIP3 OH2  OT    -0.834000       15.9994           0
   19263 WT1  7151 TIP3 H1   HT     0.417000        1.0080           0
   19264 WT1  7151 TIP3 H2   HT     0.417000        1.0080           0
   19265 WT1  7152 TIP3 OH2  OT    -0.834000       15.9994           0
   19266 WT1  7152 TIP3 H1   HT     0.417000        1.0080           0
   19267 WT1  7152 TIP3 H2   HT     0.417000        1.0080           0
   19268 WT1  7153 TIP3 OH2  OT    -0.834000       15.9994           0
   19269 WT1  7153 TIP3 H1   HT     0.417000        1.0080           0
   19270 WT1  7153 TIP3 H2   HT     0.417000        1.0080           0
   19271 WT1  7154 TIP3 OH2  OT    -0.834000       15.9994           0
   19272 WT1  7154 TIP3 H1   HT     0.417000        1.0080           0
   19273 WT1  7154 TIP3 H2   HT     0.417000        1.0080           0
   19274 WT1  7155 TIP3 OH2  OT    -0.834000       15.9994           0
   19275 WT1  7155 TIP3 H1   HT     0.417000        1.0080           0
   19276 WT1  7155 TIP3 H2   HT     0.417000        1.0080           0
   19277 WT1  7156 TIP3 OH2  OT    -0.834000       15.9994           0
   19278 WT1  7156 TIP3 H1   HT     0.417000        1.0080           0
   19279 WT1  7156 TIP3 H2   HT     0.417000        1.0080           0
   19280 WT1  7157 TIP3 OH2  OT    -0.834000       15.9994           0
   19281 WT1  7157 TIP3 H1   HT     0.417000        1.0080           0
   19282 WT1  7157 TIP3 H2   HT     0.417000        1.0080           0
   19283 WT1  7158 TIP3 OH2  OT    -0.834000       15.9994           0
   19284 WT1  7158 TIP3 H1   HT     0.417000        1.0080           0
   19285 WT1  7158 TIP3 H2   HT     0.417000        1.0080           0
   19286 WT1  7159 TIP3 OH2  OT    -0.834000       15.9994           0
   19287 WT1  7159 TIP3 H1   HT     0.417000        1.0080           0
   19288 WT1  7159 TIP3 H2   HT     0.417000        1.0080           0
   19289 WT1  7160 TIP3 OH2  OT    -0.834000       15.9994           0
   19290 WT1  7160 TIP3 H1   HT     0.417000        1.0080           0
   19291 WT1  7160 TIP3 H2   HT     0.417000        1.0080           0
   19292 WT1  7161 TIP3 OH2  OT    -0.834000       15.9994           0
   19293 WT1  7161 TIP3 H1   HT     0.417000        1.0080           0
   19294 WT1  7161 TIP3 H2   HT     0.417000        1.0080           0
   19295 WT1  7162 TIP3 OH2  OT    -0.834000       15.9994           0
   19296 WT1  7162 TIP3 H1   HT     0.417000        1.0080           0
   19297 WT1  7162 TIP3 H2   HT     0.417000        1.0080           0
   19298 WT1  7163 TIP3 OH2  OT    -0.834000       15.9994           0
   19299 WT1  7163 TIP3 H1   HT     0.417000        1.0080           0
   19300 WT1  7163 TIP3 H2   HT     0.417000        1.0080           0
   19301 WT1  7164 TIP3 OH2  OT    -0.834000       15.9994           0
   19302 WT1  7164 TIP3 H1   HT     0.417000        1.0080           0
   19303 WT1  7164 TIP3 H2   HT     0.417000        1.0080           0
   19304 WT1  7165 TIP3 OH2  OT    -0.834000       15.9994           0
   19305 WT1  7165 TIP3 H1   HT     0.417000        1.0080           0
   19306 WT1  7165 TIP3 H2   HT     0.417000        1.0080           0
   19307 WT1  7166 TIP3 OH2  OT    -0.834000       15.9994           0
   19308 WT1  7166 TIP3 H1   HT     0.417000        1.0080           0
   19309 WT1  7166 TIP3 H2   HT     0.417000        1.0080           0
   19310 WT1  7167 TIP3 OH2  OT    -0.834000       15.9994           0
   19311 WT1  7167 TIP3 H1   HT     0.417000        1.0080           0
   19312 WT1  7167 TIP3 H2   HT     0.417000        1.0080           0
   19313 WT1  7168 TIP3 OH2  OT    -0.834000       15.9994           0
   19314 WT1  7168 TIP3 H1   HT     0.417000        1.0080           0
   19315 WT1  7168 TIP3 H2   HT     0.417000        1.0080           0
   19316 WT1  7169 TIP3 OH2  OT    -0.834000       15.9994           0
   19317 WT1  7169 TIP3 H1   HT     0.417000        1.0080           0
   19318 WT1  7169 TIP3 H2   HT     0.417000        1.0080           0
   19319 WT1  7170 TIP3 OH2  OT    -0.834000       15.9994           0
   19320 WT1  7170 TIP3 H1   HT     0.417000        1.0080           0
   19321 WT1  7170 TIP3 H2   HT     0.417000        1.0080           0
   19322 WT1  7171 TIP3 OH2  OT    -0.834000       15.9994           0
   19323 WT1  7171 TIP3 H1   HT     0.417000        1.0080           0
   19324 WT1  7171 TIP3 H2   HT     0.417000        1.0080           0
   19325 WT1  7172 TIP3 OH2  OT    -0.834000       15.9994           0
   19326 WT1  7172 TIP3 H1   HT     0.417000        1.0080           0
   19327 WT1  7172 TIP3 H2   HT     0.417000        1.0080           0
   19328 WT1  7173 TIP3 OH2  OT    -0.834000       15.9994           0
   19329 WT1  7173 TIP3 H1   HT     0.417000        1.0080           0
   19330 WT1  7173 TIP3 H2   HT     0.417000        1.0080           0
   19331 WT1  7174 TIP3 OH2  OT    -0.834000       15.9994           0
   19332 WT1  7174 TIP3 H1   HT     0.417000        1.0080           0
   19333 WT1  7174 TIP3 H2   HT     0.417000        1.0080           0
   19334 WT1  7176 TIP3 OH2  OT    -0.834000       15.9994           0
   19335 WT1  7176 TIP3 H1   HT     0.417000        1.0080           0
   19336 WT1  7176 TIP3 H2   HT     0.417000        1.0080           0
   19337 WT1  7177 TIP3 OH2  OT    -0.834000       15.9994           0
   19338 WT1  7177 TIP3 H1   HT     0.417000        1.0080           0
   19339 WT1  7177 TIP3 H2   HT     0.417000        1.0080           0
   19340 WT1  7178 TIP3 OH2  OT    -0.834000       15.9994           0
   19341 WT1  7178 TIP3 H1   HT     0.417000        1.0080           0
   19342 WT1  7178 TIP3 H2   HT     0.417000        1.0080           0
   19343 WT1  7179 TIP3 OH2  OT    -0.834000       15.9994           0
   19344 WT1  7179 TIP3 H1   HT     0.417000        1.0080           0
   19345 WT1  7179 TIP3 H2   HT     0.417000        1.0080           0
   19346 WT1  7180 TIP3 OH2  OT    -0.834000       15.9994           0
   19347 WT1  7180 TIP3 H1   HT     0.417000        1.0080           0
   19348 WT1  7180 TIP3 H2   HT     0.417000        1.0080           0
   19349 WT1  7181 TIP3 OH2  OT    -0.834000       15.9994           0
   19350 WT1  7181 TIP3 H1   HT     0.417000        1.0080           0
   19351 WT1  7181 TIP3 H2   HT     0.417000        1.0080           0
   19352 WT1  7182 TIP3 OH2  OT    -0.834000       15.9994           0
   19353 WT1  7182 TIP3 H1   HT     0.417000        1.0080           0
   19354 WT1  7182 TIP3 H2   HT     0.417000        1.0080           0
   19355 WT1  7183 TIP3 OH2  OT    -0.834000       15.9994           0
   19356 WT1  7183 TIP3 H1   HT     0.417000        1.0080           0
   19357 WT1  7183 TIP3 H2   HT     0.417000        1.0080           0
   19358 WT1  7184 TIP3 OH2  OT    -0.834000       15.9994           0
   19359 WT1  7184 TIP3 H1   HT     0.417000        1.0080           0
   19360 WT1  7184 TIP3 H2   HT     0.417000        1.0080           0
   19361 WT1  7185 TIP3 OH2  OT    -0.834000       15.9994           0
   19362 WT1  7185 TIP3 H1   HT     0.417000        1.0080           0
   19363 WT1  7185 TIP3 H2   HT     0.417000        1.0080           0
   19364 WT1  7186 TIP3 OH2  OT    -0.834000       15.9994           0
   19365 WT1  7186 TIP3 H1   HT     0.417000        1.0080           0
   19366 WT1  7186 TIP3 H2   HT     0.417000        1.0080           0
   19367 WT1  7187 TIP3 OH2  OT    -0.834000       15.9994           0
   19368 WT1  7187 TIP3 H1   HT     0.417000        1.0080           0
   19369 WT1  7187 TIP3 H2   HT     0.417000        1.0080           0
   19370 WT1  7188 TIP3 OH2  OT    -0.834000       15.9994           0
   19371 WT1  7188 TIP3 H1   HT     0.417000        1.0080           0
   19372 WT1  7188 TIP3 H2   HT     0.417000        1.0080           0
   19373 WT1  7189 TIP3 OH2  OT    -0.834000       15.9994           0
   19374 WT1  7189 TIP3 H1   HT     0.417000        1.0080           0
   19375 WT1  7189 TIP3 H2   HT     0.417000        1.0080           0
   19376 WT1  7190 TIP3 OH2  OT    -0.834000       15.9994           0
   19377 WT1  7190 TIP3 H1   HT     0.417000        1.0080           0
   19378 WT1  7190 TIP3 H2   HT     0.417000        1.0080           0
   19379 WT1  7191 TIP3 OH2  OT    -0.834000       15.9994           0
   19380 WT1  7191 TIP3 H1   HT     0.417000        1.0080           0
   19381 WT1  7191 TIP3 H2   HT     0.417000        1.0080           0
   19382 WT1  7194 TIP3 OH2  OT    -0.834000       15.9994           0
   19383 WT1  7194 TIP3 H1   HT     0.417000        1.0080           0
   19384 WT1  7194 TIP3 H2   HT     0.417000        1.0080           0
   19385 WT1  7195 TIP3 OH2  OT    -0.834000       15.9994           0
   19386 WT1  7195 TIP3 H1   HT     0.417000        1.0080           0
   19387 WT1  7195 TIP3 H2   HT     0.417000        1.0080           0
   19388 WT1  7196 TIP3 OH2  OT    -0.834000       15.9994           0
   19389 WT1  7196 TIP3 H1   HT     0.417000        1.0080           0
   19390 WT1  7196 TIP3 H2   HT     0.417000        1.0080           0
   19391 WT1  7197 TIP3 OH2  OT    -0.834000       15.9994           0
   19392 WT1  7197 TIP3 H1   HT     0.417000        1.0080           0
   19393 WT1  7197 TIP3 H2   HT     0.417000        1.0080           0
   19394 WT1  7198 TIP3 OH2  OT    -0.834000       15.9994           0
   19395 WT1  7198 TIP3 H1   HT     0.417000        1.0080           0
   19396 WT1  7198 TIP3 H2   HT     0.417000        1.0080           0
   19397 WT1  7199 TIP3 OH2  OT    -0.834000       15.9994           0
   19398 WT1  7199 TIP3 H1   HT     0.417000        1.0080           0
   19399 WT1  7199 TIP3 H2   HT     0.417000        1.0080           0
   19400 WT1  7200 TIP3 OH2  OT    -0.834000       15.9994           0
   19401 WT1  7200 TIP3 H1   HT     0.417000        1.0080           0
   19402 WT1  7200 TIP3 H2   HT     0.417000        1.0080           0
   19403 WT1  7201 TIP3 OH2  OT    -0.834000       15.9994           0
   19404 WT1  7201 TIP3 H1   HT     0.417000        1.0080           0
   19405 WT1  7201 TIP3 H2   HT     0.417000        1.0080           0
   19406 WT1  7202 TIP3 OH2  OT    -0.834000       15.9994           0
   19407 WT1  7202 TIP3 H1   HT     0.417000        1.0080           0
   19408 WT1  7202 TIP3 H2   HT     0.417000        1.0080           0
   19409 WT1  7204 TIP3 OH2  OT    -0.834000       15.9994           0
   19410 WT1  7204 TIP3 H1   HT     0.417000        1.0080           0
   19411 WT1  7204 TIP3 H2   HT     0.417000        1.0080           0
   19412 WT1  7205 TIP3 OH2  OT    -0.834000       15.9994           0
   19413 WT1  7205 TIP3 H1   HT     0.417000        1.0080           0
   19414 WT1  7205 TIP3 H2   HT     0.417000        1.0080           0
   19415 WT1  7206 TIP3 OH2  OT    -0.834000       15.9994           0
   19416 WT1  7206 TIP3 H1   HT     0.417000        1.0080           0
   19417 WT1  7206 TIP3 H2   HT     0.417000        1.0080           0
   19418 WT1  7207 TIP3 OH2  OT    -0.834000       15.9994           0
   19419 WT1  7207 TIP3 H1   HT     0.417000        1.0080           0
   19420 WT1  7207 TIP3 H2   HT     0.417000        1.0080           0
   19421 WT1  7208 TIP3 OH2  OT    -0.834000       15.9994           0
   19422 WT1  7208 TIP3 H1   HT     0.417000        1.0080           0
   19423 WT1  7208 TIP3 H2   HT     0.417000        1.0080           0
   19424 WT1  7209 TIP3 OH2  OT    -0.834000       15.9994           0
   19425 WT1  7209 TIP3 H1   HT     0.417000        1.0080           0
   19426 WT1  7209 TIP3 H2   HT     0.417000        1.0080           0
   19427 WT1  7210 TIP3 OH2  OT    -0.834000       15.9994           0
   19428 WT1  7210 TIP3 H1   HT     0.417000        1.0080           0
   19429 WT1  7210 TIP3 H2   HT     0.417000        1.0080           0
   19430 WT1  7211 TIP3 OH2  OT    -0.834000       15.9994           0
   19431 WT1  7211 TIP3 H1   HT     0.417000        1.0080           0
   19432 WT1  7211 TIP3 H2   HT     0.417000        1.0080           0
   19433 WT1  7212 TIP3 OH2  OT    -0.834000       15.9994           0
   19434 WT1  7212 TIP3 H1   HT     0.417000        1.0080           0
   19435 WT1  7212 TIP3 H2   HT     0.417000        1.0080           0
   19436 WT1  7213 TIP3 OH2  OT    -0.834000       15.9994           0
   19437 WT1  7213 TIP3 H1   HT     0.417000        1.0080           0
   19438 WT1  7213 TIP3 H2   HT     0.417000        1.0080           0
   19439 WT1  7216 TIP3 OH2  OT    -0.834000       15.9994           0
   19440 WT1  7216 TIP3 H1   HT     0.417000        1.0080           0
   19441 WT1  7216 TIP3 H2   HT     0.417000        1.0080           0
   19442 WT1  7217 TIP3 OH2  OT    -0.834000       15.9994           0
   19443 WT1  7217 TIP3 H1   HT     0.417000        1.0080           0
   19444 WT1  7217 TIP3 H2   HT     0.417000        1.0080           0
   19445 WT1  7218 TIP3 OH2  OT    -0.834000       15.9994           0
   19446 WT1  7218 TIP3 H1   HT     0.417000        1.0080           0
   19447 WT1  7218 TIP3 H2   HT     0.417000        1.0080           0
   19448 WT1  7219 TIP3 OH2  OT    -0.834000       15.9994           0
   19449 WT1  7219 TIP3 H1   HT     0.417000        1.0080           0
   19450 WT1  7219 TIP3 H2   HT     0.417000        1.0080           0
   19451 WT1  7220 TIP3 OH2  OT    -0.834000       15.9994           0
   19452 WT1  7220 TIP3 H1   HT     0.417000        1.0080           0
   19453 WT1  7220 TIP3 H2   HT     0.417000        1.0080           0
   19454 WT1  7221 TIP3 OH2  OT    -0.834000       15.9994           0
   19455 WT1  7221 TIP3 H1   HT     0.417000        1.0080           0
   19456 WT1  7221 TIP3 H2   HT     0.417000        1.0080           0
   19457 WT1  7223 TIP3 OH2  OT    -0.834000       15.9994           0
   19458 WT1  7223 TIP3 H1   HT     0.417000        1.0080           0
   19459 WT1  7223 TIP3 H2   HT     0.417000        1.0080           0
   19460 WT1  7224 TIP3 OH2  OT    -0.834000       15.9994           0
   19461 WT1  7224 TIP3 H1   HT     0.417000        1.0080           0
   19462 WT1  7224 TIP3 H2   HT     0.417000        1.0080           0
   19463 WT1  7226 TIP3 OH2  OT    -0.834000       15.9994           0
   19464 WT1  7226 TIP3 H1   HT     0.417000        1.0080           0
   19465 WT1  7226 TIP3 H2   HT     0.417000        1.0080           0
   19466 WT1  7228 TIP3 OH2  OT    -0.834000       15.9994           0
   19467 WT1  7228 TIP3 H1   HT     0.417000        1.0080           0
   19468 WT1  7228 TIP3 H2   HT     0.417000        1.0080           0
   19469 WT1  7229 TIP3 OH2  OT    -0.834000       15.9994           0
   19470 WT1  7229 TIP3 H1   HT     0.417000        1.0080           0
   19471 WT1  7229 TIP3 H2   HT     0.417000        1.0080           0
   19472 WT1  7230 TIP3 OH2  OT    -0.834000       15.9994           0
   19473 WT1  7230 TIP3 H1   HT     0.417000        1.0080           0
   19474 WT1  7230 TIP3 H2   HT     0.417000        1.0080           0
   19475 WT1  7232 TIP3 OH2  OT    -0.834000       15.9994           0
   19476 WT1  7232 TIP3 H1   HT     0.417000        1.0080           0
   19477 WT1  7232 TIP3 H2   HT     0.417000        1.0080           0
   19478 WT1  7233 TIP3 OH2  OT    -0.834000       15.9994           0
   19479 WT1  7233 TIP3 H1   HT     0.417000        1.0080           0
   19480 WT1  7233 TIP3 H2   HT     0.417000        1.0080           0
   19481 WT1  7234 TIP3 OH2  OT    -0.834000       15.9994           0
   19482 WT1  7234 TIP3 H1   HT     0.417000        1.0080           0
   19483 WT1  7234 TIP3 H2   HT     0.417000        1.0080           0
   19484 WT1  7235 TIP3 OH2  OT    -0.834000       15.9994           0
   19485 WT1  7235 TIP3 H1   HT     0.417000        1.0080           0
   19486 WT1  7235 TIP3 H2   HT     0.417000        1.0080           0
   19487 WT1  7236 TIP3 OH2  OT    -0.834000       15.9994           0
   19488 WT1  7236 TIP3 H1   HT     0.417000        1.0080           0
   19489 WT1  7236 TIP3 H2   HT     0.417000        1.0080           0
   19490 WT1  7237 TIP3 OH2  OT    -0.834000       15.9994           0
   19491 WT1  7237 TIP3 H1   HT     0.417000        1.0080           0
   19492 WT1  7237 TIP3 H2   HT     0.417000        1.0080           0
   19493 WT1  7238 TIP3 OH2  OT    -0.834000       15.9994           0
   19494 WT1  7238 TIP3 H1   HT     0.417000        1.0080           0
   19495 WT1  7238 TIP3 H2   HT     0.417000        1.0080           0
   19496 WT1  7239 TIP3 OH2  OT    -0.834000       15.9994           0
   19497 WT1  7239 TIP3 H1   HT     0.417000        1.0080           0
   19498 WT1  7239 TIP3 H2   HT     0.417000        1.0080           0
   19499 WT1  7240 TIP3 OH2  OT    -0.834000       15.9994           0
   19500 WT1  7240 TIP3 H1   HT     0.417000        1.0080           0
   19501 WT1  7240 TIP3 H2   HT     0.417000        1.0080           0
   19502 WT1  7241 TIP3 OH2  OT    -0.834000       15.9994           0
   19503 WT1  7241 TIP3 H1   HT     0.417000        1.0080           0
   19504 WT1  7241 TIP3 H2   HT     0.417000        1.0080           0
   19505 WT1  7242 TIP3 OH2  OT    -0.834000       15.9994           0
   19506 WT1  7242 TIP3 H1   HT     0.417000        1.0080           0
   19507 WT1  7242 TIP3 H2   HT     0.417000        1.0080           0
   19508 WT1  7243 TIP3 OH2  OT    -0.834000       15.9994           0
   19509 WT1  7243 TIP3 H1   HT     0.417000        1.0080           0
   19510 WT1  7243 TIP3 H2   HT     0.417000        1.0080           0
   19511 WT1  7244 TIP3 OH2  OT    -0.834000       15.9994           0
   19512 WT1  7244 TIP3 H1   HT     0.417000        1.0080           0
   19513 WT1  7244 TIP3 H2   HT     0.417000        1.0080           0
   19514 WT1  7245 TIP3 OH2  OT    -0.834000       15.9994           0
   19515 WT1  7245 TIP3 H1   HT     0.417000        1.0080           0
   19516 WT1  7245 TIP3 H2   HT     0.417000        1.0080           0
   19517 WT1  7246 TIP3 OH2  OT    -0.834000       15.9994           0
   19518 WT1  7246 TIP3 H1   HT     0.417000        1.0080           0
   19519 WT1  7246 TIP3 H2   HT     0.417000        1.0080           0
   19520 WT1  7247 TIP3 OH2  OT    -0.834000       15.9994           0
   19521 WT1  7247 TIP3 H1   HT     0.417000        1.0080           0
   19522 WT1  7247 TIP3 H2   HT     0.417000        1.0080           0
   19523 WT1  7248 TIP3 OH2  OT    -0.834000       15.9994           0
   19524 WT1  7248 TIP3 H1   HT     0.417000        1.0080           0
   19525 WT1  7248 TIP3 H2   HT     0.417000        1.0080           0
   19526 WT1  7249 TIP3 OH2  OT    -0.834000       15.9994           0
   19527 WT1  7249 TIP3 H1   HT     0.417000        1.0080           0
   19528 WT1  7249 TIP3 H2   HT     0.417000        1.0080           0
   19529 WT1  7250 TIP3 OH2  OT    -0.834000       15.9994           0
   19530 WT1  7250 TIP3 H1   HT     0.417000        1.0080           0
   19531 WT1  7250 TIP3 H2   HT     0.417000        1.0080           0
   19532 WT1  7251 TIP3 OH2  OT    -0.834000       15.9994           0
   19533 WT1  7251 TIP3 H1   HT     0.417000        1.0080           0
   19534 WT1  7251 TIP3 H2   HT     0.417000        1.0080           0
   19535 WT1  7252 TIP3 OH2  OT    -0.834000       15.9994           0
   19536 WT1  7252 TIP3 H1   HT     0.417000        1.0080           0
   19537 WT1  7252 TIP3 H2   HT     0.417000        1.0080           0
   19538 WT1  7253 TIP3 OH2  OT    -0.834000       15.9994           0
   19539 WT1  7253 TIP3 H1   HT     0.417000        1.0080           0
   19540 WT1  7253 TIP3 H2   HT     0.417000        1.0080           0
   19541 WT1  7254 TIP3 OH2  OT    -0.834000       15.9994           0
   19542 WT1  7254 TIP3 H1   HT     0.417000        1.0080           0
   19543 WT1  7254 TIP3 H2   HT     0.417000        1.0080           0
   19544 WT1  7255 TIP3 OH2  OT    -0.834000       15.9994           0
   19545 WT1  7255 TIP3 H1   HT     0.417000        1.0080           0
   19546 WT1  7255 TIP3 H2   HT     0.417000        1.0080           0
   19547 WT1  7256 TIP3 OH2  OT    -0.834000       15.9994           0
   19548 WT1  7256 TIP3 H1   HT     0.417000        1.0080           0
   19549 WT1  7256 TIP3 H2   HT     0.417000        1.0080           0
   19550 WT1  7257 TIP3 OH2  OT    -0.834000       15.9994           0
   19551 WT1  7257 TIP3 H1   HT     0.417000        1.0080           0
   19552 WT1  7257 TIP3 H2   HT     0.417000        1.0080           0
   19553 WT1  7258 TIP3 OH2  OT    -0.834000       15.9994           0
   19554 WT1  7258 TIP3 H1   HT     0.417000        1.0080           0
   19555 WT1  7258 TIP3 H2   HT     0.417000        1.0080           0
   19556 WT1  7259 TIP3 OH2  OT    -0.834000       15.9994           0
   19557 WT1  7259 TIP3 H1   HT     0.417000        1.0080           0
   19558 WT1  7259 TIP3 H2   HT     0.417000        1.0080           0
   19559 WT1  7260 TIP3 OH2  OT    -0.834000       15.9994           0
   19560 WT1  7260 TIP3 H1   HT     0.417000        1.0080           0
   19561 WT1  7260 TIP3 H2   HT     0.417000        1.0080           0
   19562 WT1  7261 TIP3 OH2  OT    -0.834000       15.9994           0
   19563 WT1  7261 TIP3 H1   HT     0.417000        1.0080           0
   19564 WT1  7261 TIP3 H2   HT     0.417000        1.0080           0
   19565 WT1  7262 TIP3 OH2  OT    -0.834000       15.9994           0
   19566 WT1  7262 TIP3 H1   HT     0.417000        1.0080           0
   19567 WT1  7262 TIP3 H2   HT     0.417000        1.0080           0
   19568 WT1  7263 TIP3 OH2  OT    -0.834000       15.9994           0
   19569 WT1  7263 TIP3 H1   HT     0.417000        1.0080           0
   19570 WT1  7263 TIP3 H2   HT     0.417000        1.0080           0
   19571 WT1  7264 TIP3 OH2  OT    -0.834000       15.9994           0
   19572 WT1  7264 TIP3 H1   HT     0.417000        1.0080           0
   19573 WT1  7264 TIP3 H2   HT     0.417000        1.0080           0
   19574 WT1  7265 TIP3 OH2  OT    -0.834000       15.9994           0
   19575 WT1  7265 TIP3 H1   HT     0.417000        1.0080           0
   19576 WT1  7265 TIP3 H2   HT     0.417000        1.0080           0
   19577 WT1  7266 TIP3 OH2  OT    -0.834000       15.9994           0
   19578 WT1  7266 TIP3 H1   HT     0.417000        1.0080           0
   19579 WT1  7266 TIP3 H2   HT     0.417000        1.0080           0
   19580 WT1  7267 TIP3 OH2  OT    -0.834000       15.9994           0
   19581 WT1  7267 TIP3 H1   HT     0.417000        1.0080           0
   19582 WT1  7267 TIP3 H2   HT     0.417000        1.0080           0
   19583 WT1  7268 TIP3 OH2  OT    -0.834000       15.9994           0
   19584 WT1  7268 TIP3 H1   HT     0.417000        1.0080           0
   19585 WT1  7268 TIP3 H2   HT     0.417000        1.0080           0
   19586 WT1  7269 TIP3 OH2  OT    -0.834000       15.9994           0
   19587 WT1  7269 TIP3 H1   HT     0.417000        1.0080           0
   19588 WT1  7269 TIP3 H2   HT     0.417000        1.0080           0
   19589 WT1  7270 TIP3 OH2  OT    -0.834000       15.9994           0
   19590 WT1  7270 TIP3 H1   HT     0.417000        1.0080           0
   19591 WT1  7270 TIP3 H2   HT     0.417000        1.0080           0
   19592 WT1  7271 TIP3 OH2  OT    -0.834000       15.9994           0
   19593 WT1  7271 TIP3 H1   HT     0.417000        1.0080           0
   19594 WT1  7271 TIP3 H2   HT     0.417000        1.0080           0
   19595 WT1  7272 TIP3 OH2  OT    -0.834000       15.9994           0
   19596 WT1  7272 TIP3 H1   HT     0.417000        1.0080           0
   19597 WT1  7272 TIP3 H2   HT     0.417000        1.0080           0
   19598 WT1  7273 TIP3 OH2  OT    -0.834000       15.9994           0
   19599 WT1  7273 TIP3 H1   HT     0.417000        1.0080           0
   19600 WT1  7273 TIP3 H2   HT     0.417000        1.0080           0
   19601 WT1  7274 TIP3 OH2  OT    -0.834000       15.9994           0
   19602 WT1  7274 TIP3 H1   HT     0.417000        1.0080           0
   19603 WT1  7274 TIP3 H2   HT     0.417000        1.0080           0
   19604 WT1  7275 TIP3 OH2  OT    -0.834000       15.9994           0
   19605 WT1  7275 TIP3 H1   HT     0.417000        1.0080           0
   19606 WT1  7275 TIP3 H2   HT     0.417000        1.0080           0
   19607 WT1  7277 TIP3 OH2  OT    -0.834000       15.9994           0
   19608 WT1  7277 TIP3 H1   HT     0.417000        1.0080           0
   19609 WT1  7277 TIP3 H2   HT     0.417000        1.0080           0
   19610 WT1  7278 TIP3 OH2  OT    -0.834000       15.9994           0
   19611 WT1  7278 TIP3 H1   HT     0.417000        1.0080           0
   19612 WT1  7278 TIP3 H2   HT     0.417000        1.0080           0
   19613 WT1  7280 TIP3 OH2  OT    -0.834000       15.9994           0
   19614 WT1  7280 TIP3 H1   HT     0.417000        1.0080           0
   19615 WT1  7280 TIP3 H2   HT     0.417000        1.0080           0
   19616 WT1  7281 TIP3 OH2  OT    -0.834000       15.9994           0
   19617 WT1  7281 TIP3 H1   HT     0.417000        1.0080           0
   19618 WT1  7281 TIP3 H2   HT     0.417000        1.0080           0
   19619 WT1  7282 TIP3 OH2  OT    -0.834000       15.9994           0
   19620 WT1  7282 TIP3 H1   HT     0.417000        1.0080           0
   19621 WT1  7282 TIP3 H2   HT     0.417000        1.0080           0
   19622 WT1  7283 TIP3 OH2  OT    -0.834000       15.9994           0
   19623 WT1  7283 TIP3 H1   HT     0.417000        1.0080           0
   19624 WT1  7283 TIP3 H2   HT     0.417000        1.0080           0
   19625 WT1  7284 TIP3 OH2  OT    -0.834000       15.9994           0
   19626 WT1  7284 TIP3 H1   HT     0.417000        1.0080           0
   19627 WT1  7284 TIP3 H2   HT     0.417000        1.0080           0
   19628 WT1  7285 TIP3 OH2  OT    -0.834000       15.9994           0
   19629 WT1  7285 TIP3 H1   HT     0.417000        1.0080           0
   19630 WT1  7285 TIP3 H2   HT     0.417000        1.0080           0
   19631 WT1  7286 TIP3 OH2  OT    -0.834000       15.9994           0
   19632 WT1  7286 TIP3 H1   HT     0.417000        1.0080           0
   19633 WT1  7286 TIP3 H2   HT     0.417000        1.0080           0
   19634 WT1  7287 TIP3 OH2  OT    -0.834000       15.9994           0
   19635 WT1  7287 TIP3 H1   HT     0.417000        1.0080           0
   19636 WT1  7287 TIP3 H2   HT     0.417000        1.0080           0
   19637 WT1  7288 TIP3 OH2  OT    -0.834000       15.9994           0
   19638 WT1  7288 TIP3 H1   HT     0.417000        1.0080           0
   19639 WT1  7288 TIP3 H2   HT     0.417000        1.0080           0
   19640 WT1  7289 TIP3 OH2  OT    -0.834000       15.9994           0
   19641 WT1  7289 TIP3 H1   HT     0.417000        1.0080           0
   19642 WT1  7289 TIP3 H2   HT     0.417000        1.0080           0
   19643 WT1  7290 TIP3 OH2  OT    -0.834000       15.9994           0
   19644 WT1  7290 TIP3 H1   HT     0.417000        1.0080           0
   19645 WT1  7290 TIP3 H2   HT     0.417000        1.0080           0
   19646 WT1  7291 TIP3 OH2  OT    -0.834000       15.9994           0
   19647 WT1  7291 TIP3 H1   HT     0.417000        1.0080           0
   19648 WT1  7291 TIP3 H2   HT     0.417000        1.0080           0
   19649 WT1  7292 TIP3 OH2  OT    -0.834000       15.9994           0
   19650 WT1  7292 TIP3 H1   HT     0.417000        1.0080           0
   19651 WT1  7292 TIP3 H2   HT     0.417000        1.0080           0
   19652 WT1  7293 TIP3 OH2  OT    -0.834000       15.9994           0
   19653 WT1  7293 TIP3 H1   HT     0.417000        1.0080           0
   19654 WT1  7293 TIP3 H2   HT     0.417000        1.0080           0
   19655 WT1  7294 TIP3 OH2  OT    -0.834000       15.9994           0
   19656 WT1  7294 TIP3 H1   HT     0.417000        1.0080           0
   19657 WT1  7294 TIP3 H2   HT     0.417000        1.0080           0
   19658 WT1  7295 TIP3 OH2  OT    -0.834000       15.9994           0
   19659 WT1  7295 TIP3 H1   HT     0.417000        1.0080           0
   19660 WT1  7295 TIP3 H2   HT     0.417000        1.0080           0
   19661 WT1  7296 TIP3 OH2  OT    -0.834000       15.9994           0
   19662 WT1  7296 TIP3 H1   HT     0.417000        1.0080           0
   19663 WT1  7296 TIP3 H2   HT     0.417000        1.0080           0
   19664 WT1  7297 TIP3 OH2  OT    -0.834000       15.9994           0
   19665 WT1  7297 TIP3 H1   HT     0.417000        1.0080           0
   19666 WT1  7297 TIP3 H2   HT     0.417000        1.0080           0
   19667 WT1  7298 TIP3 OH2  OT    -0.834000       15.9994           0
   19668 WT1  7298 TIP3 H1   HT     0.417000        1.0080           0
   19669 WT1  7298 TIP3 H2   HT     0.417000        1.0080           0
   19670 WT1  7299 TIP3 OH2  OT    -0.834000       15.9994           0
   19671 WT1  7299 TIP3 H1   HT     0.417000        1.0080           0
   19672 WT1  7299 TIP3 H2   HT     0.417000        1.0080           0
   19673 WT1  7300 TIP3 OH2  OT    -0.834000       15.9994           0
   19674 WT1  7300 TIP3 H1   HT     0.417000        1.0080           0
   19675 WT1  7300 TIP3 H2   HT     0.417000        1.0080           0
   19676 WT1  7301 TIP3 OH2  OT    -0.834000       15.9994           0
   19677 WT1  7301 TIP3 H1   HT     0.417000        1.0080           0
   19678 WT1  7301 TIP3 H2   HT     0.417000        1.0080           0
   19679 WT1  7302 TIP3 OH2  OT    -0.834000       15.9994           0
   19680 WT1  7302 TIP3 H1   HT     0.417000        1.0080           0
   19681 WT1  7302 TIP3 H2   HT     0.417000        1.0080           0
   19682 WT1  7303 TIP3 OH2  OT    -0.834000       15.9994           0
   19683 WT1  7303 TIP3 H1   HT     0.417000        1.0080           0
   19684 WT1  7303 TIP3 H2   HT     0.417000        1.0080           0
   19685 WT1  7304 TIP3 OH2  OT    -0.834000       15.9994           0
   19686 WT1  7304 TIP3 H1   HT     0.417000        1.0080           0
   19687 WT1  7304 TIP3 H2   HT     0.417000        1.0080           0
   19688 WT1  7305 TIP3 OH2  OT    -0.834000       15.9994           0
   19689 WT1  7305 TIP3 H1   HT     0.417000        1.0080           0
   19690 WT1  7305 TIP3 H2   HT     0.417000        1.0080           0
   19691 WT1  7306 TIP3 OH2  OT    -0.834000       15.9994           0
   19692 WT1  7306 TIP3 H1   HT     0.417000        1.0080           0
   19693 WT1  7306 TIP3 H2   HT     0.417000        1.0080           0
   19694 WT1  7307 TIP3 OH2  OT    -0.834000       15.9994           0
   19695 WT1  7307 TIP3 H1   HT     0.417000        1.0080           0
   19696 WT1  7307 TIP3 H2   HT     0.417000        1.0080           0
   19697 WT1  7309 TIP3 OH2  OT    -0.834000       15.9994           0
   19698 WT1  7309 TIP3 H1   HT     0.417000        1.0080           0
   19699 WT1  7309 TIP3 H2   HT     0.417000        1.0080           0
   19700 WT1  7310 TIP3 OH2  OT    -0.834000       15.9994           0
   19701 WT1  7310 TIP3 H1   HT     0.417000        1.0080           0
   19702 WT1  7310 TIP3 H2   HT     0.417000        1.0080           0
   19703 WT1  7311 TIP3 OH2  OT    -0.834000       15.9994           0
   19704 WT1  7311 TIP3 H1   HT     0.417000        1.0080           0
   19705 WT1  7311 TIP3 H2   HT     0.417000        1.0080           0
   19706 WT1  7312 TIP3 OH2  OT    -0.834000       15.9994           0
   19707 WT1  7312 TIP3 H1   HT     0.417000        1.0080           0
   19708 WT1  7312 TIP3 H2   HT     0.417000        1.0080           0
   19709 WT1  7313 TIP3 OH2  OT    -0.834000       15.9994           0
   19710 WT1  7313 TIP3 H1   HT     0.417000        1.0080           0
   19711 WT1  7313 TIP3 H2   HT     0.417000        1.0080           0
   19712 WT1  7314 TIP3 OH2  OT    -0.834000       15.9994           0
   19713 WT1  7314 TIP3 H1   HT     0.417000        1.0080           0
   19714 WT1  7314 TIP3 H2   HT     0.417000        1.0080           0
   19715 WT1  7315 TIP3 OH2  OT    -0.834000       15.9994           0
   19716 WT1  7315 TIP3 H1   HT     0.417000        1.0080           0
   19717 WT1  7315 TIP3 H2   HT     0.417000        1.0080           0
   19718 WT1  7316 TIP3 OH2  OT    -0.834000       15.9994           0
   19719 WT1  7316 TIP3 H1   HT     0.417000        1.0080           0
   19720 WT1  7316 TIP3 H2   HT     0.417000        1.0080           0
   19721 WT1  7317 TIP3 OH2  OT    -0.834000       15.9994           0
   19722 WT1  7317 TIP3 H1   HT     0.417000        1.0080           0
   19723 WT1  7317 TIP3 H2   HT     0.417000        1.0080           0
   19724 WT1  7318 TIP3 OH2  OT    -0.834000       15.9994           0
   19725 WT1  7318 TIP3 H1   HT     0.417000        1.0080           0
   19726 WT1  7318 TIP3 H2   HT     0.417000        1.0080           0
   19727 WT1  7319 TIP3 OH2  OT    -0.834000       15.9994           0
   19728 WT1  7319 TIP3 H1   HT     0.417000        1.0080           0
   19729 WT1  7319 TIP3 H2   HT     0.417000        1.0080           0
   19730 WT1  7320 TIP3 OH2  OT    -0.834000       15.9994           0
   19731 WT1  7320 TIP3 H1   HT     0.417000        1.0080           0
   19732 WT1  7320 TIP3 H2   HT     0.417000        1.0080           0
   19733 WT1  7321 TIP3 OH2  OT    -0.834000       15.9994           0
   19734 WT1  7321 TIP3 H1   HT     0.417000        1.0080           0
   19735 WT1  7321 TIP3 H2   HT     0.417000        1.0080           0
   19736 WT1  7322 TIP3 OH2  OT    -0.834000       15.9994           0
   19737 WT1  7322 TIP3 H1   HT     0.417000        1.0080           0
   19738 WT1  7322 TIP3 H2   HT     0.417000        1.0080           0
   19739 WT1  7323 TIP3 OH2  OT    -0.834000       15.9994           0
   19740 WT1  7323 TIP3 H1   HT     0.417000        1.0080           0
   19741 WT1  7323 TIP3 H2   HT     0.417000        1.0080           0
   19742 WT1  7326 TIP3 OH2  OT    -0.834000       15.9994           0
   19743 WT1  7326 TIP3 H1   HT     0.417000        1.0080           0
   19744 WT1  7326 TIP3 H2   HT     0.417000        1.0080           0
   19745 WT1  7329 TIP3 OH2  OT    -0.834000       15.9994           0
   19746 WT1  7329 TIP3 H1   HT     0.417000        1.0080           0
   19747 WT1  7329 TIP3 H2   HT     0.417000        1.0080           0
   19748 WT1  7330 TIP3 OH2  OT    -0.834000       15.9994           0
   19749 WT1  7330 TIP3 H1   HT     0.417000        1.0080           0
   19750 WT1  7330 TIP3 H2   HT     0.417000        1.0080           0
   19751 WT1  7331 TIP3 OH2  OT    -0.834000       15.9994           0
   19752 WT1  7331 TIP3 H1   HT     0.417000        1.0080           0
   19753 WT1  7331 TIP3 H2   HT     0.417000        1.0080           0
   19754 WT1  7332 TIP3 OH2  OT    -0.834000       15.9994           0
   19755 WT1  7332 TIP3 H1   HT     0.417000        1.0080           0
   19756 WT1  7332 TIP3 H2   HT     0.417000        1.0080           0
   19757 WT1  7333 TIP3 OH2  OT    -0.834000       15.9994           0
   19758 WT1  7333 TIP3 H1   HT     0.417000        1.0080           0
   19759 WT1  7333 TIP3 H2   HT     0.417000        1.0080           0
   19760 WT1  7334 TIP3 OH2  OT    -0.834000       15.9994           0
   19761 WT1  7334 TIP3 H1   HT     0.417000        1.0080           0
   19762 WT1  7334 TIP3 H2   HT     0.417000        1.0080           0
   19763 WT1  7335 TIP3 OH2  OT    -0.834000       15.9994           0
   19764 WT1  7335 TIP3 H1   HT     0.417000        1.0080           0
   19765 WT1  7335 TIP3 H2   HT     0.417000        1.0080           0
   19766 WT1  7336 TIP3 OH2  OT    -0.834000       15.9994           0
   19767 WT1  7336 TIP3 H1   HT     0.417000        1.0080           0
   19768 WT1  7336 TIP3 H2   HT     0.417000        1.0080           0
   19769 WT1  7337 TIP3 OH2  OT    -0.834000       15.9994           0
   19770 WT1  7337 TIP3 H1   HT     0.417000        1.0080           0
   19771 WT1  7337 TIP3 H2   HT     0.417000        1.0080           0
   19772 WT1  7338 TIP3 OH2  OT    -0.834000       15.9994           0
   19773 WT1  7338 TIP3 H1   HT     0.417000        1.0080           0
   19774 WT1  7338 TIP3 H2   HT     0.417000        1.0080           0
   19775 WT1  7339 TIP3 OH2  OT    -0.834000       15.9994           0
   19776 WT1  7339 TIP3 H1   HT     0.417000        1.0080           0
   19777 WT1  7339 TIP3 H2   HT     0.417000        1.0080           0
   19778 WT1  7341 TIP3 OH2  OT    -0.834000       15.9994           0
   19779 WT1  7341 TIP3 H1   HT     0.417000        1.0080           0
   19780 WT1  7341 TIP3 H2   HT     0.417000        1.0080           0
   19781 WT1  7342 TIP3 OH2  OT    -0.834000       15.9994           0
   19782 WT1  7342 TIP3 H1   HT     0.417000        1.0080           0
   19783 WT1  7342 TIP3 H2   HT     0.417000        1.0080           0
   19784 WT1  7343 TIP3 OH2  OT    -0.834000       15.9994           0
   19785 WT1  7343 TIP3 H1   HT     0.417000        1.0080           0
   19786 WT1  7343 TIP3 H2   HT     0.417000        1.0080           0
   19787 WT1  7344 TIP3 OH2  OT    -0.834000       15.9994           0
   19788 WT1  7344 TIP3 H1   HT     0.417000        1.0080           0
   19789 WT1  7344 TIP3 H2   HT     0.417000        1.0080           0
   19790 WT1  7345 TIP3 OH2  OT    -0.834000       15.9994           0
   19791 WT1  7345 TIP3 H1   HT     0.417000        1.0080           0
   19792 WT1  7345 TIP3 H2   HT     0.417000        1.0080           0
   19793 WT1  7346 TIP3 OH2  OT    -0.834000       15.9994           0
   19794 WT1  7346 TIP3 H1   HT     0.417000        1.0080           0
   19795 WT1  7346 TIP3 H2   HT     0.417000        1.0080           0
   19796 WT1  7347 TIP3 OH2  OT    -0.834000       15.9994           0
   19797 WT1  7347 TIP3 H1   HT     0.417000        1.0080           0
   19798 WT1  7347 TIP3 H2   HT     0.417000        1.0080           0
   19799 WT1  7348 TIP3 OH2  OT    -0.834000       15.9994           0
   19800 WT1  7348 TIP3 H1   HT     0.417000        1.0080           0
   19801 WT1  7348 TIP3 H2   HT     0.417000        1.0080           0
   19802 WT1  7349 TIP3 OH2  OT    -0.834000       15.9994           0
   19803 WT1  7349 TIP3 H1   HT     0.417000        1.0080           0
   19804 WT1  7349 TIP3 H2   HT     0.417000        1.0080           0
   19805 WT1  7351 TIP3 OH2  OT    -0.834000       15.9994           0
   19806 WT1  7351 TIP3 H1   HT     0.417000        1.0080           0
   19807 WT1  7351 TIP3 H2   HT     0.417000        1.0080           0
   19808 WT1  7352 TIP3 OH2  OT    -0.834000       15.9994           0
   19809 WT1  7352 TIP3 H1   HT     0.417000        1.0080           0
   19810 WT1  7352 TIP3 H2   HT     0.417000        1.0080           0
   19811 WT1  7353 TIP3 OH2  OT    -0.834000       15.9994           0
   19812 WT1  7353 TIP3 H1   HT     0.417000        1.0080           0
   19813 WT1  7353 TIP3 H2   HT     0.417000        1.0080           0
   19814 WT1  7354 TIP3 OH2  OT    -0.834000       15.9994           0
   19815 WT1  7354 TIP3 H1   HT     0.417000        1.0080           0
   19816 WT1  7354 TIP3 H2   HT     0.417000        1.0080           0
   19817 WT1  7355 TIP3 OH2  OT    -0.834000       15.9994           0
   19818 WT1  7355 TIP3 H1   HT     0.417000        1.0080           0
   19819 WT1  7355 TIP3 H2   HT     0.417000        1.0080           0
   19820 WT1  7356 TIP3 OH2  OT    -0.834000       15.9994           0
   19821 WT1  7356 TIP3 H1   HT     0.417000        1.0080           0
   19822 WT1  7356 TIP3 H2   HT     0.417000        1.0080           0
   19823 WT1  7357 TIP3 OH2  OT    -0.834000       15.9994           0
   19824 WT1  7357 TIP3 H1   HT     0.417000        1.0080           0
   19825 WT1  7357 TIP3 H2   HT     0.417000        1.0080           0
   19826 WT1  7358 TIP3 OH2  OT    -0.834000       15.9994           0
   19827 WT1  7358 TIP3 H1   HT     0.417000        1.0080           0
   19828 WT1  7358 TIP3 H2   HT     0.417000        1.0080           0
   19829 WT1  7359 TIP3 OH2  OT    -0.834000       15.9994           0
   19830 WT1  7359 TIP3 H1   HT     0.417000        1.0080           0
   19831 WT1  7359 TIP3 H2   HT     0.417000        1.0080           0
   19832 WT1  7361 TIP3 OH2  OT    -0.834000       15.9994           0
   19833 WT1  7361 TIP3 H1   HT     0.417000        1.0080           0
   19834 WT1  7361 TIP3 H2   HT     0.417000        1.0080           0
   19835 WT1  7362 TIP3 OH2  OT    -0.834000       15.9994           0
   19836 WT1  7362 TIP3 H1   HT     0.417000        1.0080           0
   19837 WT1  7362 TIP3 H2   HT     0.417000        1.0080           0
   19838 WT1  7363 TIP3 OH2  OT    -0.834000       15.9994           0
   19839 WT1  7363 TIP3 H1   HT     0.417000        1.0080           0
   19840 WT1  7363 TIP3 H2   HT     0.417000        1.0080           0
   19841 WT1  7364 TIP3 OH2  OT    -0.834000       15.9994           0
   19842 WT1  7364 TIP3 H1   HT     0.417000        1.0080           0
   19843 WT1  7364 TIP3 H2   HT     0.417000        1.0080           0
   19844 WT1  7366 TIP3 OH2  OT    -0.834000       15.9994           0
   19845 WT1  7366 TIP3 H1   HT     0.417000        1.0080           0
   19846 WT1  7366 TIP3 H2   HT     0.417000        1.0080           0
   19847 WT1  7367 TIP3 OH2  OT    -0.834000       15.9994           0
   19848 WT1  7367 TIP3 H1   HT     0.417000        1.0080           0
   19849 WT1  7367 TIP3 H2   HT     0.417000        1.0080           0
   19850 WT1  7368 TIP3 OH2  OT    -0.834000       15.9994           0
   19851 WT1  7368 TIP3 H1   HT     0.417000        1.0080           0
   19852 WT1  7368 TIP3 H2   HT     0.417000        1.0080           0
   19853 WT1  7369 TIP3 OH2  OT    -0.834000       15.9994           0
   19854 WT1  7369 TIP3 H1   HT     0.417000        1.0080           0
   19855 WT1  7369 TIP3 H2   HT     0.417000        1.0080           0
   19856 WT1  7370 TIP3 OH2  OT    -0.834000       15.9994           0
   19857 WT1  7370 TIP3 H1   HT     0.417000        1.0080           0
   19858 WT1  7370 TIP3 H2   HT     0.417000        1.0080           0
   19859 WT1  7372 TIP3 OH2  OT    -0.834000       15.9994           0
   19860 WT1  7372 TIP3 H1   HT     0.417000        1.0080           0
   19861 WT1  7372 TIP3 H2   HT     0.417000        1.0080           0
   19862 WT1  7373 TIP3 OH2  OT    -0.834000       15.9994           0
   19863 WT1  7373 TIP3 H1   HT     0.417000        1.0080           0
   19864 WT1  7373 TIP3 H2   HT     0.417000        1.0080           0
   19865 WT1  7374 TIP3 OH2  OT    -0.834000       15.9994           0
   19866 WT1  7374 TIP3 H1   HT     0.417000        1.0080           0
   19867 WT1  7374 TIP3 H2   HT     0.417000        1.0080           0
   19868 WT1  7375 TIP3 OH2  OT    -0.834000       15.9994           0
   19869 WT1  7375 TIP3 H1   HT     0.417000        1.0080           0
   19870 WT1  7375 TIP3 H2   HT     0.417000        1.0080           0
   19871 WT1  7376 TIP3 OH2  OT    -0.834000       15.9994           0
   19872 WT1  7376 TIP3 H1   HT     0.417000        1.0080           0
   19873 WT1  7376 TIP3 H2   HT     0.417000        1.0080           0
   19874 WT1  7377 TIP3 OH2  OT    -0.834000       15.9994           0
   19875 WT1  7377 TIP3 H1   HT     0.417000        1.0080           0
   19876 WT1  7377 TIP3 H2   HT     0.417000        1.0080           0
   19877 WT1  7380 TIP3 OH2  OT    -0.834000       15.9994           0
   19878 WT1  7380 TIP3 H1   HT     0.417000        1.0080           0
   19879 WT1  7380 TIP3 H2   HT     0.417000        1.0080           0
   19880 WT1  7381 TIP3 OH2  OT    -0.834000       15.9994           0
   19881 WT1  7381 TIP3 H1   HT     0.417000        1.0080           0
   19882 WT1  7381 TIP3 H2   HT     0.417000        1.0080           0
   19883 WT1  7382 TIP3 OH2  OT    -0.834000       15.9994           0
   19884 WT1  7382 TIP3 H1   HT     0.417000        1.0080           0
   19885 WT1  7382 TIP3 H2   HT     0.417000        1.0080           0
   19886 WT1  7383 TIP3 OH2  OT    -0.834000       15.9994           0
   19887 WT1  7383 TIP3 H1   HT     0.417000        1.0080           0
   19888 WT1  7383 TIP3 H2   HT     0.417000        1.0080           0
   19889 WT1  7384 TIP3 OH2  OT    -0.834000       15.9994           0
   19890 WT1  7384 TIP3 H1   HT     0.417000        1.0080           0
   19891 WT1  7384 TIP3 H2   HT     0.417000        1.0080           0
   19892 WT1  7386 TIP3 OH2  OT    -0.834000       15.9994           0
   19893 WT1  7386 TIP3 H1   HT     0.417000        1.0080           0
   19894 WT1  7386 TIP3 H2   HT     0.417000        1.0080           0
   19895 WT1  7387 TIP3 OH2  OT    -0.834000       15.9994           0
   19896 WT1  7387 TIP3 H1   HT     0.417000        1.0080           0
   19897 WT1  7387 TIP3 H2   HT     0.417000        1.0080           0
   19898 WT1  7388 TIP3 OH2  OT    -0.834000       15.9994           0
   19899 WT1  7388 TIP3 H1   HT     0.417000        1.0080           0
   19900 WT1  7388 TIP3 H2   HT     0.417000        1.0080           0
   19901 WT1  7389 TIP3 OH2  OT    -0.834000       15.9994           0
   19902 WT1  7389 TIP3 H1   HT     0.417000        1.0080           0
   19903 WT1  7389 TIP3 H2   HT     0.417000        1.0080           0
   19904 WT1  7390 TIP3 OH2  OT    -0.834000       15.9994           0
   19905 WT1  7390 TIP3 H1   HT     0.417000        1.0080           0
   19906 WT1  7390 TIP3 H2   HT     0.417000        1.0080           0
   19907 WT1  7391 TIP3 OH2  OT    -0.834000       15.9994           0
   19908 WT1  7391 TIP3 H1   HT     0.417000        1.0080           0
   19909 WT1  7391 TIP3 H2   HT     0.417000        1.0080           0
   19910 WT1  7392 TIP3 OH2  OT    -0.834000       15.9994           0
   19911 WT1  7392 TIP3 H1   HT     0.417000        1.0080           0
   19912 WT1  7392 TIP3 H2   HT     0.417000        1.0080           0
   19913 WT1  7393 TIP3 OH2  OT    -0.834000       15.9994           0
   19914 WT1  7393 TIP3 H1   HT     0.417000        1.0080           0
   19915 WT1  7393 TIP3 H2   HT     0.417000        1.0080           0
   19916 WT1  7394 TIP3 OH2  OT    -0.834000       15.9994           0
   19917 WT1  7394 TIP3 H1   HT     0.417000        1.0080           0
   19918 WT1  7394 TIP3 H2   HT     0.417000        1.0080           0
   19919 WT1  7397 TIP3 OH2  OT    -0.834000       15.9994           0
   19920 WT1  7397 TIP3 H1   HT     0.417000        1.0080           0
   19921 WT1  7397 TIP3 H2   HT     0.417000        1.0080           0
   19922 WT1  7398 TIP3 OH2  OT    -0.834000       15.9994           0
   19923 WT1  7398 TIP3 H1   HT     0.417000        1.0080           0
   19924 WT1  7398 TIP3 H2   HT     0.417000        1.0080           0
   19925 WT1  7399 TIP3 OH2  OT    -0.834000       15.9994           0
   19926 WT1  7399 TIP3 H1   HT     0.417000        1.0080           0
   19927 WT1  7399 TIP3 H2   HT     0.417000        1.0080           0
   19928 WT1  7400 TIP3 OH2  OT    -0.834000       15.9994           0
   19929 WT1  7400 TIP3 H1   HT     0.417000        1.0080           0
   19930 WT1  7400 TIP3 H2   HT     0.417000        1.0080           0
   19931 WT1  7401 TIP3 OH2  OT    -0.834000       15.9994           0
   19932 WT1  7401 TIP3 H1   HT     0.417000        1.0080           0
   19933 WT1  7401 TIP3 H2   HT     0.417000        1.0080           0
   19934 WT1  7402 TIP3 OH2  OT    -0.834000       15.9994           0
   19935 WT1  7402 TIP3 H1   HT     0.417000        1.0080           0
   19936 WT1  7402 TIP3 H2   HT     0.417000        1.0080           0
   19937 WT1  7403 TIP3 OH2  OT    -0.834000       15.9994           0
   19938 WT1  7403 TIP3 H1   HT     0.417000        1.0080           0
   19939 WT1  7403 TIP3 H2   HT     0.417000        1.0080           0
   19940 WT1  7404 TIP3 OH2  OT    -0.834000       15.9994           0
   19941 WT1  7404 TIP3 H1   HT     0.417000        1.0080           0
   19942 WT1  7404 TIP3 H2   HT     0.417000        1.0080           0
   19943 WT1  7406 TIP3 OH2  OT    -0.834000       15.9994           0
   19944 WT1  7406 TIP3 H1   HT     0.417000        1.0080           0
   19945 WT1  7406 TIP3 H2   HT     0.417000        1.0080           0
   19946 WT1  7407 TIP3 OH2  OT    -0.834000       15.9994           0
   19947 WT1  7407 TIP3 H1   HT     0.417000        1.0080           0
   19948 WT1  7407 TIP3 H2   HT     0.417000        1.0080           0
   19949 WT1  7408 TIP3 OH2  OT    -0.834000       15.9994           0
   19950 WT1  7408 TIP3 H1   HT     0.417000        1.0080           0
   19951 WT1  7408 TIP3 H2   HT     0.417000        1.0080           0
   19952 WT1  7409 TIP3 OH2  OT    -0.834000       15.9994           0
   19953 WT1  7409 TIP3 H1   HT     0.417000        1.0080           0
   19954 WT1  7409 TIP3 H2   HT     0.417000        1.0080           0
   19955 WT1  7410 TIP3 OH2  OT    -0.834000       15.9994           0
   19956 WT1  7410 TIP3 H1   HT     0.417000        1.0080           0
   19957 WT1  7410 TIP3 H2   HT     0.417000        1.0080           0
   19958 WT1  7411 TIP3 OH2  OT    -0.834000       15.9994           0
   19959 WT1  7411 TIP3 H1   HT     0.417000        1.0080           0
   19960 WT1  7411 TIP3 H2   HT     0.417000        1.0080           0
   19961 WT1  7412 TIP3 OH2  OT    -0.834000       15.9994           0
   19962 WT1  7412 TIP3 H1   HT     0.417000        1.0080           0
   19963 WT1  7412 TIP3 H2   HT     0.417000        1.0080           0
   19964 WT1  7413 TIP3 OH2  OT    -0.834000       15.9994           0
   19965 WT1  7413 TIP3 H1   HT     0.417000        1.0080           0
   19966 WT1  7413 TIP3 H2   HT     0.417000        1.0080           0
   19967 WT1  7414 TIP3 OH2  OT    -0.834000       15.9994           0
   19968 WT1  7414 TIP3 H1   HT     0.417000        1.0080           0
   19969 WT1  7414 TIP3 H2   HT     0.417000        1.0080           0
   19970 WT1  7415 TIP3 OH2  OT    -0.834000       15.9994           0
   19971 WT1  7415 TIP3 H1   HT     0.417000        1.0080           0
   19972 WT1  7415 TIP3 H2   HT     0.417000        1.0080           0
   19973 WT1  7416 TIP3 OH2  OT    -0.834000       15.9994           0
   19974 WT1  7416 TIP3 H1   HT     0.417000        1.0080           0
   19975 WT1  7416 TIP3 H2   HT     0.417000        1.0080           0
   19976 WT1  7417 TIP3 OH2  OT    -0.834000       15.9994           0
   19977 WT1  7417 TIP3 H1   HT     0.417000        1.0080           0
   19978 WT1  7417 TIP3 H2   HT     0.417000        1.0080           0
   19979 WT1  7418 TIP3 OH2  OT    -0.834000       15.9994           0
   19980 WT1  7418 TIP3 H1   HT     0.417000        1.0080           0
   19981 WT1  7418 TIP3 H2   HT     0.417000        1.0080           0
   19982 WT1  7419 TIP3 OH2  OT    -0.834000       15.9994           0
   19983 WT1  7419 TIP3 H1   HT     0.417000        1.0080           0
   19984 WT1  7419 TIP3 H2   HT     0.417000        1.0080           0
   19985 WT1  7420 TIP3 OH2  OT    -0.834000       15.9994           0
   19986 WT1  7420 TIP3 H1   HT     0.417000        1.0080           0
   19987 WT1  7420 TIP3 H2   HT     0.417000        1.0080           0
   19988 WT1  7421 TIP3 OH2  OT    -0.834000       15.9994           0
   19989 WT1  7421 TIP3 H1   HT     0.417000        1.0080           0
   19990 WT1  7421 TIP3 H2   HT     0.417000        1.0080           0
   19991 WT1  7422 TIP3 OH2  OT    -0.834000       15.9994           0
   19992 WT1  7422 TIP3 H1   HT     0.417000        1.0080           0
   19993 WT1  7422 TIP3 H2   HT     0.417000        1.0080           0
   19994 WT1  7423 TIP3 OH2  OT    -0.834000       15.9994           0
   19995 WT1  7423 TIP3 H1   HT     0.417000        1.0080           0
   19996 WT1  7423 TIP3 H2   HT     0.417000        1.0080           0
   19997 WT1  7424 TIP3 OH2  OT    -0.834000       15.9994           0
   19998 WT1  7424 TIP3 H1   HT     0.417000        1.0080           0
   19999 WT1  7424 TIP3 H2   HT     0.417000        1.0080           0
   20000 WT1  7425 TIP3 OH2  OT    -0.834000       15.9994           0
   20001 WT1  7425 TIP3 H1   HT     0.417000        1.0080           0
   20002 WT1  7425 TIP3 H2   HT     0.417000        1.0080           0
   20003 WT1  7427 TIP3 OH2  OT    -0.834000       15.9994           0
   20004 WT1  7427 TIP3 H1   HT     0.417000        1.0080           0
   20005 WT1  7427 TIP3 H2   HT     0.417000        1.0080           0
   20006 WT1  7428 TIP3 OH2  OT    -0.834000       15.9994           0
   20007 WT1  7428 TIP3 H1   HT     0.417000        1.0080           0
   20008 WT1  7428 TIP3 H2   HT     0.417000        1.0080           0
   20009 WT1  7429 TIP3 OH2  OT    -0.834000       15.9994           0
   20010 WT1  7429 TIP3 H1   HT     0.417000        1.0080           0
   20011 WT1  7429 TIP3 H2   HT     0.417000        1.0080           0
   20012 WT1  7430 TIP3 OH2  OT    -0.834000       15.9994           0
   20013 WT1  7430 TIP3 H1   HT     0.417000        1.0080           0
   20014 WT1  7430 TIP3 H2   HT     0.417000        1.0080           0
   20015 WT1  7431 TIP3 OH2  OT    -0.834000       15.9994           0
   20016 WT1  7431 TIP3 H1   HT     0.417000        1.0080           0
   20017 WT1  7431 TIP3 H2   HT     0.417000        1.0080           0
   20018 WT1  7432 TIP3 OH2  OT    -0.834000       15.9994           0
   20019 WT1  7432 TIP3 H1   HT     0.417000        1.0080           0
   20020 WT1  7432 TIP3 H2   HT     0.417000        1.0080           0
   20021 WT1  7433 TIP3 OH2  OT    -0.834000       15.9994           0
   20022 WT1  7433 TIP3 H1   HT     0.417000        1.0080           0
   20023 WT1  7433 TIP3 H2   HT     0.417000        1.0080           0
   20024 WT1  7434 TIP3 OH2  OT    -0.834000       15.9994           0
   20025 WT1  7434 TIP3 H1   HT     0.417000        1.0080           0
   20026 WT1  7434 TIP3 H2   HT     0.417000        1.0080           0
   20027 WT1  7435 TIP3 OH2  OT    -0.834000       15.9994           0
   20028 WT1  7435 TIP3 H1   HT     0.417000        1.0080           0
   20029 WT1  7435 TIP3 H2   HT     0.417000        1.0080           0
   20030 WT1  7436 TIP3 OH2  OT    -0.834000       15.9994           0
   20031 WT1  7436 TIP3 H1   HT     0.417000        1.0080           0
   20032 WT1  7436 TIP3 H2   HT     0.417000        1.0080           0
   20033 WT1  7437 TIP3 OH2  OT    -0.834000       15.9994           0
   20034 WT1  7437 TIP3 H1   HT     0.417000        1.0080           0
   20035 WT1  7437 TIP3 H2   HT     0.417000        1.0080           0
   20036 WT1  7438 TIP3 OH2  OT    -0.834000       15.9994           0
   20037 WT1  7438 TIP3 H1   HT     0.417000        1.0080           0
   20038 WT1  7438 TIP3 H2   HT     0.417000        1.0080           0
   20039 WT1  7439 TIP3 OH2  OT    -0.834000       15.9994           0
   20040 WT1  7439 TIP3 H1   HT     0.417000        1.0080           0
   20041 WT1  7439 TIP3 H2   HT     0.417000        1.0080           0
   20042 WT1  7441 TIP3 OH2  OT    -0.834000       15.9994           0
   20043 WT1  7441 TIP3 H1   HT     0.417000        1.0080           0
   20044 WT1  7441 TIP3 H2   HT     0.417000        1.0080           0
   20045 WT1  7442 TIP3 OH2  OT    -0.834000       15.9994           0
   20046 WT1  7442 TIP3 H1   HT     0.417000        1.0080           0
   20047 WT1  7442 TIP3 H2   HT     0.417000        1.0080           0
   20048 WT1  7443 TIP3 OH2  OT    -0.834000       15.9994           0
   20049 WT1  7443 TIP3 H1   HT     0.417000        1.0080           0
   20050 WT1  7443 TIP3 H2   HT     0.417000        1.0080           0
   20051 WT1  7445 TIP3 OH2  OT    -0.834000       15.9994           0
   20052 WT1  7445 TIP3 H1   HT     0.417000        1.0080           0
   20053 WT1  7445 TIP3 H2   HT     0.417000        1.0080           0
   20054 WT1  7446 TIP3 OH2  OT    -0.834000       15.9994           0
   20055 WT1  7446 TIP3 H1   HT     0.417000        1.0080           0
   20056 WT1  7446 TIP3 H2   HT     0.417000        1.0080           0
   20057 WT1  7447 TIP3 OH2  OT    -0.834000       15.9994           0
   20058 WT1  7447 TIP3 H1   HT     0.417000        1.0080           0
   20059 WT1  7447 TIP3 H2   HT     0.417000        1.0080           0
   20060 WT1  7448 TIP3 OH2  OT    -0.834000       15.9994           0
   20061 WT1  7448 TIP3 H1   HT     0.417000        1.0080           0
   20062 WT1  7448 TIP3 H2   HT     0.417000        1.0080           0
   20063 WT1  7449 TIP3 OH2  OT    -0.834000       15.9994           0
   20064 WT1  7449 TIP3 H1   HT     0.417000        1.0080           0
   20065 WT1  7449 TIP3 H2   HT     0.417000        1.0080           0
   20066 WT1  7450 TIP3 OH2  OT    -0.834000       15.9994           0
   20067 WT1  7450 TIP3 H1   HT     0.417000        1.0080           0
   20068 WT1  7450 TIP3 H2   HT     0.417000        1.0080           0
   20069 WT1  7451 TIP3 OH2  OT    -0.834000       15.9994           0
   20070 WT1  7451 TIP3 H1   HT     0.417000        1.0080           0
   20071 WT1  7451 TIP3 H2   HT     0.417000        1.0080           0
   20072 WT1  7452 TIP3 OH2  OT    -0.834000       15.9994           0
   20073 WT1  7452 TIP3 H1   HT     0.417000        1.0080           0
   20074 WT1  7452 TIP3 H2   HT     0.417000        1.0080           0
   20075 WT1  7453 TIP3 OH2  OT    -0.834000       15.9994           0
   20076 WT1  7453 TIP3 H1   HT     0.417000        1.0080           0
   20077 WT1  7453 TIP3 H2   HT     0.417000        1.0080           0
   20078 WT1  7454 TIP3 OH2  OT    -0.834000       15.9994           0
   20079 WT1  7454 TIP3 H1   HT     0.417000        1.0080           0
   20080 WT1  7454 TIP3 H2   HT     0.417000        1.0080           0
   20081 WT1  7455 TIP3 OH2  OT    -0.834000       15.9994           0
   20082 WT1  7455 TIP3 H1   HT     0.417000        1.0080           0
   20083 WT1  7455 TIP3 H2   HT     0.417000        1.0080           0
   20084 WT1  7456 TIP3 OH2  OT    -0.834000       15.9994           0
   20085 WT1  7456 TIP3 H1   HT     0.417000        1.0080           0
   20086 WT1  7456 TIP3 H2   HT     0.417000        1.0080           0
   20087 WT1  7457 TIP3 OH2  OT    -0.834000       15.9994           0
   20088 WT1  7457 TIP3 H1   HT     0.417000        1.0080           0
   20089 WT1  7457 TIP3 H2   HT     0.417000        1.0080           0
   20090 WT1  7458 TIP3 OH2  OT    -0.834000       15.9994           0
   20091 WT1  7458 TIP3 H1   HT     0.417000        1.0080           0
   20092 WT1  7458 TIP3 H2   HT     0.417000        1.0080           0
   20093 WT1  7459 TIP3 OH2  OT    -0.834000       15.9994           0
   20094 WT1  7459 TIP3 H1   HT     0.417000        1.0080           0
   20095 WT1  7459 TIP3 H2   HT     0.417000        1.0080           0
   20096 WT1  7460 TIP3 OH2  OT    -0.834000       15.9994           0
   20097 WT1  7460 TIP3 H1   HT     0.417000        1.0080           0
   20098 WT1  7460 TIP3 H2   HT     0.417000        1.0080           0
   20099 WT1  7462 TIP3 OH2  OT    -0.834000       15.9994           0
   20100 WT1  7462 TIP3 H1   HT     0.417000        1.0080           0
   20101 WT1  7462 TIP3 H2   HT     0.417000        1.0080           0
   20102 WT1  7463 TIP3 OH2  OT    -0.834000       15.9994           0
   20103 WT1  7463 TIP3 H1   HT     0.417000        1.0080           0
   20104 WT1  7463 TIP3 H2   HT     0.417000        1.0080           0
   20105 WT1  7464 TIP3 OH2  OT    -0.834000       15.9994           0
   20106 WT1  7464 TIP3 H1   HT     0.417000        1.0080           0
   20107 WT1  7464 TIP3 H2   HT     0.417000        1.0080           0
   20108 WT1  7465 TIP3 OH2  OT    -0.834000       15.9994           0
   20109 WT1  7465 TIP3 H1   HT     0.417000        1.0080           0
   20110 WT1  7465 TIP3 H2   HT     0.417000        1.0080           0
   20111 WT1  7466 TIP3 OH2  OT    -0.834000       15.9994           0
   20112 WT1  7466 TIP3 H1   HT     0.417000        1.0080           0
   20113 WT1  7466 TIP3 H2   HT     0.417000        1.0080           0
   20114 WT1  7467 TIP3 OH2  OT    -0.834000       15.9994           0
   20115 WT1  7467 TIP3 H1   HT     0.417000        1.0080           0
   20116 WT1  7467 TIP3 H2   HT     0.417000        1.0080           0
   20117 WT1  7468 TIP3 OH2  OT    -0.834000       15.9994           0
   20118 WT1  7468 TIP3 H1   HT     0.417000        1.0080           0
   20119 WT1  7468 TIP3 H2   HT     0.417000        1.0080           0
   20120 WT1  7469 TIP3 OH2  OT    -0.834000       15.9994           0
   20121 WT1  7469 TIP3 H1   HT     0.417000        1.0080           0
   20122 WT1  7469 TIP3 H2   HT     0.417000        1.0080           0
   20123 WT1  7471 TIP3 OH2  OT    -0.834000       15.9994           0
   20124 WT1  7471 TIP3 H1   HT     0.417000        1.0080           0
   20125 WT1  7471 TIP3 H2   HT     0.417000        1.0080           0
   20126 WT1  7472 TIP3 OH2  OT    -0.834000       15.9994           0
   20127 WT1  7472 TIP3 H1   HT     0.417000        1.0080           0
   20128 WT1  7472 TIP3 H2   HT     0.417000        1.0080           0
   20129 WT1  7473 TIP3 OH2  OT    -0.834000       15.9994           0
   20130 WT1  7473 TIP3 H1   HT     0.417000        1.0080           0
   20131 WT1  7473 TIP3 H2   HT     0.417000        1.0080           0
   20132 WT1  7474 TIP3 OH2  OT    -0.834000       15.9994           0
   20133 WT1  7474 TIP3 H1   HT     0.417000        1.0080           0
   20134 WT1  7474 TIP3 H2   HT     0.417000        1.0080           0
   20135 WT1  7475 TIP3 OH2  OT    -0.834000       15.9994           0
   20136 WT1  7475 TIP3 H1   HT     0.417000        1.0080           0
   20137 WT1  7475 TIP3 H2   HT     0.417000        1.0080           0
   20138 WT1  7476 TIP3 OH2  OT    -0.834000       15.9994           0
   20139 WT1  7476 TIP3 H1   HT     0.417000        1.0080           0
   20140 WT1  7476 TIP3 H2   HT     0.417000        1.0080           0
   20141 WT1  7477 TIP3 OH2  OT    -0.834000       15.9994           0
   20142 WT1  7477 TIP3 H1   HT     0.417000        1.0080           0
   20143 WT1  7477 TIP3 H2   HT     0.417000        1.0080           0
   20144 WT1  7478 TIP3 OH2  OT    -0.834000       15.9994           0
   20145 WT1  7478 TIP3 H1   HT     0.417000        1.0080           0
   20146 WT1  7478 TIP3 H2   HT     0.417000        1.0080           0
   20147 WT1  7479 TIP3 OH2  OT    -0.834000       15.9994           0
   20148 WT1  7479 TIP3 H1   HT     0.417000        1.0080           0
   20149 WT1  7479 TIP3 H2   HT     0.417000        1.0080           0
   20150 WT1  7480 TIP3 OH2  OT    -0.834000       15.9994           0
   20151 WT1  7480 TIP3 H1   HT     0.417000        1.0080           0
   20152 WT1  7480 TIP3 H2   HT     0.417000        1.0080           0
   20153 WT1  7481 TIP3 OH2  OT    -0.834000       15.9994           0
   20154 WT1  7481 TIP3 H1   HT     0.417000        1.0080           0
   20155 WT1  7481 TIP3 H2   HT     0.417000        1.0080           0
   20156 WT1  7482 TIP3 OH2  OT    -0.834000       15.9994           0
   20157 WT1  7482 TIP3 H1   HT     0.417000        1.0080           0
   20158 WT1  7482 TIP3 H2   HT     0.417000        1.0080           0
   20159 WT1  7483 TIP3 OH2  OT    -0.834000       15.9994           0
   20160 WT1  7483 TIP3 H1   HT     0.417000        1.0080           0
   20161 WT1  7483 TIP3 H2   HT     0.417000        1.0080           0
   20162 WT1  7484 TIP3 OH2  OT    -0.834000       15.9994           0
   20163 WT1  7484 TIP3 H1   HT     0.417000        1.0080           0
   20164 WT1  7484 TIP3 H2   HT     0.417000        1.0080           0
   20165 WT1  7486 TIP3 OH2  OT    -0.834000       15.9994           0
   20166 WT1  7486 TIP3 H1   HT     0.417000        1.0080           0
   20167 WT1  7486 TIP3 H2   HT     0.417000        1.0080           0
   20168 WT1  7487 TIP3 OH2  OT    -0.834000       15.9994           0
   20169 WT1  7487 TIP3 H1   HT     0.417000        1.0080           0
   20170 WT1  7487 TIP3 H2   HT     0.417000        1.0080           0
   20171 WT1  7489 TIP3 OH2  OT    -0.834000       15.9994           0
   20172 WT1  7489 TIP3 H1   HT     0.417000        1.0080           0
   20173 WT1  7489 TIP3 H2   HT     0.417000        1.0080           0
   20174 WT1  7490 TIP3 OH2  OT    -0.834000       15.9994           0
   20175 WT1  7490 TIP3 H1   HT     0.417000        1.0080           0
   20176 WT1  7490 TIP3 H2   HT     0.417000        1.0080           0
   20177 WT1  7491 TIP3 OH2  OT    -0.834000       15.9994           0
   20178 WT1  7491 TIP3 H1   HT     0.417000        1.0080           0
   20179 WT1  7491 TIP3 H2   HT     0.417000        1.0080           0
   20180 WT1  7492 TIP3 OH2  OT    -0.834000       15.9994           0
   20181 WT1  7492 TIP3 H1   HT     0.417000        1.0080           0
   20182 WT1  7492 TIP3 H2   HT     0.417000        1.0080           0
   20183 WT1  7493 TIP3 OH2  OT    -0.834000       15.9994           0
   20184 WT1  7493 TIP3 H1   HT     0.417000        1.0080           0
   20185 WT1  7493 TIP3 H2   HT     0.417000        1.0080           0
   20186 WT1  7494 TIP3 OH2  OT    -0.834000       15.9994           0
   20187 WT1  7494 TIP3 H1   HT     0.417000        1.0080           0
   20188 WT1  7494 TIP3 H2   HT     0.417000        1.0080           0
   20189 WT1  7495 TIP3 OH2  OT    -0.834000       15.9994           0
   20190 WT1  7495 TIP3 H1   HT     0.417000        1.0080           0
   20191 WT1  7495 TIP3 H2   HT     0.417000        1.0080           0
   20192 WT1  7496 TIP3 OH2  OT    -0.834000       15.9994           0
   20193 WT1  7496 TIP3 H1   HT     0.417000        1.0080           0
   20194 WT1  7496 TIP3 H2   HT     0.417000        1.0080           0
   20195 WT1  7497 TIP3 OH2  OT    -0.834000       15.9994           0
   20196 WT1  7497 TIP3 H1   HT     0.417000        1.0080           0
   20197 WT1  7497 TIP3 H2   HT     0.417000        1.0080           0
   20198 WT1  7498 TIP3 OH2  OT    -0.834000       15.9994           0
   20199 WT1  7498 TIP3 H1   HT     0.417000        1.0080           0
   20200 WT1  7498 TIP3 H2   HT     0.417000        1.0080           0
   20201 WT1  7499 TIP3 OH2  OT    -0.834000       15.9994           0
   20202 WT1  7499 TIP3 H1   HT     0.417000        1.0080           0
   20203 WT1  7499 TIP3 H2   HT     0.417000        1.0080           0
   20204 WT1  7500 TIP3 OH2  OT    -0.834000       15.9994           0
   20205 WT1  7500 TIP3 H1   HT     0.417000        1.0080           0
   20206 WT1  7500 TIP3 H2   HT     0.417000        1.0080           0
   20207 WT1  7501 TIP3 OH2  OT    -0.834000       15.9994           0
   20208 WT1  7501 TIP3 H1   HT     0.417000        1.0080           0
   20209 WT1  7501 TIP3 H2   HT     0.417000        1.0080           0
   20210 WT1  7502 TIP3 OH2  OT    -0.834000       15.9994           0
   20211 WT1  7502 TIP3 H1   HT     0.417000        1.0080           0
   20212 WT1  7502 TIP3 H2   HT     0.417000        1.0080           0
   20213 WT1  7503 TIP3 OH2  OT    -0.834000       15.9994           0
   20214 WT1  7503 TIP3 H1   HT     0.417000        1.0080           0
   20215 WT1  7503 TIP3 H2   HT     0.417000        1.0080           0
   20216 WT1  7504 TIP3 OH2  OT    -0.834000       15.9994           0
   20217 WT1  7504 TIP3 H1   HT     0.417000        1.0080           0
   20218 WT1  7504 TIP3 H2   HT     0.417000        1.0080           0
   20219 WT1  7505 TIP3 OH2  OT    -0.834000       15.9994           0
   20220 WT1  7505 TIP3 H1   HT     0.417000        1.0080           0
   20221 WT1  7505 TIP3 H2   HT     0.417000        1.0080           0
   20222 WT1  7506 TIP3 OH2  OT    -0.834000       15.9994           0
   20223 WT1  7506 TIP3 H1   HT     0.417000        1.0080           0
   20224 WT1  7506 TIP3 H2   HT     0.417000        1.0080           0
   20225 WT1  7507 TIP3 OH2  OT    -0.834000       15.9994           0
   20226 WT1  7507 TIP3 H1   HT     0.417000        1.0080           0
   20227 WT1  7507 TIP3 H2   HT     0.417000        1.0080           0
   20228 WT1  7508 TIP3 OH2  OT    -0.834000       15.9994           0
   20229 WT1  7508 TIP3 H1   HT     0.417000        1.0080           0
   20230 WT1  7508 TIP3 H2   HT     0.417000        1.0080           0
   20231 WT1  7509 TIP3 OH2  OT    -0.834000       15.9994           0
   20232 WT1  7509 TIP3 H1   HT     0.417000        1.0080           0
   20233 WT1  7509 TIP3 H2   HT     0.417000        1.0080           0
   20234 WT1  7510 TIP3 OH2  OT    -0.834000       15.9994           0
   20235 WT1  7510 TIP3 H1   HT     0.417000        1.0080           0
   20236 WT1  7510 TIP3 H2   HT     0.417000        1.0080           0
   20237 WT1  7511 TIP3 OH2  OT    -0.834000       15.9994           0
   20238 WT1  7511 TIP3 H1   HT     0.417000        1.0080           0
   20239 WT1  7511 TIP3 H2   HT     0.417000        1.0080           0
   20240 WT1  7512 TIP3 OH2  OT    -0.834000       15.9994           0
   20241 WT1  7512 TIP3 H1   HT     0.417000        1.0080           0
   20242 WT1  7512 TIP3 H2   HT     0.417000        1.0080           0
   20243 WT1  7513 TIP3 OH2  OT    -0.834000       15.9994           0
   20244 WT1  7513 TIP3 H1   HT     0.417000        1.0080           0
   20245 WT1  7513 TIP3 H2   HT     0.417000        1.0080           0
   20246 WT1  7514 TIP3 OH2  OT    -0.834000       15.9994           0
   20247 WT1  7514 TIP3 H1   HT     0.417000        1.0080           0
   20248 WT1  7514 TIP3 H2   HT     0.417000        1.0080           0
   20249 WT1  7515 TIP3 OH2  OT    -0.834000       15.9994           0
   20250 WT1  7515 TIP3 H1   HT     0.417000        1.0080           0
   20251 WT1  7515 TIP3 H2   HT     0.417000        1.0080           0
   20252 WT1  7516 TIP3 OH2  OT    -0.834000       15.9994           0
   20253 WT1  7516 TIP3 H1   HT     0.417000        1.0080           0
   20254 WT1  7516 TIP3 H2   HT     0.417000        1.0080           0
   20255 WT1  7517 TIP3 OH2  OT    -0.834000       15.9994           0
   20256 WT1  7517 TIP3 H1   HT     0.417000        1.0080           0
   20257 WT1  7517 TIP3 H2   HT     0.417000        1.0080           0
   20258 WT1  7518 TIP3 OH2  OT    -0.834000       15.9994           0
   20259 WT1  7518 TIP3 H1   HT     0.417000        1.0080           0
   20260 WT1  7518 TIP3 H2   HT     0.417000        1.0080           0
   20261 WT1  7519 TIP3 OH2  OT    -0.834000       15.9994           0
   20262 WT1  7519 TIP3 H1   HT     0.417000        1.0080           0
   20263 WT1  7519 TIP3 H2   HT     0.417000        1.0080           0
   20264 WT1  7520 TIP3 OH2  OT    -0.834000       15.9994           0
   20265 WT1  7520 TIP3 H1   HT     0.417000        1.0080           0
   20266 WT1  7520 TIP3 H2   HT     0.417000        1.0080           0
   20267 WT1  7521 TIP3 OH2  OT    -0.834000       15.9994           0
   20268 WT1  7521 TIP3 H1   HT     0.417000        1.0080           0
   20269 WT1  7521 TIP3 H2   HT     0.417000        1.0080           0
   20270 WT1  7522 TIP3 OH2  OT    -0.834000       15.9994           0
   20271 WT1  7522 TIP3 H1   HT     0.417000        1.0080           0
   20272 WT1  7522 TIP3 H2   HT     0.417000        1.0080           0
   20273 WT1  7523 TIP3 OH2  OT    -0.834000       15.9994           0
   20274 WT1  7523 TIP3 H1   HT     0.417000        1.0080           0
   20275 WT1  7523 TIP3 H2   HT     0.417000        1.0080           0
   20276 WT1  7524 TIP3 OH2  OT    -0.834000       15.9994           0
   20277 WT1  7524 TIP3 H1   HT     0.417000        1.0080           0
   20278 WT1  7524 TIP3 H2   HT     0.417000        1.0080           0
   20279 WT1  7525 TIP3 OH2  OT    -0.834000       15.9994           0
   20280 WT1  7525 TIP3 H1   HT     0.417000        1.0080           0
   20281 WT1  7525 TIP3 H2   HT     0.417000        1.0080           0
   20282 WT1  7526 TIP3 OH2  OT    -0.834000       15.9994           0
   20283 WT1  7526 TIP3 H1   HT     0.417000        1.0080           0
   20284 WT1  7526 TIP3 H2   HT     0.417000        1.0080           0
   20285 WT1  7527 TIP3 OH2  OT    -0.834000       15.9994           0
   20286 WT1  7527 TIP3 H1   HT     0.417000        1.0080           0
   20287 WT1  7527 TIP3 H2   HT     0.417000        1.0080           0
   20288 WT1  7530 TIP3 OH2  OT    -0.834000       15.9994           0
   20289 WT1  7530 TIP3 H1   HT     0.417000        1.0080           0
   20290 WT1  7530 TIP3 H2   HT     0.417000        1.0080           0
   20291 WT1  7531 TIP3 OH2  OT    -0.834000       15.9994           0
   20292 WT1  7531 TIP3 H1   HT     0.417000        1.0080           0
   20293 WT1  7531 TIP3 H2   HT     0.417000        1.0080           0
   20294 WT1  7532 TIP3 OH2  OT    -0.834000       15.9994           0
   20295 WT1  7532 TIP3 H1   HT     0.417000        1.0080           0
   20296 WT1  7532 TIP3 H2   HT     0.417000        1.0080           0
   20297 WT1  7534 TIP3 OH2  OT    -0.834000       15.9994           0
   20298 WT1  7534 TIP3 H1   HT     0.417000        1.0080           0
   20299 WT1  7534 TIP3 H2   HT     0.417000        1.0080           0
   20300 WT1  7536 TIP3 OH2  OT    -0.834000       15.9994           0
   20301 WT1  7536 TIP3 H1   HT     0.417000        1.0080           0
   20302 WT1  7536 TIP3 H2   HT     0.417000        1.0080           0
   20303 WT1  7537 TIP3 OH2  OT    -0.834000       15.9994           0
   20304 WT1  7537 TIP3 H1   HT     0.417000        1.0080           0
   20305 WT1  7537 TIP3 H2   HT     0.417000        1.0080           0
   20306 WT1  7538 TIP3 OH2  OT    -0.834000       15.9994           0
   20307 WT1  7538 TIP3 H1   HT     0.417000        1.0080           0
   20308 WT1  7538 TIP3 H2   HT     0.417000        1.0080           0
   20309 WT1  7539 TIP3 OH2  OT    -0.834000       15.9994           0
   20310 WT1  7539 TIP3 H1   HT     0.417000        1.0080           0
   20311 WT1  7539 TIP3 H2   HT     0.417000        1.0080           0
   20312 WT1  7540 TIP3 OH2  OT    -0.834000       15.9994           0
   20313 WT1  7540 TIP3 H1   HT     0.417000        1.0080           0
   20314 WT1  7540 TIP3 H2   HT     0.417000        1.0080           0
   20315 WT1  7541 TIP3 OH2  OT    -0.834000       15.9994           0
   20316 WT1  7541 TIP3 H1   HT     0.417000        1.0080           0
   20317 WT1  7541 TIP3 H2   HT     0.417000        1.0080           0
   20318 WT1  7542 TIP3 OH2  OT    -0.834000       15.9994           0
   20319 WT1  7542 TIP3 H1   HT     0.417000        1.0080           0
   20320 WT1  7542 TIP3 H2   HT     0.417000        1.0080           0
   20321 WT1  7543 TIP3 OH2  OT    -0.834000       15.9994           0
   20322 WT1  7543 TIP3 H1   HT     0.417000        1.0080           0
   20323 WT1  7543 TIP3 H2   HT     0.417000        1.0080           0
   20324 WT1  7544 TIP3 OH2  OT    -0.834000       15.9994           0
   20325 WT1  7544 TIP3 H1   HT     0.417000        1.0080           0
   20326 WT1  7544 TIP3 H2   HT     0.417000        1.0080           0
   20327 WT1  7545 TIP3 OH2  OT    -0.834000       15.9994           0
   20328 WT1  7545 TIP3 H1   HT     0.417000        1.0080           0
   20329 WT1  7545 TIP3 H2   HT     0.417000        1.0080           0
   20330 WT1  7546 TIP3 OH2  OT    -0.834000       15.9994           0
   20331 WT1  7546 TIP3 H1   HT     0.417000        1.0080           0
   20332 WT1  7546 TIP3 H2   HT     0.417000        1.0080           0
   20333 WT1  7547 TIP3 OH2  OT    -0.834000       15.9994           0
   20334 WT1  7547 TIP3 H1   HT     0.417000        1.0080           0
   20335 WT1  7547 TIP3 H2   HT     0.417000        1.0080           0
   20336 WT1  7548 TIP3 OH2  OT    -0.834000       15.9994           0
   20337 WT1  7548 TIP3 H1   HT     0.417000        1.0080           0
   20338 WT1  7548 TIP3 H2   HT     0.417000        1.0080           0
   20339 WT1  7549 TIP3 OH2  OT    -0.834000       15.9994           0
   20340 WT1  7549 TIP3 H1   HT     0.417000        1.0080           0
   20341 WT1  7549 TIP3 H2   HT     0.417000        1.0080           0
   20342 WT1  7550 TIP3 OH2  OT    -0.834000       15.9994           0
   20343 WT1  7550 TIP3 H1   HT     0.417000        1.0080           0
   20344 WT1  7550 TIP3 H2   HT     0.417000        1.0080           0
   20345 WT1  7551 TIP3 OH2  OT    -0.834000       15.9994           0
   20346 WT1  7551 TIP3 H1   HT     0.417000        1.0080           0
   20347 WT1  7551 TIP3 H2   HT     0.417000        1.0080           0
   20348 WT1  7552 TIP3 OH2  OT    -0.834000       15.9994           0
   20349 WT1  7552 TIP3 H1   HT     0.417000        1.0080           0
   20350 WT1  7552 TIP3 H2   HT     0.417000        1.0080           0
   20351 WT1  7553 TIP3 OH2  OT    -0.834000       15.9994           0
   20352 WT1  7553 TIP3 H1   HT     0.417000        1.0080           0
   20353 WT1  7553 TIP3 H2   HT     0.417000        1.0080           0
   20354 WT1  7554 TIP3 OH2  OT    -0.834000       15.9994           0
   20355 WT1  7554 TIP3 H1   HT     0.417000        1.0080           0
   20356 WT1  7554 TIP3 H2   HT     0.417000        1.0080           0
   20357 WT1  7555 TIP3 OH2  OT    -0.834000       15.9994           0
   20358 WT1  7555 TIP3 H1   HT     0.417000        1.0080           0
   20359 WT1  7555 TIP3 H2   HT     0.417000        1.0080           0
   20360 WT1  7556 TIP3 OH2  OT    -0.834000       15.9994           0
   20361 WT1  7556 TIP3 H1   HT     0.417000        1.0080           0
   20362 WT1  7556 TIP3 H2   HT     0.417000        1.0080           0
   20363 WT1  7557 TIP3 OH2  OT    -0.834000       15.9994           0
   20364 WT1  7557 TIP3 H1   HT     0.417000        1.0080           0
   20365 WT1  7557 TIP3 H2   HT     0.417000        1.0080           0
   20366 WT1  7558 TIP3 OH2  OT    -0.834000       15.9994           0
   20367 WT1  7558 TIP3 H1   HT     0.417000        1.0080           0
   20368 WT1  7558 TIP3 H2   HT     0.417000        1.0080           0
   20369 WT1  7559 TIP3 OH2  OT    -0.834000       15.9994           0
   20370 WT1  7559 TIP3 H1   HT     0.417000        1.0080           0
   20371 WT1  7559 TIP3 H2   HT     0.417000        1.0080           0
   20372 WT1  7560 TIP3 OH2  OT    -0.834000       15.9994           0
   20373 WT1  7560 TIP3 H1   HT     0.417000        1.0080           0
   20374 WT1  7560 TIP3 H2   HT     0.417000        1.0080           0
   20375 WT1  7561 TIP3 OH2  OT    -0.834000       15.9994           0
   20376 WT1  7561 TIP3 H1   HT     0.417000        1.0080           0
   20377 WT1  7561 TIP3 H2   HT     0.417000        1.0080           0
   20378 WT1  7562 TIP3 OH2  OT    -0.834000       15.9994           0
   20379 WT1  7562 TIP3 H1   HT     0.417000        1.0080           0
   20380 WT1  7562 TIP3 H2   HT     0.417000        1.0080           0
   20381 WT1  7563 TIP3 OH2  OT    -0.834000       15.9994           0
   20382 WT1  7563 TIP3 H1   HT     0.417000        1.0080           0
   20383 WT1  7563 TIP3 H2   HT     0.417000        1.0080           0
   20384 WT1  7564 TIP3 OH2  OT    -0.834000       15.9994           0
   20385 WT1  7564 TIP3 H1   HT     0.417000        1.0080           0
   20386 WT1  7564 TIP3 H2   HT     0.417000        1.0080           0
   20387 WT1  7565 TIP3 OH2  OT    -0.834000       15.9994           0
   20388 WT1  7565 TIP3 H1   HT     0.417000        1.0080           0
   20389 WT1  7565 TIP3 H2   HT     0.417000        1.0080           0
   20390 WT1  7567 TIP3 OH2  OT    -0.834000       15.9994           0
   20391 WT1  7567 TIP3 H1   HT     0.417000        1.0080           0
   20392 WT1  7567 TIP3 H2   HT     0.417000        1.0080           0
   20393 WT1  7568 TIP3 OH2  OT    -0.834000       15.9994           0
   20394 WT1  7568 TIP3 H1   HT     0.417000        1.0080           0
   20395 WT1  7568 TIP3 H2   HT     0.417000        1.0080           0
   20396 WT1  7569 TIP3 OH2  OT    -0.834000       15.9994           0
   20397 WT1  7569 TIP3 H1   HT     0.417000        1.0080           0
   20398 WT1  7569 TIP3 H2   HT     0.417000        1.0080           0
   20399 WT1  7570 TIP3 OH2  OT    -0.834000       15.9994           0
   20400 WT1  7570 TIP3 H1   HT     0.417000        1.0080           0
   20401 WT1  7570 TIP3 H2   HT     0.417000        1.0080           0
   20402 WT1  7571 TIP3 OH2  OT    -0.834000       15.9994           0
   20403 WT1  7571 TIP3 H1   HT     0.417000        1.0080           0
   20404 WT1  7571 TIP3 H2   HT     0.417000        1.0080           0
   20405 WT1  7572 TIP3 OH2  OT    -0.834000       15.9994           0
   20406 WT1  7572 TIP3 H1   HT     0.417000        1.0080           0
   20407 WT1  7572 TIP3 H2   HT     0.417000        1.0080           0
   20408 WT1  7575 TIP3 OH2  OT    -0.834000       15.9994           0
   20409 WT1  7575 TIP3 H1   HT     0.417000        1.0080           0
   20410 WT1  7575 TIP3 H2   HT     0.417000        1.0080           0
   20411 WT1  7576 TIP3 OH2  OT    -0.834000       15.9994           0
   20412 WT1  7576 TIP3 H1   HT     0.417000        1.0080           0
   20413 WT1  7576 TIP3 H2   HT     0.417000        1.0080           0
   20414 WT1  7577 TIP3 OH2  OT    -0.834000       15.9994           0
   20415 WT1  7577 TIP3 H1   HT     0.417000        1.0080           0
   20416 WT1  7577 TIP3 H2   HT     0.417000        1.0080           0
   20417 WT1  7579 TIP3 OH2  OT    -0.834000       15.9994           0
   20418 WT1  7579 TIP3 H1   HT     0.417000        1.0080           0
   20419 WT1  7579 TIP3 H2   HT     0.417000        1.0080           0
   20420 WT1  7580 TIP3 OH2  OT    -0.834000       15.9994           0
   20421 WT1  7580 TIP3 H1   HT     0.417000        1.0080           0
   20422 WT1  7580 TIP3 H2   HT     0.417000        1.0080           0
   20423 WT1  7582 TIP3 OH2  OT    -0.834000       15.9994           0
   20424 WT1  7582 TIP3 H1   HT     0.417000        1.0080           0
   20425 WT1  7582 TIP3 H2   HT     0.417000        1.0080           0
   20426 WT1  7584 TIP3 OH2  OT    -0.834000       15.9994           0
   20427 WT1  7584 TIP3 H1   HT     0.417000        1.0080           0
   20428 WT1  7584 TIP3 H2   HT     0.417000        1.0080           0
   20429 WT1  7585 TIP3 OH2  OT    -0.834000       15.9994           0
   20430 WT1  7585 TIP3 H1   HT     0.417000        1.0080           0
   20431 WT1  7585 TIP3 H2   HT     0.417000        1.0080           0
   20432 WT1  7586 TIP3 OH2  OT    -0.834000       15.9994           0
   20433 WT1  7586 TIP3 H1   HT     0.417000        1.0080           0
   20434 WT1  7586 TIP3 H2   HT     0.417000        1.0080           0
   20435 WT1  7587 TIP3 OH2  OT    -0.834000       15.9994           0
   20436 WT1  7587 TIP3 H1   HT     0.417000        1.0080           0
   20437 WT1  7587 TIP3 H2   HT     0.417000        1.0080           0
   20438 WT1  7588 TIP3 OH2  OT    -0.834000       15.9994           0
   20439 WT1  7588 TIP3 H1   HT     0.417000        1.0080           0
   20440 WT1  7588 TIP3 H2   HT     0.417000        1.0080           0
   20441 WT1  7589 TIP3 OH2  OT    -0.834000       15.9994           0
   20442 WT1  7589 TIP3 H1   HT     0.417000        1.0080           0
   20443 WT1  7589 TIP3 H2   HT     0.417000        1.0080           0
   20444 WT1  7590 TIP3 OH2  OT    -0.834000       15.9994           0
   20445 WT1  7590 TIP3 H1   HT     0.417000        1.0080           0
   20446 WT1  7590 TIP3 H2   HT     0.417000        1.0080           0
   20447 WT1  7591 TIP3 OH2  OT    -0.834000       15.9994           0
   20448 WT1  7591 TIP3 H1   HT     0.417000        1.0080           0
   20449 WT1  7591 TIP3 H2   HT     0.417000        1.0080           0
   20450 WT1  7592 TIP3 OH2  OT    -0.834000       15.9994           0
   20451 WT1  7592 TIP3 H1   HT     0.417000        1.0080           0
   20452 WT1  7592 TIP3 H2   HT     0.417000        1.0080           0
   20453 WT1  7593 TIP3 OH2  OT    -0.834000       15.9994           0
   20454 WT1  7593 TIP3 H1   HT     0.417000        1.0080           0
   20455 WT1  7593 TIP3 H2   HT     0.417000        1.0080           0
   20456 WT1  7594 TIP3 OH2  OT    -0.834000       15.9994           0
   20457 WT1  7594 TIP3 H1   HT     0.417000        1.0080           0
   20458 WT1  7594 TIP3 H2   HT     0.417000        1.0080           0
   20459 WT1  7595 TIP3 OH2  OT    -0.834000       15.9994           0
   20460 WT1  7595 TIP3 H1   HT     0.417000        1.0080           0
   20461 WT1  7595 TIP3 H2   HT     0.417000        1.0080           0
   20462 WT1  7596 TIP3 OH2  OT    -0.834000       15.9994           0
   20463 WT1  7596 TIP3 H1   HT     0.417000        1.0080           0
   20464 WT1  7596 TIP3 H2   HT     0.417000        1.0080           0
   20465 WT1  7597 TIP3 OH2  OT    -0.834000       15.9994           0
   20466 WT1  7597 TIP3 H1   HT     0.417000        1.0080           0
   20467 WT1  7597 TIP3 H2   HT     0.417000        1.0080           0
   20468 WT1  7598 TIP3 OH2  OT    -0.834000       15.9994           0
   20469 WT1  7598 TIP3 H1   HT     0.417000        1.0080           0
   20470 WT1  7598 TIP3 H2   HT     0.417000        1.0080           0
   20471 WT1  7599 TIP3 OH2  OT    -0.834000       15.9994           0
   20472 WT1  7599 TIP3 H1   HT     0.417000        1.0080           0
   20473 WT1  7599 TIP3 H2   HT     0.417000        1.0080           0
   20474 WT1  7600 TIP3 OH2  OT    -0.834000       15.9994           0
   20475 WT1  7600 TIP3 H1   HT     0.417000        1.0080           0
   20476 WT1  7600 TIP3 H2   HT     0.417000        1.0080           0
   20477 WT1  7601 TIP3 OH2  OT    -0.834000       15.9994           0
   20478 WT1  7601 TIP3 H1   HT     0.417000        1.0080           0
   20479 WT1  7601 TIP3 H2   HT     0.417000        1.0080           0
   20480 WT1  7602 TIP3 OH2  OT    -0.834000       15.9994           0
   20481 WT1  7602 TIP3 H1   HT     0.417000        1.0080           0
   20482 WT1  7602 TIP3 H2   HT     0.417000        1.0080           0
   20483 WT1  7603 TIP3 OH2  OT    -0.834000       15.9994           0
   20484 WT1  7603 TIP3 H1   HT     0.417000        1.0080           0
   20485 WT1  7603 TIP3 H2   HT     0.417000        1.0080           0
   20486 WT1  7604 TIP3 OH2  OT    -0.834000       15.9994           0
   20487 WT1  7604 TIP3 H1   HT     0.417000        1.0080           0
   20488 WT1  7604 TIP3 H2   HT     0.417000        1.0080           0
   20489 WT1  7605 TIP3 OH2  OT    -0.834000       15.9994           0
   20490 WT1  7605 TIP3 H1   HT     0.417000        1.0080           0
   20491 WT1  7605 TIP3 H2   HT     0.417000        1.0080           0
   20492 WT1  7606 TIP3 OH2  OT    -0.834000       15.9994           0
   20493 WT1  7606 TIP3 H1   HT     0.417000        1.0080           0
   20494 WT1  7606 TIP3 H2   HT     0.417000        1.0080           0
   20495 WT1  7608 TIP3 OH2  OT    -0.834000       15.9994           0
   20496 WT1  7608 TIP3 H1   HT     0.417000        1.0080           0
   20497 WT1  7608 TIP3 H2   HT     0.417000        1.0080           0
   20498 WT1  7609 TIP3 OH2  OT    -0.834000       15.9994           0
   20499 WT1  7609 TIP3 H1   HT     0.417000        1.0080           0
   20500 WT1  7609 TIP3 H2   HT     0.417000        1.0080           0
   20501 WT1  7610 TIP3 OH2  OT    -0.834000       15.9994           0
   20502 WT1  7610 TIP3 H1   HT     0.417000        1.0080           0
   20503 WT1  7610 TIP3 H2   HT     0.417000        1.0080           0
   20504 WT1  7611 TIP3 OH2  OT    -0.834000       15.9994           0
   20505 WT1  7611 TIP3 H1   HT     0.417000        1.0080           0
   20506 WT1  7611 TIP3 H2   HT     0.417000        1.0080           0
   20507 WT1  7612 TIP3 OH2  OT    -0.834000       15.9994           0
   20508 WT1  7612 TIP3 H1   HT     0.417000        1.0080           0
   20509 WT1  7612 TIP3 H2   HT     0.417000        1.0080           0
   20510 WT1  7613 TIP3 OH2  OT    -0.834000       15.9994           0
   20511 WT1  7613 TIP3 H1   HT     0.417000        1.0080           0
   20512 WT1  7613 TIP3 H2   HT     0.417000        1.0080           0
   20513 WT1  7614 TIP3 OH2  OT    -0.834000       15.9994           0
   20514 WT1  7614 TIP3 H1   HT     0.417000        1.0080           0
   20515 WT1  7614 TIP3 H2   HT     0.417000        1.0080           0
   20516 WT1  7615 TIP3 OH2  OT    -0.834000       15.9994           0
   20517 WT1  7615 TIP3 H1   HT     0.417000        1.0080           0
   20518 WT1  7615 TIP3 H2   HT     0.417000        1.0080           0
   20519 WT1  7616 TIP3 OH2  OT    -0.834000       15.9994           0
   20520 WT1  7616 TIP3 H1   HT     0.417000        1.0080           0
   20521 WT1  7616 TIP3 H2   HT     0.417000        1.0080           0
   20522 WT1  7617 TIP3 OH2  OT    -0.834000       15.9994           0
   20523 WT1  7617 TIP3 H1   HT     0.417000        1.0080           0
   20524 WT1  7617 TIP3 H2   HT     0.417000        1.0080           0
   20525 WT1  7618 TIP3 OH2  OT    -0.834000       15.9994           0
   20526 WT1  7618 TIP3 H1   HT     0.417000        1.0080           0
   20527 WT1  7618 TIP3 H2   HT     0.417000        1.0080           0
   20528 WT1  7619 TIP3 OH2  OT    -0.834000       15.9994           0
   20529 WT1  7619 TIP3 H1   HT     0.417000        1.0080           0
   20530 WT1  7619 TIP3 H2   HT     0.417000        1.0080           0
   20531 WT1  7622 TIP3 OH2  OT    -0.834000       15.9994           0
   20532 WT1  7622 TIP3 H1   HT     0.417000        1.0080           0
   20533 WT1  7622 TIP3 H2   HT     0.417000        1.0080           0
   20534 WT1  7623 TIP3 OH2  OT    -0.834000       15.9994           0
   20535 WT1  7623 TIP3 H1   HT     0.417000        1.0080           0
   20536 WT1  7623 TIP3 H2   HT     0.417000        1.0080           0
   20537 WT1  7624 TIP3 OH2  OT    -0.834000       15.9994           0
   20538 WT1  7624 TIP3 H1   HT     0.417000        1.0080           0
   20539 WT1  7624 TIP3 H2   HT     0.417000        1.0080           0
   20540 WT1  7625 TIP3 OH2  OT    -0.834000       15.9994           0
   20541 WT1  7625 TIP3 H1   HT     0.417000        1.0080           0
   20542 WT1  7625 TIP3 H2   HT     0.417000        1.0080           0
   20543 WT1  7626 TIP3 OH2  OT    -0.834000       15.9994           0
   20544 WT1  7626 TIP3 H1   HT     0.417000        1.0080           0
   20545 WT1  7626 TIP3 H2   HT     0.417000        1.0080           0
   20546 WT1  7627 TIP3 OH2  OT    -0.834000       15.9994           0
   20547 WT1  7627 TIP3 H1   HT     0.417000        1.0080           0
   20548 WT1  7627 TIP3 H2   HT     0.417000        1.0080           0
   20549 WT1  7628 TIP3 OH2  OT    -0.834000       15.9994           0
   20550 WT1  7628 TIP3 H1   HT     0.417000        1.0080           0
   20551 WT1  7628 TIP3 H2   HT     0.417000        1.0080           0
   20552 WT1  7630 TIP3 OH2  OT    -0.834000       15.9994           0
   20553 WT1  7630 TIP3 H1   HT     0.417000        1.0080           0
   20554 WT1  7630 TIP3 H2   HT     0.417000        1.0080           0
   20555 WT1  7631 TIP3 OH2  OT    -0.834000       15.9994           0
   20556 WT1  7631 TIP3 H1   HT     0.417000        1.0080           0
   20557 WT1  7631 TIP3 H2   HT     0.417000        1.0080           0
   20558 WT1  7632 TIP3 OH2  OT    -0.834000       15.9994           0
   20559 WT1  7632 TIP3 H1   HT     0.417000        1.0080           0
   20560 WT1  7632 TIP3 H2   HT     0.417000        1.0080           0
   20561 WT1  7633 TIP3 OH2  OT    -0.834000       15.9994           0
   20562 WT1  7633 TIP3 H1   HT     0.417000        1.0080           0
   20563 WT1  7633 TIP3 H2   HT     0.417000        1.0080           0
   20564 WT1  7634 TIP3 OH2  OT    -0.834000       15.9994           0
   20565 WT1  7634 TIP3 H1   HT     0.417000        1.0080           0
   20566 WT1  7634 TIP3 H2   HT     0.417000        1.0080           0
   20567 WT1  7635 TIP3 OH2  OT    -0.834000       15.9994           0
   20568 WT1  7635 TIP3 H1   HT     0.417000        1.0080           0
   20569 WT1  7635 TIP3 H2   HT     0.417000        1.0080           0
   20570 WT1  7636 TIP3 OH2  OT    -0.834000       15.9994           0
   20571 WT1  7636 TIP3 H1   HT     0.417000        1.0080           0
   20572 WT1  7636 TIP3 H2   HT     0.417000        1.0080           0
   20573 WT1  7637 TIP3 OH2  OT    -0.834000       15.9994           0
   20574 WT1  7637 TIP3 H1   HT     0.417000        1.0080           0
   20575 WT1  7637 TIP3 H2   HT     0.417000        1.0080           0
   20576 WT1  7638 TIP3 OH2  OT    -0.834000       15.9994           0
   20577 WT1  7638 TIP3 H1   HT     0.417000        1.0080           0
   20578 WT1  7638 TIP3 H2   HT     0.417000        1.0080           0
   20579 WT1  7639 TIP3 OH2  OT    -0.834000       15.9994           0
   20580 WT1  7639 TIP3 H1   HT     0.417000        1.0080           0
   20581 WT1  7639 TIP3 H2   HT     0.417000        1.0080           0
   20582 WT1  7640 TIP3 OH2  OT    -0.834000       15.9994           0
   20583 WT1  7640 TIP3 H1   HT     0.417000        1.0080           0
   20584 WT1  7640 TIP3 H2   HT     0.417000        1.0080           0
   20585 WT1  7641 TIP3 OH2  OT    -0.834000       15.9994           0
   20586 WT1  7641 TIP3 H1   HT     0.417000        1.0080           0
   20587 WT1  7641 TIP3 H2   HT     0.417000        1.0080           0
   20588 WT1  7642 TIP3 OH2  OT    -0.834000       15.9994           0
   20589 WT1  7642 TIP3 H1   HT     0.417000        1.0080           0
   20590 WT1  7642 TIP3 H2   HT     0.417000        1.0080           0
   20591 WT1  7643 TIP3 OH2  OT    -0.834000       15.9994           0
   20592 WT1  7643 TIP3 H1   HT     0.417000        1.0080           0
   20593 WT1  7643 TIP3 H2   HT     0.417000        1.0080           0
   20594 WT1  7644 TIP3 OH2  OT    -0.834000       15.9994           0
   20595 WT1  7644 TIP3 H1   HT     0.417000        1.0080           0
   20596 WT1  7644 TIP3 H2   HT     0.417000        1.0080           0
   20597 WT1  7645 TIP3 OH2  OT    -0.834000       15.9994           0
   20598 WT1  7645 TIP3 H1   HT     0.417000        1.0080           0
   20599 WT1  7645 TIP3 H2   HT     0.417000        1.0080           0
   20600 WT1  7646 TIP3 OH2  OT    -0.834000       15.9994           0
   20601 WT1  7646 TIP3 H1   HT     0.417000        1.0080           0
   20602 WT1  7646 TIP3 H2   HT     0.417000        1.0080           0
   20603 WT1  7647 TIP3 OH2  OT    -0.834000       15.9994           0
   20604 WT1  7647 TIP3 H1   HT     0.417000        1.0080           0
   20605 WT1  7647 TIP3 H2   HT     0.417000        1.0080           0
   20606 WT1  7648 TIP3 OH2  OT    -0.834000       15.9994           0
   20607 WT1  7648 TIP3 H1   HT     0.417000        1.0080           0
   20608 WT1  7648 TIP3 H2   HT     0.417000        1.0080           0
   20609 WT1  7649 TIP3 OH2  OT    -0.834000       15.9994           0
   20610 WT1  7649 TIP3 H1   HT     0.417000        1.0080           0
   20611 WT1  7649 TIP3 H2   HT     0.417000        1.0080           0
   20612 WT1  7650 TIP3 OH2  OT    -0.834000       15.9994           0
   20613 WT1  7650 TIP3 H1   HT     0.417000        1.0080           0
   20614 WT1  7650 TIP3 H2   HT     0.417000        1.0080           0
   20615 WT1  7651 TIP3 OH2  OT    -0.834000       15.9994           0
   20616 WT1  7651 TIP3 H1   HT     0.417000        1.0080           0
   20617 WT1  7651 TIP3 H2   HT     0.417000        1.0080           0
   20618 WT1  7652 TIP3 OH2  OT    -0.834000       15.9994           0
   20619 WT1  7652 TIP3 H1   HT     0.417000        1.0080           0
   20620 WT1  7652 TIP3 H2   HT     0.417000        1.0080           0
   20621 WT1  7653 TIP3 OH2  OT    -0.834000       15.9994           0
   20622 WT1  7653 TIP3 H1   HT     0.417000        1.0080           0
   20623 WT1  7653 TIP3 H2   HT     0.417000        1.0080           0
   20624 WT1  7654 TIP3 OH2  OT    -0.834000       15.9994           0
   20625 WT1  7654 TIP3 H1   HT     0.417000        1.0080           0
   20626 WT1  7654 TIP3 H2   HT     0.417000        1.0080           0
   20627 WT1  7655 TIP3 OH2  OT    -0.834000       15.9994           0
   20628 WT1  7655 TIP3 H1   HT     0.417000        1.0080           0
   20629 WT1  7655 TIP3 H2   HT     0.417000        1.0080           0
   20630 WT1  7656 TIP3 OH2  OT    -0.834000       15.9994           0
   20631 WT1  7656 TIP3 H1   HT     0.417000        1.0080           0
   20632 WT1  7656 TIP3 H2   HT     0.417000        1.0080           0
   20633 WT1  7657 TIP3 OH2  OT    -0.834000       15.9994           0
   20634 WT1  7657 TIP3 H1   HT     0.417000        1.0080           0
   20635 WT1  7657 TIP3 H2   HT     0.417000        1.0080           0
   20636 WT1  7658 TIP3 OH2  OT    -0.834000       15.9994           0
   20637 WT1  7658 TIP3 H1   HT     0.417000        1.0080           0
   20638 WT1  7658 TIP3 H2   HT     0.417000        1.0080           0
   20639 WT1  7659 TIP3 OH2  OT    -0.834000       15.9994           0
   20640 WT1  7659 TIP3 H1   HT     0.417000        1.0080           0
   20641 WT1  7659 TIP3 H2   HT     0.417000        1.0080           0
   20642 WT1  7662 TIP3 OH2  OT    -0.834000       15.9994           0
   20643 WT1  7662 TIP3 H1   HT     0.417000        1.0080           0
   20644 WT1  7662 TIP3 H2   HT     0.417000        1.0080           0
   20645 WT1  7663 TIP3 OH2  OT    -0.834000       15.9994           0
   20646 WT1  7663 TIP3 H1   HT     0.417000        1.0080           0
   20647 WT1  7663 TIP3 H2   HT     0.417000        1.0080           0
   20648 WT1  7664 TIP3 OH2  OT    -0.834000       15.9994           0
   20649 WT1  7664 TIP3 H1   HT     0.417000        1.0080           0
   20650 WT1  7664 TIP3 H2   HT     0.417000        1.0080           0
   20651 WT1  7665 TIP3 OH2  OT    -0.834000       15.9994           0
   20652 WT1  7665 TIP3 H1   HT     0.417000        1.0080           0
   20653 WT1  7665 TIP3 H2   HT     0.417000        1.0080           0
   20654 WT1  7666 TIP3 OH2  OT    -0.834000       15.9994           0
   20655 WT1  7666 TIP3 H1   HT     0.417000        1.0080           0
   20656 WT1  7666 TIP3 H2   HT     0.417000        1.0080           0
   20657 WT1  7667 TIP3 OH2  OT    -0.834000       15.9994           0
   20658 WT1  7667 TIP3 H1   HT     0.417000        1.0080           0
   20659 WT1  7667 TIP3 H2   HT     0.417000        1.0080           0
   20660 WT1  7668 TIP3 OH2  OT    -0.834000       15.9994           0
   20661 WT1  7668 TIP3 H1   HT     0.417000        1.0080           0
   20662 WT1  7668 TIP3 H2   HT     0.417000        1.0080           0
   20663 WT1  7669 TIP3 OH2  OT    -0.834000       15.9994           0
   20664 WT1  7669 TIP3 H1   HT     0.417000        1.0080           0
   20665 WT1  7669 TIP3 H2   HT     0.417000        1.0080           0
   20666 WT1  7670 TIP3 OH2  OT    -0.834000       15.9994           0
   20667 WT1  7670 TIP3 H1   HT     0.417000        1.0080           0
   20668 WT1  7670 TIP3 H2   HT     0.417000        1.0080           0
   20669 WT1  7671 TIP3 OH2  OT    -0.834000       15.9994           0
   20670 WT1  7671 TIP3 H1   HT     0.417000        1.0080           0
   20671 WT1  7671 TIP3 H2   HT     0.417000        1.0080           0
   20672 WT1  7672 TIP3 OH2  OT    -0.834000       15.9994           0
   20673 WT1  7672 TIP3 H1   HT     0.417000        1.0080           0
   20674 WT1  7672 TIP3 H2   HT     0.417000        1.0080           0
   20675 WT1  7673 TIP3 OH2  OT    -0.834000       15.9994           0
   20676 WT1  7673 TIP3 H1   HT     0.417000        1.0080           0
   20677 WT1  7673 TIP3 H2   HT     0.417000        1.0080           0
   20678 WT1  7674 TIP3 OH2  OT    -0.834000       15.9994           0
   20679 WT1  7674 TIP3 H1   HT     0.417000        1.0080           0
   20680 WT1  7674 TIP3 H2   HT     0.417000        1.0080           0
   20681 WT1  7675 TIP3 OH2  OT    -0.834000       15.9994           0
   20682 WT1  7675 TIP3 H1   HT     0.417000        1.0080           0
   20683 WT1  7675 TIP3 H2   HT     0.417000        1.0080           0
   20684 WT1  7676 TIP3 OH2  OT    -0.834000       15.9994           0
   20685 WT1  7676 TIP3 H1   HT     0.417000        1.0080           0
   20686 WT1  7676 TIP3 H2   HT     0.417000        1.0080           0
   20687 WT1  7678 TIP3 OH2  OT    -0.834000       15.9994           0
   20688 WT1  7678 TIP3 H1   HT     0.417000        1.0080           0
   20689 WT1  7678 TIP3 H2   HT     0.417000        1.0080           0
   20690 WT1  7679 TIP3 OH2  OT    -0.834000       15.9994           0
   20691 WT1  7679 TIP3 H1   HT     0.417000        1.0080           0
   20692 WT1  7679 TIP3 H2   HT     0.417000        1.0080           0
   20693 WT1  7680 TIP3 OH2  OT    -0.834000       15.9994           0
   20694 WT1  7680 TIP3 H1   HT     0.417000        1.0080           0
   20695 WT1  7680 TIP3 H2   HT     0.417000        1.0080           0
   20696 WT1  7681 TIP3 OH2  OT    -0.834000       15.9994           0
   20697 WT1  7681 TIP3 H1   HT     0.417000        1.0080           0
   20698 WT1  7681 TIP3 H2   HT     0.417000        1.0080           0
   20699 WT1  7682 TIP3 OH2  OT    -0.834000       15.9994           0
   20700 WT1  7682 TIP3 H1   HT     0.417000        1.0080           0
   20701 WT1  7682 TIP3 H2   HT     0.417000        1.0080           0
   20702 WT1  7683 TIP3 OH2  OT    -0.834000       15.9994           0
   20703 WT1  7683 TIP3 H1   HT     0.417000        1.0080           0
   20704 WT1  7683 TIP3 H2   HT     0.417000        1.0080           0
   20705 WT1  7684 TIP3 OH2  OT    -0.834000       15.9994           0
   20706 WT1  7684 TIP3 H1   HT     0.417000        1.0080           0
   20707 WT1  7684 TIP3 H2   HT     0.417000        1.0080           0
   20708 WT1  7685 TIP3 OH2  OT    -0.834000       15.9994           0
   20709 WT1  7685 TIP3 H1   HT     0.417000        1.0080           0
   20710 WT1  7685 TIP3 H2   HT     0.417000        1.0080           0
   20711 WT1  7688 TIP3 OH2  OT    -0.834000       15.9994           0
   20712 WT1  7688 TIP3 H1   HT     0.417000        1.0080           0
   20713 WT1  7688 TIP3 H2   HT     0.417000        1.0080           0
   20714 WT1  7690 TIP3 OH2  OT    -0.834000       15.9994           0
   20715 WT1  7690 TIP3 H1   HT     0.417000        1.0080           0
   20716 WT1  7690 TIP3 H2   HT     0.417000        1.0080           0
   20717 WT1  7691 TIP3 OH2  OT    -0.834000       15.9994           0
   20718 WT1  7691 TIP3 H1   HT     0.417000        1.0080           0
   20719 WT1  7691 TIP3 H2   HT     0.417000        1.0080           0
   20720 WT1  7692 TIP3 OH2  OT    -0.834000       15.9994           0
   20721 WT1  7692 TIP3 H1   HT     0.417000        1.0080           0
   20722 WT1  7692 TIP3 H2   HT     0.417000        1.0080           0
   20723 WT1  7693 TIP3 OH2  OT    -0.834000       15.9994           0
   20724 WT1  7693 TIP3 H1   HT     0.417000        1.0080           0
   20725 WT1  7693 TIP3 H2   HT     0.417000        1.0080           0
   20726 WT1  7694 TIP3 OH2  OT    -0.834000       15.9994           0
   20727 WT1  7694 TIP3 H1   HT     0.417000        1.0080           0
   20728 WT1  7694 TIP3 H2   HT     0.417000        1.0080           0
   20729 WT1  7696 TIP3 OH2  OT    -0.834000       15.9994           0
   20730 WT1  7696 TIP3 H1   HT     0.417000        1.0080           0
   20731 WT1  7696 TIP3 H2   HT     0.417000        1.0080           0
   20732 WT1  7698 TIP3 OH2  OT    -0.834000       15.9994           0
   20733 WT1  7698 TIP3 H1   HT     0.417000        1.0080           0
   20734 WT1  7698 TIP3 H2   HT     0.417000        1.0080           0
   20735 WT1  7699 TIP3 OH2  OT    -0.834000       15.9994           0
   20736 WT1  7699 TIP3 H1   HT     0.417000        1.0080           0
   20737 WT1  7699 TIP3 H2   HT     0.417000        1.0080           0
   20738 WT1  7700 TIP3 OH2  OT    -0.834000       15.9994           0
   20739 WT1  7700 TIP3 H1   HT     0.417000        1.0080           0
   20740 WT1  7700 TIP3 H2   HT     0.417000        1.0080           0
   20741 WT1  7701 TIP3 OH2  OT    -0.834000       15.9994           0
   20742 WT1  7701 TIP3 H1   HT     0.417000        1.0080           0
   20743 WT1  7701 TIP3 H2   HT     0.417000        1.0080           0
   20744 WT1  7702 TIP3 OH2  OT    -0.834000       15.9994           0
   20745 WT1  7702 TIP3 H1   HT     0.417000        1.0080           0
   20746 WT1  7702 TIP3 H2   HT     0.417000        1.0080           0
   20747 WT1  7703 TIP3 OH2  OT    -0.834000       15.9994           0
   20748 WT1  7703 TIP3 H1   HT     0.417000        1.0080           0
   20749 WT1  7703 TIP3 H2   HT     0.417000        1.0080           0
   20750 WT1  7704 TIP3 OH2  OT    -0.834000       15.9994           0
   20751 WT1  7704 TIP3 H1   HT     0.417000        1.0080           0
   20752 WT1  7704 TIP3 H2   HT     0.417000        1.0080           0
   20753 WT1  7705 TIP3 OH2  OT    -0.834000       15.9994           0
   20754 WT1  7705 TIP3 H1   HT     0.417000        1.0080           0
   20755 WT1  7705 TIP3 H2   HT     0.417000        1.0080           0
   20756 WT1  7707 TIP3 OH2  OT    -0.834000       15.9994           0
   20757 WT1  7707 TIP3 H1   HT     0.417000        1.0080           0
   20758 WT1  7707 TIP3 H2   HT     0.417000        1.0080           0
   20759 WT1  7709 TIP3 OH2  OT    -0.834000       15.9994           0
   20760 WT1  7709 TIP3 H1   HT     0.417000        1.0080           0
   20761 WT1  7709 TIP3 H2   HT     0.417000        1.0080           0
   20762 WT1  7710 TIP3 OH2  OT    -0.834000       15.9994           0
   20763 WT1  7710 TIP3 H1   HT     0.417000        1.0080           0
   20764 WT1  7710 TIP3 H2   HT     0.417000        1.0080           0
   20765 WT1  7711 TIP3 OH2  OT    -0.834000       15.9994           0
   20766 WT1  7711 TIP3 H1   HT     0.417000        1.0080           0
   20767 WT1  7711 TIP3 H2   HT     0.417000        1.0080           0
   20768 WT1  7713 TIP3 OH2  OT    -0.834000       15.9994           0
   20769 WT1  7713 TIP3 H1   HT     0.417000        1.0080           0
   20770 WT1  7713 TIP3 H2   HT     0.417000        1.0080           0
   20771 WT1  7714 TIP3 OH2  OT    -0.834000       15.9994           0
   20772 WT1  7714 TIP3 H1   HT     0.417000        1.0080           0
   20773 WT1  7714 TIP3 H2   HT     0.417000        1.0080           0
   20774 WT1  7715 TIP3 OH2  OT    -0.834000       15.9994           0
   20775 WT1  7715 TIP3 H1   HT     0.417000        1.0080           0
   20776 WT1  7715 TIP3 H2   HT     0.417000        1.0080           0
   20777 WT1  7717 TIP3 OH2  OT    -0.834000       15.9994           0
   20778 WT1  7717 TIP3 H1   HT     0.417000        1.0080           0
   20779 WT1  7717 TIP3 H2   HT     0.417000        1.0080           0
   20780 WT1  7718 TIP3 OH2  OT    -0.834000       15.9994           0
   20781 WT1  7718 TIP3 H1   HT     0.417000        1.0080           0
   20782 WT1  7718 TIP3 H2   HT     0.417000        1.0080           0
   20783 WT1  7719 TIP3 OH2  OT    -0.834000       15.9994           0
   20784 WT1  7719 TIP3 H1   HT     0.417000        1.0080           0
   20785 WT1  7719 TIP3 H2   HT     0.417000        1.0080           0
   20786 WT1  7720 TIP3 OH2  OT    -0.834000       15.9994           0
   20787 WT1  7720 TIP3 H1   HT     0.417000        1.0080           0
   20788 WT1  7720 TIP3 H2   HT     0.417000        1.0080           0
   20789 WT1  7721 TIP3 OH2  OT    -0.834000       15.9994           0
   20790 WT1  7721 TIP3 H1   HT     0.417000        1.0080           0
   20791 WT1  7721 TIP3 H2   HT     0.417000        1.0080           0
   20792 WT1  7722 TIP3 OH2  OT    -0.834000       15.9994           0
   20793 WT1  7722 TIP3 H1   HT     0.417000        1.0080           0
   20794 WT1  7722 TIP3 H2   HT     0.417000        1.0080           0
   20795 WT1  7723 TIP3 OH2  OT    -0.834000       15.9994           0
   20796 WT1  7723 TIP3 H1   HT     0.417000        1.0080           0
   20797 WT1  7723 TIP3 H2   HT     0.417000        1.0080           0
   20798 WT1  7724 TIP3 OH2  OT    -0.834000       15.9994           0
   20799 WT1  7724 TIP3 H1   HT     0.417000        1.0080           0
   20800 WT1  7724 TIP3 H2   HT     0.417000        1.0080           0
   20801 WT1  7725 TIP3 OH2  OT    -0.834000       15.9994           0
   20802 WT1  7725 TIP3 H1   HT     0.417000        1.0080           0
   20803 WT1  7725 TIP3 H2   HT     0.417000        1.0080           0
   20804 WT1  7726 TIP3 OH2  OT    -0.834000       15.9994           0
   20805 WT1  7726 TIP3 H1   HT     0.417000        1.0080           0
   20806 WT1  7726 TIP3 H2   HT     0.417000        1.0080           0
   20807 WT1  7727 TIP3 OH2  OT    -0.834000       15.9994           0
   20808 WT1  7727 TIP3 H1   HT     0.417000        1.0080           0
   20809 WT1  7727 TIP3 H2   HT     0.417000        1.0080           0
   20810 WT1  7729 TIP3 OH2  OT    -0.834000       15.9994           0
   20811 WT1  7729 TIP3 H1   HT     0.417000        1.0080           0
   20812 WT1  7729 TIP3 H2   HT     0.417000        1.0080           0
   20813 WT1  7730 TIP3 OH2  OT    -0.834000       15.9994           0
   20814 WT1  7730 TIP3 H1   HT     0.417000        1.0080           0
   20815 WT1  7730 TIP3 H2   HT     0.417000        1.0080           0
   20816 WT1  7731 TIP3 OH2  OT    -0.834000       15.9994           0
   20817 WT1  7731 TIP3 H1   HT     0.417000        1.0080           0
   20818 WT1  7731 TIP3 H2   HT     0.417000        1.0080           0
   20819 WT1  7732 TIP3 OH2  OT    -0.834000       15.9994           0
   20820 WT1  7732 TIP3 H1   HT     0.417000        1.0080           0
   20821 WT1  7732 TIP3 H2   HT     0.417000        1.0080           0
   20822 WT1  7733 TIP3 OH2  OT    -0.834000       15.9994           0
   20823 WT1  7733 TIP3 H1   HT     0.417000        1.0080           0
   20824 WT1  7733 TIP3 H2   HT     0.417000        1.0080           0
   20825 WT1  7734 TIP3 OH2  OT    -0.834000       15.9994           0
   20826 WT1  7734 TIP3 H1   HT     0.417000        1.0080           0
   20827 WT1  7734 TIP3 H2   HT     0.417000        1.0080           0
   20828 WT1  7735 TIP3 OH2  OT    -0.834000       15.9994           0
   20829 WT1  7735 TIP3 H1   HT     0.417000        1.0080           0
   20830 WT1  7735 TIP3 H2   HT     0.417000        1.0080           0
   20831 WT1  7736 TIP3 OH2  OT    -0.834000       15.9994           0
   20832 WT1  7736 TIP3 H1   HT     0.417000        1.0080           0
   20833 WT1  7736 TIP3 H2   HT     0.417000        1.0080           0
   20834 WT1  7737 TIP3 OH2  OT    -0.834000       15.9994           0
   20835 WT1  7737 TIP3 H1   HT     0.417000        1.0080           0
   20836 WT1  7737 TIP3 H2   HT     0.417000        1.0080           0
   20837 WT1  7738 TIP3 OH2  OT    -0.834000       15.9994           0
   20838 WT1  7738 TIP3 H1   HT     0.417000        1.0080           0
   20839 WT1  7738 TIP3 H2   HT     0.417000        1.0080           0
   20840 WT1  7739 TIP3 OH2  OT    -0.834000       15.9994           0
   20841 WT1  7739 TIP3 H1   HT     0.417000        1.0080           0
   20842 WT1  7739 TIP3 H2   HT     0.417000        1.0080           0
   20843 WT1  7740 TIP3 OH2  OT    -0.834000       15.9994           0
   20844 WT1  7740 TIP3 H1   HT     0.417000        1.0080           0
   20845 WT1  7740 TIP3 H2   HT     0.417000        1.0080           0
   20846 WT1  7742 TIP3 OH2  OT    -0.834000       15.9994           0
   20847 WT1  7742 TIP3 H1   HT     0.417000        1.0080           0
   20848 WT1  7742 TIP3 H2   HT     0.417000        1.0080           0
   20849 WT1  7743 TIP3 OH2  OT    -0.834000       15.9994           0
   20850 WT1  7743 TIP3 H1   HT     0.417000        1.0080           0
   20851 WT1  7743 TIP3 H2   HT     0.417000        1.0080           0
   20852 WT1  7744 TIP3 OH2  OT    -0.834000       15.9994           0
   20853 WT1  7744 TIP3 H1   HT     0.417000        1.0080           0
   20854 WT1  7744 TIP3 H2   HT     0.417000        1.0080           0
   20855 WT1  7745 TIP3 OH2  OT    -0.834000       15.9994           0
   20856 WT1  7745 TIP3 H1   HT     0.417000        1.0080           0
   20857 WT1  7745 TIP3 H2   HT     0.417000        1.0080           0
   20858 WT1  7746 TIP3 OH2  OT    -0.834000       15.9994           0
   20859 WT1  7746 TIP3 H1   HT     0.417000        1.0080           0
   20860 WT1  7746 TIP3 H2   HT     0.417000        1.0080           0
   20861 WT1  7747 TIP3 OH2  OT    -0.834000       15.9994           0
   20862 WT1  7747 TIP3 H1   HT     0.417000        1.0080           0
   20863 WT1  7747 TIP3 H2   HT     0.417000        1.0080           0
   20864 WT1  7748 TIP3 OH2  OT    -0.834000       15.9994           0
   20865 WT1  7748 TIP3 H1   HT     0.417000        1.0080           0
   20866 WT1  7748 TIP3 H2   HT     0.417000        1.0080           0
   20867 WT1  7749 TIP3 OH2  OT    -0.834000       15.9994           0
   20868 WT1  7749 TIP3 H1   HT     0.417000        1.0080           0
   20869 WT1  7749 TIP3 H2   HT     0.417000        1.0080           0
   20870 WT1  7750 TIP3 OH2  OT    -0.834000       15.9994           0
   20871 WT1  7750 TIP3 H1   HT     0.417000        1.0080           0
   20872 WT1  7750 TIP3 H2   HT     0.417000        1.0080           0
   20873 WT1  7751 TIP3 OH2  OT    -0.834000       15.9994           0
   20874 WT1  7751 TIP3 H1   HT     0.417000        1.0080           0
   20875 WT1  7751 TIP3 H2   HT     0.417000        1.0080           0
   20876 WT1  7752 TIP3 OH2  OT    -0.834000       15.9994           0
   20877 WT1  7752 TIP3 H1   HT     0.417000        1.0080           0
   20878 WT1  7752 TIP3 H2   HT     0.417000        1.0080           0
   20879 WT1  7753 TIP3 OH2  OT    -0.834000       15.9994           0
   20880 WT1  7753 TIP3 H1   HT     0.417000        1.0080           0
   20881 WT1  7753 TIP3 H2   HT     0.417000        1.0080           0
   20882 WT1  7754 TIP3 OH2  OT    -0.834000       15.9994           0
   20883 WT1  7754 TIP3 H1   HT     0.417000        1.0080           0
   20884 WT1  7754 TIP3 H2   HT     0.417000        1.0080           0
   20885 WT1  7755 TIP3 OH2  OT    -0.834000       15.9994           0
   20886 WT1  7755 TIP3 H1   HT     0.417000        1.0080           0
   20887 WT1  7755 TIP3 H2   HT     0.417000        1.0080           0
   20888 WT1  7757 TIP3 OH2  OT    -0.834000       15.9994           0
   20889 WT1  7757 TIP3 H1   HT     0.417000        1.0080           0
   20890 WT1  7757 TIP3 H2   HT     0.417000        1.0080           0
   20891 WT1  7758 TIP3 OH2  OT    -0.834000       15.9994           0
   20892 WT1  7758 TIP3 H1   HT     0.417000        1.0080           0
   20893 WT1  7758 TIP3 H2   HT     0.417000        1.0080           0
   20894 WT1  7759 TIP3 OH2  OT    -0.834000       15.9994           0
   20895 WT1  7759 TIP3 H1   HT     0.417000        1.0080           0
   20896 WT1  7759 TIP3 H2   HT     0.417000        1.0080           0
   20897 WT1  7760 TIP3 OH2  OT    -0.834000       15.9994           0
   20898 WT1  7760 TIP3 H1   HT     0.417000        1.0080           0
   20899 WT1  7760 TIP3 H2   HT     0.417000        1.0080           0
   20900 WT1  7761 TIP3 OH2  OT    -0.834000       15.9994           0
   20901 WT1  7761 TIP3 H1   HT     0.417000        1.0080           0
   20902 WT1  7761 TIP3 H2   HT     0.417000        1.0080           0
   20903 WT1  7762 TIP3 OH2  OT    -0.834000       15.9994           0
   20904 WT1  7762 TIP3 H1   HT     0.417000        1.0080           0
   20905 WT1  7762 TIP3 H2   HT     0.417000        1.0080           0
   20906 WT1  7763 TIP3 OH2  OT    -0.834000       15.9994           0
   20907 WT1  7763 TIP3 H1   HT     0.417000        1.0080           0
   20908 WT1  7763 TIP3 H2   HT     0.417000        1.0080           0
   20909 WT1  7766 TIP3 OH2  OT    -0.834000       15.9994           0
   20910 WT1  7766 TIP3 H1   HT     0.417000        1.0080           0
   20911 WT1  7766 TIP3 H2   HT     0.417000        1.0080           0
   20912 WT1  7767 TIP3 OH2  OT    -0.834000       15.9994           0
   20913 WT1  7767 TIP3 H1   HT     0.417000        1.0080           0
   20914 WT1  7767 TIP3 H2   HT     0.417000        1.0080           0
   20915 WT1  7768 TIP3 OH2  OT    -0.834000       15.9994           0
   20916 WT1  7768 TIP3 H1   HT     0.417000        1.0080           0
   20917 WT1  7768 TIP3 H2   HT     0.417000        1.0080           0
   20918 WT1  7769 TIP3 OH2  OT    -0.834000       15.9994           0
   20919 WT1  7769 TIP3 H1   HT     0.417000        1.0080           0
   20920 WT1  7769 TIP3 H2   HT     0.417000        1.0080           0
   20921 WT1  7770 TIP3 OH2  OT    -0.834000       15.9994           0
   20922 WT1  7770 TIP3 H1   HT     0.417000        1.0080           0
   20923 WT1  7770 TIP3 H2   HT     0.417000        1.0080           0
   20924 WT1  7772 TIP3 OH2  OT    -0.834000       15.9994           0
   20925 WT1  7772 TIP3 H1   HT     0.417000        1.0080           0
   20926 WT1  7772 TIP3 H2   HT     0.417000        1.0080           0
   20927 WT1  7773 TIP3 OH2  OT    -0.834000       15.9994           0
   20928 WT1  7773 TIP3 H1   HT     0.417000        1.0080           0
   20929 WT1  7773 TIP3 H2   HT     0.417000        1.0080           0
   20930 WT1  7774 TIP3 OH2  OT    -0.834000       15.9994           0
   20931 WT1  7774 TIP3 H1   HT     0.417000        1.0080           0
   20932 WT1  7774 TIP3 H2   HT     0.417000        1.0080           0
   20933 WT1  7775 TIP3 OH2  OT    -0.834000       15.9994           0
   20934 WT1  7775 TIP3 H1   HT     0.417000        1.0080           0
   20935 WT1  7775 TIP3 H2   HT     0.417000        1.0080           0
   20936 WT1  7776 TIP3 OH2  OT    -0.834000       15.9994           0
   20937 WT1  7776 TIP3 H1   HT     0.417000        1.0080           0
   20938 WT1  7776 TIP3 H2   HT     0.417000        1.0080           0
   20939 WT1  7777 TIP3 OH2  OT    -0.834000       15.9994           0
   20940 WT1  7777 TIP3 H1   HT     0.417000        1.0080           0
   20941 WT1  7777 TIP3 H2   HT     0.417000        1.0080           0
   20942 WT1  7778 TIP3 OH2  OT    -0.834000       15.9994           0
   20943 WT1  7778 TIP3 H1   HT     0.417000        1.0080           0
   20944 WT1  7778 TIP3 H2   HT     0.417000        1.0080           0
   20945 WT1  7779 TIP3 OH2  OT    -0.834000       15.9994           0
   20946 WT1  7779 TIP3 H1   HT     0.417000        1.0080           0
   20947 WT1  7779 TIP3 H2   HT     0.417000        1.0080           0
   20948 WT1  7780 TIP3 OH2  OT    -0.834000       15.9994           0
   20949 WT1  7780 TIP3 H1   HT     0.417000        1.0080           0
   20950 WT1  7780 TIP3 H2   HT     0.417000        1.0080           0
   20951 WT1  7781 TIP3 OH2  OT    -0.834000       15.9994           0
   20952 WT1  7781 TIP3 H1   HT     0.417000        1.0080           0
   20953 WT1  7781 TIP3 H2   HT     0.417000        1.0080           0
   20954 WT1  7782 TIP3 OH2  OT    -0.834000       15.9994           0
   20955 WT1  7782 TIP3 H1   HT     0.417000        1.0080           0
   20956 WT1  7782 TIP3 H2   HT     0.417000        1.0080           0
   20957 WT1  7783 TIP3 OH2  OT    -0.834000       15.9994           0
   20958 WT1  7783 TIP3 H1   HT     0.417000        1.0080           0
   20959 WT1  7783 TIP3 H2   HT     0.417000        1.0080           0
   20960 WT1  7784 TIP3 OH2  OT    -0.834000       15.9994           0
   20961 WT1  7784 TIP3 H1   HT     0.417000        1.0080           0
   20962 WT1  7784 TIP3 H2   HT     0.417000        1.0080           0
   20963 WT1  7785 TIP3 OH2  OT    -0.834000       15.9994           0
   20964 WT1  7785 TIP3 H1   HT     0.417000        1.0080           0
   20965 WT1  7785 TIP3 H2   HT     0.417000        1.0080           0
   20966 WT1  7786 TIP3 OH2  OT    -0.834000       15.9994           0
   20967 WT1  7786 TIP3 H1   HT     0.417000        1.0080           0
   20968 WT1  7786 TIP3 H2   HT     0.417000        1.0080           0
   20969 WT1  7787 TIP3 OH2  OT    -0.834000       15.9994           0
   20970 WT1  7787 TIP3 H1   HT     0.417000        1.0080           0
   20971 WT1  7787 TIP3 H2   HT     0.417000        1.0080           0
   20972 WT1  7788 TIP3 OH2  OT    -0.834000       15.9994           0
   20973 WT1  7788 TIP3 H1   HT     0.417000        1.0080           0
   20974 WT1  7788 TIP3 H2   HT     0.417000        1.0080           0
   20975 WT1  7789 TIP3 OH2  OT    -0.834000       15.9994           0
   20976 WT1  7789 TIP3 H1   HT     0.417000        1.0080           0
   20977 WT1  7789 TIP3 H2   HT     0.417000        1.0080           0
   20978 WT1  7790 TIP3 OH2  OT    -0.834000       15.9994           0
   20979 WT1  7790 TIP3 H1   HT     0.417000        1.0080           0
   20980 WT1  7790 TIP3 H2   HT     0.417000        1.0080           0
   20981 WT1  7791 TIP3 OH2  OT    -0.834000       15.9994           0
   20982 WT1  7791 TIP3 H1   HT     0.417000        1.0080           0
   20983 WT1  7791 TIP3 H2   HT     0.417000        1.0080           0
   20984 WT1  7792 TIP3 OH2  OT    -0.834000       15.9994           0
   20985 WT1  7792 TIP3 H1   HT     0.417000        1.0080           0
   20986 WT1  7792 TIP3 H2   HT     0.417000        1.0080           0
   20987 WT1  7793 TIP3 OH2  OT    -0.834000       15.9994           0
   20988 WT1  7793 TIP3 H1   HT     0.417000        1.0080           0
   20989 WT1  7793 TIP3 H2   HT     0.417000        1.0080           0
   20990 WT1  7794 TIP3 OH2  OT    -0.834000       15.9994           0
   20991 WT1  7794 TIP3 H1   HT     0.417000        1.0080           0
   20992 WT1  7794 TIP3 H2   HT     0.417000        1.0080           0
   20993 WT1  7796 TIP3 OH2  OT    -0.834000       15.9994           0
   20994 WT1  7796 TIP3 H1   HT     0.417000        1.0080           0
   20995 WT1  7796 TIP3 H2   HT     0.417000        1.0080           0
   20996 WT1  7797 TIP3 OH2  OT    -0.834000       15.9994           0
   20997 WT1  7797 TIP3 H1   HT     0.417000        1.0080           0
   20998 WT1  7797 TIP3 H2   HT     0.417000        1.0080           0
   20999 WT1  7798 TIP3 OH2  OT    -0.834000       15.9994           0
   21000 WT1  7798 TIP3 H1   HT     0.417000        1.0080           0
   21001 WT1  7798 TIP3 H2   HT     0.417000        1.0080           0
   21002 WT1  7800 TIP3 OH2  OT    -0.834000       15.9994           0
   21003 WT1  7800 TIP3 H1   HT     0.417000        1.0080           0
   21004 WT1  7800 TIP3 H2   HT     0.417000        1.0080           0
   21005 WT1  7801 TIP3 OH2  OT    -0.834000       15.9994           0
   21006 WT1  7801 TIP3 H1   HT     0.417000        1.0080           0
   21007 WT1  7801 TIP3 H2   HT     0.417000        1.0080           0
   21008 WT1  7802 TIP3 OH2  OT    -0.834000       15.9994           0
   21009 WT1  7802 TIP3 H1   HT     0.417000        1.0080           0
   21010 WT1  7802 TIP3 H2   HT     0.417000        1.0080           0
   21011 WT1  7803 TIP3 OH2  OT    -0.834000       15.9994           0
   21012 WT1  7803 TIP3 H1   HT     0.417000        1.0080           0
   21013 WT1  7803 TIP3 H2   HT     0.417000        1.0080           0
   21014 WT1  7805 TIP3 OH2  OT    -0.834000       15.9994           0
   21015 WT1  7805 TIP3 H1   HT     0.417000        1.0080           0
   21016 WT1  7805 TIP3 H2   HT     0.417000        1.0080           0
   21017 WT1  7807 TIP3 OH2  OT    -0.834000       15.9994           0
   21018 WT1  7807 TIP3 H1   HT     0.417000        1.0080           0
   21019 WT1  7807 TIP3 H2   HT     0.417000        1.0080           0
   21020 WT1  7808 TIP3 OH2  OT    -0.834000       15.9994           0
   21021 WT1  7808 TIP3 H1   HT     0.417000        1.0080           0
   21022 WT1  7808 TIP3 H2   HT     0.417000        1.0080           0
   21023 WT1  7809 TIP3 OH2  OT    -0.834000       15.9994           0
   21024 WT1  7809 TIP3 H1   HT     0.417000        1.0080           0
   21025 WT1  7809 TIP3 H2   HT     0.417000        1.0080           0
   21026 WT1  7810 TIP3 OH2  OT    -0.834000       15.9994           0
   21027 WT1  7810 TIP3 H1   HT     0.417000        1.0080           0
   21028 WT1  7810 TIP3 H2   HT     0.417000        1.0080           0
   21029 WT1  7811 TIP3 OH2  OT    -0.834000       15.9994           0
   21030 WT1  7811 TIP3 H1   HT     0.417000        1.0080           0
   21031 WT1  7811 TIP3 H2   HT     0.417000        1.0080           0
   21032 WT1  7812 TIP3 OH2  OT    -0.834000       15.9994           0
   21033 WT1  7812 TIP3 H1   HT     0.417000        1.0080           0
   21034 WT1  7812 TIP3 H2   HT     0.417000        1.0080           0
   21035 WT1  7813 TIP3 OH2  OT    -0.834000       15.9994           0
   21036 WT1  7813 TIP3 H1   HT     0.417000        1.0080           0
   21037 WT1  7813 TIP3 H2   HT     0.417000        1.0080           0
   21038 WT1  7814 TIP3 OH2  OT    -0.834000       15.9994           0
   21039 WT1  7814 TIP3 H1   HT     0.417000        1.0080           0
   21040 WT1  7814 TIP3 H2   HT     0.417000        1.0080           0
   21041 WT1  7815 TIP3 OH2  OT    -0.834000       15.9994           0
   21042 WT1  7815 TIP3 H1   HT     0.417000        1.0080           0
   21043 WT1  7815 TIP3 H2   HT     0.417000        1.0080           0
   21044 WT1  7817 TIP3 OH2  OT    -0.834000       15.9994           0
   21045 WT1  7817 TIP3 H1   HT     0.417000        1.0080           0
   21046 WT1  7817 TIP3 H2   HT     0.417000        1.0080           0
   21047 WT1  7818 TIP3 OH2  OT    -0.834000       15.9994           0
   21048 WT1  7818 TIP3 H1   HT     0.417000        1.0080           0
   21049 WT1  7818 TIP3 H2   HT     0.417000        1.0080           0
   21050 WT1  7819 TIP3 OH2  OT    -0.834000       15.9994           0
   21051 WT1  7819 TIP3 H1   HT     0.417000        1.0080           0
   21052 WT1  7819 TIP3 H2   HT     0.417000        1.0080           0
   21053 WT1  7820 TIP3 OH2  OT    -0.834000       15.9994           0
   21054 WT1  7820 TIP3 H1   HT     0.417000        1.0080           0
   21055 WT1  7820 TIP3 H2   HT     0.417000        1.0080           0
   21056 WT1  7821 TIP3 OH2  OT    -0.834000       15.9994           0
   21057 WT1  7821 TIP3 H1   HT     0.417000        1.0080           0
   21058 WT1  7821 TIP3 H2   HT     0.417000        1.0080           0
   21059 WT1  7822 TIP3 OH2  OT    -0.834000       15.9994           0
   21060 WT1  7822 TIP3 H1   HT     0.417000        1.0080           0
   21061 WT1  7822 TIP3 H2   HT     0.417000        1.0080           0
   21062 WT1  7823 TIP3 OH2  OT    -0.834000       15.9994           0
   21063 WT1  7823 TIP3 H1   HT     0.417000        1.0080           0
   21064 WT1  7823 TIP3 H2   HT     0.417000        1.0080           0
   21065 WT1  7824 TIP3 OH2  OT    -0.834000       15.9994           0
   21066 WT1  7824 TIP3 H1   HT     0.417000        1.0080           0
   21067 WT1  7824 TIP3 H2   HT     0.417000        1.0080           0
   21068 WT1  7825 TIP3 OH2  OT    -0.834000       15.9994           0
   21069 WT1  7825 TIP3 H1   HT     0.417000        1.0080           0
   21070 WT1  7825 TIP3 H2   HT     0.417000        1.0080           0
   21071 WT1  7826 TIP3 OH2  OT    -0.834000       15.9994           0
   21072 WT1  7826 TIP3 H1   HT     0.417000        1.0080           0
   21073 WT1  7826 TIP3 H2   HT     0.417000        1.0080           0
   21074 WT1  7827 TIP3 OH2  OT    -0.834000       15.9994           0
   21075 WT1  7827 TIP3 H1   HT     0.417000        1.0080           0
   21076 WT1  7827 TIP3 H2   HT     0.417000        1.0080           0
   21077 WT1  7828 TIP3 OH2  OT    -0.834000       15.9994           0
   21078 WT1  7828 TIP3 H1   HT     0.417000        1.0080           0
   21079 WT1  7828 TIP3 H2   HT     0.417000        1.0080           0
   21080 WT1  7829 TIP3 OH2  OT    -0.834000       15.9994           0
   21081 WT1  7829 TIP3 H1   HT     0.417000        1.0080           0
   21082 WT1  7829 TIP3 H2   HT     0.417000        1.0080           0
   21083 WT1  7830 TIP3 OH2  OT    -0.834000       15.9994           0
   21084 WT1  7830 TIP3 H1   HT     0.417000        1.0080           0
   21085 WT1  7830 TIP3 H2   HT     0.417000        1.0080           0
   21086 WT1  7831 TIP3 OH2  OT    -0.834000       15.9994           0
   21087 WT1  7831 TIP3 H1   HT     0.417000        1.0080           0
   21088 WT1  7831 TIP3 H2   HT     0.417000        1.0080           0
   21089 WT1  7832 TIP3 OH2  OT    -0.834000       15.9994           0
   21090 WT1  7832 TIP3 H1   HT     0.417000        1.0080           0
   21091 WT1  7832 TIP3 H2   HT     0.417000        1.0080           0
   21092 WT1  7833 TIP3 OH2  OT    -0.834000       15.9994           0
   21093 WT1  7833 TIP3 H1   HT     0.417000        1.0080           0
   21094 WT1  7833 TIP3 H2   HT     0.417000        1.0080           0
   21095 WT1  7834 TIP3 OH2  OT    -0.834000       15.9994           0
   21096 WT1  7834 TIP3 H1   HT     0.417000        1.0080           0
   21097 WT1  7834 TIP3 H2   HT     0.417000        1.0080           0
   21098 WT1  7835 TIP3 OH2  OT    -0.834000       15.9994           0
   21099 WT1  7835 TIP3 H1   HT     0.417000        1.0080           0
   21100 WT1  7835 TIP3 H2   HT     0.417000        1.0080           0
   21101 WT1  7836 TIP3 OH2  OT    -0.834000       15.9994           0
   21102 WT1  7836 TIP3 H1   HT     0.417000        1.0080           0
   21103 WT1  7836 TIP3 H2   HT     0.417000        1.0080           0
   21104 WT1  7837 TIP3 OH2  OT    -0.834000       15.9994           0
   21105 WT1  7837 TIP3 H1   HT     0.417000        1.0080           0
   21106 WT1  7837 TIP3 H2   HT     0.417000        1.0080           0
   21107 WT1  7838 TIP3 OH2  OT    -0.834000       15.9994           0
   21108 WT1  7838 TIP3 H1   HT     0.417000        1.0080           0
   21109 WT1  7838 TIP3 H2   HT     0.417000        1.0080           0
   21110 WT1  7839 TIP3 OH2  OT    -0.834000       15.9994           0
   21111 WT1  7839 TIP3 H1   HT     0.417000        1.0080           0
   21112 WT1  7839 TIP3 H2   HT     0.417000        1.0080           0
   21113 WT1  7840 TIP3 OH2  OT    -0.834000       15.9994           0
   21114 WT1  7840 TIP3 H1   HT     0.417000        1.0080           0
   21115 WT1  7840 TIP3 H2   HT     0.417000        1.0080           0
   21116 WT1  7841 TIP3 OH2  OT    -0.834000       15.9994           0
   21117 WT1  7841 TIP3 H1   HT     0.417000        1.0080           0
   21118 WT1  7841 TIP3 H2   HT     0.417000        1.0080           0
   21119 WT1  7842 TIP3 OH2  OT    -0.834000       15.9994           0
   21120 WT1  7842 TIP3 H1   HT     0.417000        1.0080           0
   21121 WT1  7842 TIP3 H2   HT     0.417000        1.0080           0
   21122 WT1  7843 TIP3 OH2  OT    -0.834000       15.9994           0
   21123 WT1  7843 TIP3 H1   HT     0.417000        1.0080           0
   21124 WT1  7843 TIP3 H2   HT     0.417000        1.0080           0
   21125 WT1  7844 TIP3 OH2  OT    -0.834000       15.9994           0
   21126 WT1  7844 TIP3 H1   HT     0.417000        1.0080           0
   21127 WT1  7844 TIP3 H2   HT     0.417000        1.0080           0
   21128 WT1  7845 TIP3 OH2  OT    -0.834000       15.9994           0
   21129 WT1  7845 TIP3 H1   HT     0.417000        1.0080           0
   21130 WT1  7845 TIP3 H2   HT     0.417000        1.0080           0
   21131 WT1  7846 TIP3 OH2  OT    -0.834000       15.9994           0
   21132 WT1  7846 TIP3 H1   HT     0.417000        1.0080           0
   21133 WT1  7846 TIP3 H2   HT     0.417000        1.0080           0
   21134 WT1  7847 TIP3 OH2  OT    -0.834000       15.9994           0
   21135 WT1  7847 TIP3 H1   HT     0.417000        1.0080           0
   21136 WT1  7847 TIP3 H2   HT     0.417000        1.0080           0
   21137 WT1  7848 TIP3 OH2  OT    -0.834000       15.9994           0
   21138 WT1  7848 TIP3 H1   HT     0.417000        1.0080           0
   21139 WT1  7848 TIP3 H2   HT     0.417000        1.0080           0
   21140 WT1  7849 TIP3 OH2  OT    -0.834000       15.9994           0
   21141 WT1  7849 TIP3 H1   HT     0.417000        1.0080           0
   21142 WT1  7849 TIP3 H2   HT     0.417000        1.0080           0
   21143 WT1  7850 TIP3 OH2  OT    -0.834000       15.9994           0
   21144 WT1  7850 TIP3 H1   HT     0.417000        1.0080           0
   21145 WT1  7850 TIP3 H2   HT     0.417000        1.0080           0
   21146 WT1  7851 TIP3 OH2  OT    -0.834000       15.9994           0
   21147 WT1  7851 TIP3 H1   HT     0.417000        1.0080           0
   21148 WT1  7851 TIP3 H2   HT     0.417000        1.0080           0
   21149 WT1  7852 TIP3 OH2  OT    -0.834000       15.9994           0
   21150 WT1  7852 TIP3 H1   HT     0.417000        1.0080           0
   21151 WT1  7852 TIP3 H2   HT     0.417000        1.0080           0
   21152 WT1  7853 TIP3 OH2  OT    -0.834000       15.9994           0
   21153 WT1  7853 TIP3 H1   HT     0.417000        1.0080           0
   21154 WT1  7853 TIP3 H2   HT     0.417000        1.0080           0
   21155 WT1  7854 TIP3 OH2  OT    -0.834000       15.9994           0
   21156 WT1  7854 TIP3 H1   HT     0.417000        1.0080           0
   21157 WT1  7854 TIP3 H2   HT     0.417000        1.0080           0
   21158 WT1  7856 TIP3 OH2  OT    -0.834000       15.9994           0
   21159 WT1  7856 TIP3 H1   HT     0.417000        1.0080           0
   21160 WT1  7856 TIP3 H2   HT     0.417000        1.0080           0
   21161 WT1  7857 TIP3 OH2  OT    -0.834000       15.9994           0
   21162 WT1  7857 TIP3 H1   HT     0.417000        1.0080           0
   21163 WT1  7857 TIP3 H2   HT     0.417000        1.0080           0
   21164 WT1  7858 TIP3 OH2  OT    -0.834000       15.9994           0
   21165 WT1  7858 TIP3 H1   HT     0.417000        1.0080           0
   21166 WT1  7858 TIP3 H2   HT     0.417000        1.0080           0
   21167 WT1  7859 TIP3 OH2  OT    -0.834000       15.9994           0
   21168 WT1  7859 TIP3 H1   HT     0.417000        1.0080           0
   21169 WT1  7859 TIP3 H2   HT     0.417000        1.0080           0
   21170 WT1  7861 TIP3 OH2  OT    -0.834000       15.9994           0
   21171 WT1  7861 TIP3 H1   HT     0.417000        1.0080           0
   21172 WT1  7861 TIP3 H2   HT     0.417000        1.0080           0
   21173 WT1  7862 TIP3 OH2  OT    -0.834000       15.9994           0
   21174 WT1  7862 TIP3 H1   HT     0.417000        1.0080           0
   21175 WT1  7862 TIP3 H2   HT     0.417000        1.0080           0
   21176 WT1  7863 TIP3 OH2  OT    -0.834000       15.9994           0
   21177 WT1  7863 TIP3 H1   HT     0.417000        1.0080           0
   21178 WT1  7863 TIP3 H2   HT     0.417000        1.0080           0
   21179 WT1  7864 TIP3 OH2  OT    -0.834000       15.9994           0
   21180 WT1  7864 TIP3 H1   HT     0.417000        1.0080           0
   21181 WT1  7864 TIP3 H2   HT     0.417000        1.0080           0
   21182 WT1  7865 TIP3 OH2  OT    -0.834000       15.9994           0
   21183 WT1  7865 TIP3 H1   HT     0.417000        1.0080           0
   21184 WT1  7865 TIP3 H2   HT     0.417000        1.0080           0
   21185 WT1  7868 TIP3 OH2  OT    -0.834000       15.9994           0
   21186 WT1  7868 TIP3 H1   HT     0.417000        1.0080           0
   21187 WT1  7868 TIP3 H2   HT     0.417000        1.0080           0
   21188 WT1  7869 TIP3 OH2  OT    -0.834000       15.9994           0
   21189 WT1  7869 TIP3 H1   HT     0.417000        1.0080           0
   21190 WT1  7869 TIP3 H2   HT     0.417000        1.0080           0
   21191 WT1  7870 TIP3 OH2  OT    -0.834000       15.9994           0
   21192 WT1  7870 TIP3 H1   HT     0.417000        1.0080           0
   21193 WT1  7870 TIP3 H2   HT     0.417000        1.0080           0
   21194 WT1  7871 TIP3 OH2  OT    -0.834000       15.9994           0
   21195 WT1  7871 TIP3 H1   HT     0.417000        1.0080           0
   21196 WT1  7871 TIP3 H2   HT     0.417000        1.0080           0
   21197 WT1  7872 TIP3 OH2  OT    -0.834000       15.9994           0
   21198 WT1  7872 TIP3 H1   HT     0.417000        1.0080           0
   21199 WT1  7872 TIP3 H2   HT     0.417000        1.0080           0
   21200 WT1  7873 TIP3 OH2  OT    -0.834000       15.9994           0
   21201 WT1  7873 TIP3 H1   HT     0.417000        1.0080           0
   21202 WT1  7873 TIP3 H2   HT     0.417000        1.0080           0
   21203 WT1  7875 TIP3 OH2  OT    -0.834000       15.9994           0
   21204 WT1  7875 TIP3 H1   HT     0.417000        1.0080           0
   21205 WT1  7875 TIP3 H2   HT     0.417000        1.0080           0
   21206 WT1  7877 TIP3 OH2  OT    -0.834000       15.9994           0
   21207 WT1  7877 TIP3 H1   HT     0.417000        1.0080           0
   21208 WT1  7877 TIP3 H2   HT     0.417000        1.0080           0
   21209 WT1  7878 TIP3 OH2  OT    -0.834000       15.9994           0
   21210 WT1  7878 TIP3 H1   HT     0.417000        1.0080           0
   21211 WT1  7878 TIP3 H2   HT     0.417000        1.0080           0
   21212 WT1  7879 TIP3 OH2  OT    -0.834000       15.9994           0
   21213 WT1  7879 TIP3 H1   HT     0.417000        1.0080           0
   21214 WT1  7879 TIP3 H2   HT     0.417000        1.0080           0
   21215 WT1  7881 TIP3 OH2  OT    -0.834000       15.9994           0
   21216 WT1  7881 TIP3 H1   HT     0.417000        1.0080           0
   21217 WT1  7881 TIP3 H2   HT     0.417000        1.0080           0
   21218 WT1  7882 TIP3 OH2  OT    -0.834000       15.9994           0
   21219 WT1  7882 TIP3 H1   HT     0.417000        1.0080           0
   21220 WT1  7882 TIP3 H2   HT     0.417000        1.0080           0
   21221 WT1  7883 TIP3 OH2  OT    -0.834000       15.9994           0
   21222 WT1  7883 TIP3 H1   HT     0.417000        1.0080           0
   21223 WT1  7883 TIP3 H2   HT     0.417000        1.0080           0
   21224 WT1  7884 TIP3 OH2  OT    -0.834000       15.9994           0
   21225 WT1  7884 TIP3 H1   HT     0.417000        1.0080           0
   21226 WT1  7884 TIP3 H2   HT     0.417000        1.0080           0
   21227 WT1  7885 TIP3 OH2  OT    -0.834000       15.9994           0
   21228 WT1  7885 TIP3 H1   HT     0.417000        1.0080           0
   21229 WT1  7885 TIP3 H2   HT     0.417000        1.0080           0
   21230 WT1  7886 TIP3 OH2  OT    -0.834000       15.9994           0
   21231 WT1  7886 TIP3 H1   HT     0.417000        1.0080           0
   21232 WT1  7886 TIP3 H2   HT     0.417000        1.0080           0
   21233 WT1  7887 TIP3 OH2  OT    -0.834000       15.9994           0
   21234 WT1  7887 TIP3 H1   HT     0.417000        1.0080           0
   21235 WT1  7887 TIP3 H2   HT     0.417000        1.0080           0
   21236 WT1  7888 TIP3 OH2  OT    -0.834000       15.9994           0
   21237 WT1  7888 TIP3 H1   HT     0.417000        1.0080           0
   21238 WT1  7888 TIP3 H2   HT     0.417000        1.0080           0
   21239 WT1  7889 TIP3 OH2  OT    -0.834000       15.9994           0
   21240 WT1  7889 TIP3 H1   HT     0.417000        1.0080           0
   21241 WT1  7889 TIP3 H2   HT     0.417000        1.0080           0
   21242 WT1  7890 TIP3 OH2  OT    -0.834000       15.9994           0
   21243 WT1  7890 TIP3 H1   HT     0.417000        1.0080           0
   21244 WT1  7890 TIP3 H2   HT     0.417000        1.0080           0
   21245 WT1  7891 TIP3 OH2  OT    -0.834000       15.9994           0
   21246 WT1  7891 TIP3 H1   HT     0.417000        1.0080           0
   21247 WT1  7891 TIP3 H2   HT     0.417000        1.0080           0
   21248 WT1  7892 TIP3 OH2  OT    -0.834000       15.9994           0
   21249 WT1  7892 TIP3 H1   HT     0.417000        1.0080           0
   21250 WT1  7892 TIP3 H2   HT     0.417000        1.0080           0
   21251 WT1  7893 TIP3 OH2  OT    -0.834000       15.9994           0
   21252 WT1  7893 TIP3 H1   HT     0.417000        1.0080           0
   21253 WT1  7893 TIP3 H2   HT     0.417000        1.0080           0
   21254 WT1  7895 TIP3 OH2  OT    -0.834000       15.9994           0
   21255 WT1  7895 TIP3 H1   HT     0.417000        1.0080           0
   21256 WT1  7895 TIP3 H2   HT     0.417000        1.0080           0
   21257 WT1  7896 TIP3 OH2  OT    -0.834000       15.9994           0
   21258 WT1  7896 TIP3 H1   HT     0.417000        1.0080           0
   21259 WT1  7896 TIP3 H2   HT     0.417000        1.0080           0
   21260 WT1  7897 TIP3 OH2  OT    -0.834000       15.9994           0
   21261 WT1  7897 TIP3 H1   HT     0.417000        1.0080           0
   21262 WT1  7897 TIP3 H2   HT     0.417000        1.0080           0
   21263 WT1  7898 TIP3 OH2  OT    -0.834000       15.9994           0
   21264 WT1  7898 TIP3 H1   HT     0.417000        1.0080           0
   21265 WT1  7898 TIP3 H2   HT     0.417000        1.0080           0
   21266 WT1  7899 TIP3 OH2  OT    -0.834000       15.9994           0
   21267 WT1  7899 TIP3 H1   HT     0.417000        1.0080           0
   21268 WT1  7899 TIP3 H2   HT     0.417000        1.0080           0
   21269 WT1  7900 TIP3 OH2  OT    -0.834000       15.9994           0
   21270 WT1  7900 TIP3 H1   HT     0.417000        1.0080           0
   21271 WT1  7900 TIP3 H2   HT     0.417000        1.0080           0
   21272 WT1  7901 TIP3 OH2  OT    -0.834000       15.9994           0
   21273 WT1  7901 TIP3 H1   HT     0.417000        1.0080           0
   21274 WT1  7901 TIP3 H2   HT     0.417000        1.0080           0
   21275 WT1  7902 TIP3 OH2  OT    -0.834000       15.9994           0
   21276 WT1  7902 TIP3 H1   HT     0.417000        1.0080           0
   21277 WT1  7902 TIP3 H2   HT     0.417000        1.0080           0
   21278 WT1  7903 TIP3 OH2  OT    -0.834000       15.9994           0
   21279 WT1  7903 TIP3 H1   HT     0.417000        1.0080           0
   21280 WT1  7903 TIP3 H2   HT     0.417000        1.0080           0
   21281 WT1  7904 TIP3 OH2  OT    -0.834000       15.9994           0
   21282 WT1  7904 TIP3 H1   HT     0.417000        1.0080           0
   21283 WT1  7904 TIP3 H2   HT     0.417000        1.0080           0
   21284 WT1  7906 TIP3 OH2  OT    -0.834000       15.9994           0
   21285 WT1  7906 TIP3 H1   HT     0.417000        1.0080           0
   21286 WT1  7906 TIP3 H2   HT     0.417000        1.0080           0
   21287 WT1  7907 TIP3 OH2  OT    -0.834000       15.9994           0
   21288 WT1  7907 TIP3 H1   HT     0.417000        1.0080           0
   21289 WT1  7907 TIP3 H2   HT     0.417000        1.0080           0
   21290 WT1  7909 TIP3 OH2  OT    -0.834000       15.9994           0
   21291 WT1  7909 TIP3 H1   HT     0.417000        1.0080           0
   21292 WT1  7909 TIP3 H2   HT     0.417000        1.0080           0
   21293 WT1  7910 TIP3 OH2  OT    -0.834000       15.9994           0
   21294 WT1  7910 TIP3 H1   HT     0.417000        1.0080           0
   21295 WT1  7910 TIP3 H2   HT     0.417000        1.0080           0
   21296 WT1  7911 TIP3 OH2  OT    -0.834000       15.9994           0
   21297 WT1  7911 TIP3 H1   HT     0.417000        1.0080           0
   21298 WT1  7911 TIP3 H2   HT     0.417000        1.0080           0
   21299 WT1  7913 TIP3 OH2  OT    -0.834000       15.9994           0
   21300 WT1  7913 TIP3 H1   HT     0.417000        1.0080           0
   21301 WT1  7913 TIP3 H2   HT     0.417000        1.0080           0
   21302 WT1  7914 TIP3 OH2  OT    -0.834000       15.9994           0
   21303 WT1  7914 TIP3 H1   HT     0.417000        1.0080           0
   21304 WT1  7914 TIP3 H2   HT     0.417000        1.0080           0
   21305 WT1  7915 TIP3 OH2  OT    -0.834000       15.9994           0
   21306 WT1  7915 TIP3 H1   HT     0.417000        1.0080           0
   21307 WT1  7915 TIP3 H2   HT     0.417000        1.0080           0
   21308 WT1  7916 TIP3 OH2  OT    -0.834000       15.9994           0
   21309 WT1  7916 TIP3 H1   HT     0.417000        1.0080           0
   21310 WT1  7916 TIP3 H2   HT     0.417000        1.0080           0
   21311 WT1  7917 TIP3 OH2  OT    -0.834000       15.9994           0
   21312 WT1  7917 TIP3 H1   HT     0.417000        1.0080           0
   21313 WT1  7917 TIP3 H2   HT     0.417000        1.0080           0
   21314 WT1  7918 TIP3 OH2  OT    -0.834000       15.9994           0
   21315 WT1  7918 TIP3 H1   HT     0.417000        1.0080           0
   21316 WT1  7918 TIP3 H2   HT     0.417000        1.0080           0
   21317 WT1  7919 TIP3 OH2  OT    -0.834000       15.9994           0
   21318 WT1  7919 TIP3 H1   HT     0.417000        1.0080           0
   21319 WT1  7919 TIP3 H2   HT     0.417000        1.0080           0
   21320 WT1  7920 TIP3 OH2  OT    -0.834000       15.9994           0
   21321 WT1  7920 TIP3 H1   HT     0.417000        1.0080           0
   21322 WT1  7920 TIP3 H2   HT     0.417000        1.0080           0
   21323 WT1  7921 TIP3 OH2  OT    -0.834000       15.9994           0
   21324 WT1  7921 TIP3 H1   HT     0.417000        1.0080           0
   21325 WT1  7921 TIP3 H2   HT     0.417000        1.0080           0
   21326 WT1  7922 TIP3 OH2  OT    -0.834000       15.9994           0
   21327 WT1  7922 TIP3 H1   HT     0.417000        1.0080           0
   21328 WT1  7922 TIP3 H2   HT     0.417000        1.0080           0
   21329 WT1  7923 TIP3 OH2  OT    -0.834000       15.9994           0
   21330 WT1  7923 TIP3 H1   HT     0.417000        1.0080           0
   21331 WT1  7923 TIP3 H2   HT     0.417000        1.0080           0
   21332 WT1  7924 TIP3 OH2  OT    -0.834000       15.9994           0
   21333 WT1  7924 TIP3 H1   HT     0.417000        1.0080           0
   21334 WT1  7924 TIP3 H2   HT     0.417000        1.0080           0
   21335 WT1  7925 TIP3 OH2  OT    -0.834000       15.9994           0
   21336 WT1  7925 TIP3 H1   HT     0.417000        1.0080           0
   21337 WT1  7925 TIP3 H2   HT     0.417000        1.0080           0
   21338 WT1  7927 TIP3 OH2  OT    -0.834000       15.9994           0
   21339 WT1  7927 TIP3 H1   HT     0.417000        1.0080           0
   21340 WT1  7927 TIP3 H2   HT     0.417000        1.0080           0
   21341 WT1  7928 TIP3 OH2  OT    -0.834000       15.9994           0
   21342 WT1  7928 TIP3 H1   HT     0.417000        1.0080           0
   21343 WT1  7928 TIP3 H2   HT     0.417000        1.0080           0
   21344 WT1  7929 TIP3 OH2  OT    -0.834000       15.9994           0
   21345 WT1  7929 TIP3 H1   HT     0.417000        1.0080           0
   21346 WT1  7929 TIP3 H2   HT     0.417000        1.0080           0
   21347 WT1  7930 TIP3 OH2  OT    -0.834000       15.9994           0
   21348 WT1  7930 TIP3 H1   HT     0.417000        1.0080           0
   21349 WT1  7930 TIP3 H2   HT     0.417000        1.0080           0
   21350 WT1  7931 TIP3 OH2  OT    -0.834000       15.9994           0
   21351 WT1  7931 TIP3 H1   HT     0.417000        1.0080           0
   21352 WT1  7931 TIP3 H2   HT     0.417000        1.0080           0
   21353 WT1  7932 TIP3 OH2  OT    -0.834000       15.9994           0
   21354 WT1  7932 TIP3 H1   HT     0.417000        1.0080           0
   21355 WT1  7932 TIP3 H2   HT     0.417000        1.0080           0
   21356 WT1  7933 TIP3 OH2  OT    -0.834000       15.9994           0
   21357 WT1  7933 TIP3 H1   HT     0.417000        1.0080           0
   21358 WT1  7933 TIP3 H2   HT     0.417000        1.0080           0
   21359 WT1  7934 TIP3 OH2  OT    -0.834000       15.9994           0
   21360 WT1  7934 TIP3 H1   HT     0.417000        1.0080           0
   21361 WT1  7934 TIP3 H2   HT     0.417000        1.0080           0
   21362 WT1  7935 TIP3 OH2  OT    -0.834000       15.9994           0
   21363 WT1  7935 TIP3 H1   HT     0.417000        1.0080           0
   21364 WT1  7935 TIP3 H2   HT     0.417000        1.0080           0
   21365 WT1  7936 TIP3 OH2  OT    -0.834000       15.9994           0
   21366 WT1  7936 TIP3 H1   HT     0.417000        1.0080           0
   21367 WT1  7936 TIP3 H2   HT     0.417000        1.0080           0
   21368 WT1  7937 TIP3 OH2  OT    -0.834000       15.9994           0
   21369 WT1  7937 TIP3 H1   HT     0.417000        1.0080           0
   21370 WT1  7937 TIP3 H2   HT     0.417000        1.0080           0
   21371 WT1  7938 TIP3 OH2  OT    -0.834000       15.9994           0
   21372 WT1  7938 TIP3 H1   HT     0.417000        1.0080           0
   21373 WT1  7938 TIP3 H2   HT     0.417000        1.0080           0
   21374 WT1  7939 TIP3 OH2  OT    -0.834000       15.9994           0
   21375 WT1  7939 TIP3 H1   HT     0.417000        1.0080           0
   21376 WT1  7939 TIP3 H2   HT     0.417000        1.0080           0
   21377 WT1  7940 TIP3 OH2  OT    -0.834000       15.9994           0
   21378 WT1  7940 TIP3 H1   HT     0.417000        1.0080           0
   21379 WT1  7940 TIP3 H2   HT     0.417000        1.0080           0
   21380 WT1  7941 TIP3 OH2  OT    -0.834000       15.9994           0
   21381 WT1  7941 TIP3 H1   HT     0.417000        1.0080           0
   21382 WT1  7941 TIP3 H2   HT     0.417000        1.0080           0
   21383 WT1  7942 TIP3 OH2  OT    -0.834000       15.9994           0
   21384 WT1  7942 TIP3 H1   HT     0.417000        1.0080           0
   21385 WT1  7942 TIP3 H2   HT     0.417000        1.0080           0
   21386 WT1  7943 TIP3 OH2  OT    -0.834000       15.9994           0
   21387 WT1  7943 TIP3 H1   HT     0.417000        1.0080           0
   21388 WT1  7943 TIP3 H2   HT     0.417000        1.0080           0
   21389 WT1  7944 TIP3 OH2  OT    -0.834000       15.9994           0
   21390 WT1  7944 TIP3 H1   HT     0.417000        1.0080           0
   21391 WT1  7944 TIP3 H2   HT     0.417000        1.0080           0
   21392 WT1  7945 TIP3 OH2  OT    -0.834000       15.9994           0
   21393 WT1  7945 TIP3 H1   HT     0.417000        1.0080           0
   21394 WT1  7945 TIP3 H2   HT     0.417000        1.0080           0
   21395 WT1  7946 TIP3 OH2  OT    -0.834000       15.9994           0
   21396 WT1  7946 TIP3 H1   HT     0.417000        1.0080           0
   21397 WT1  7946 TIP3 H2   HT     0.417000        1.0080           0
   21398 WT1  7947 TIP3 OH2  OT    -0.834000       15.9994           0
   21399 WT1  7947 TIP3 H1   HT     0.417000        1.0080           0
   21400 WT1  7947 TIP3 H2   HT     0.417000        1.0080           0
   21401 WT1  7948 TIP3 OH2  OT    -0.834000       15.9994           0
   21402 WT1  7948 TIP3 H1   HT     0.417000        1.0080           0
   21403 WT1  7948 TIP3 H2   HT     0.417000        1.0080           0
   21404 WT1  7949 TIP3 OH2  OT    -0.834000       15.9994           0
   21405 WT1  7949 TIP3 H1   HT     0.417000        1.0080           0
   21406 WT1  7949 TIP3 H2   HT     0.417000        1.0080           0
   21407 WT1  7950 TIP3 OH2  OT    -0.834000       15.9994           0
   21408 WT1  7950 TIP3 H1   HT     0.417000        1.0080           0
   21409 WT1  7950 TIP3 H2   HT     0.417000        1.0080           0
   21410 WT1  7951 TIP3 OH2  OT    -0.834000       15.9994           0
   21411 WT1  7951 TIP3 H1   HT     0.417000        1.0080           0
   21412 WT1  7951 TIP3 H2   HT     0.417000        1.0080           0
   21413 WT1  7952 TIP3 OH2  OT    -0.834000       15.9994           0
   21414 WT1  7952 TIP3 H1   HT     0.417000        1.0080           0
   21415 WT1  7952 TIP3 H2   HT     0.417000        1.0080           0
   21416 WT1  7953 TIP3 OH2  OT    -0.834000       15.9994           0
   21417 WT1  7953 TIP3 H1   HT     0.417000        1.0080           0
   21418 WT1  7953 TIP3 H2   HT     0.417000        1.0080           0
   21419 WT1  7954 TIP3 OH2  OT    -0.834000       15.9994           0
   21420 WT1  7954 TIP3 H1   HT     0.417000        1.0080           0
   21421 WT1  7954 TIP3 H2   HT     0.417000        1.0080           0
   21422 WT1  7955 TIP3 OH2  OT    -0.834000       15.9994           0
   21423 WT1  7955 TIP3 H1   HT     0.417000        1.0080           0
   21424 WT1  7955 TIP3 H2   HT     0.417000        1.0080           0
   21425 WT1  7956 TIP3 OH2  OT    -0.834000       15.9994           0
   21426 WT1  7956 TIP3 H1   HT     0.417000        1.0080           0
   21427 WT1  7956 TIP3 H2   HT     0.417000        1.0080           0
   21428 WT1  7957 TIP3 OH2  OT    -0.834000       15.9994           0
   21429 WT1  7957 TIP3 H1   HT     0.417000        1.0080           0
   21430 WT1  7957 TIP3 H2   HT     0.417000        1.0080           0
   21431 WT1  7958 TIP3 OH2  OT    -0.834000       15.9994           0
   21432 WT1  7958 TIP3 H1   HT     0.417000        1.0080           0
   21433 WT1  7958 TIP3 H2   HT     0.417000        1.0080           0
   21434 WT1  7959 TIP3 OH2  OT    -0.834000       15.9994           0
   21435 WT1  7959 TIP3 H1   HT     0.417000        1.0080           0
   21436 WT1  7959 TIP3 H2   HT     0.417000        1.0080           0
   21437 WT1  7960 TIP3 OH2  OT    -0.834000       15.9994           0
   21438 WT1  7960 TIP3 H1   HT     0.417000        1.0080           0
   21439 WT1  7960 TIP3 H2   HT     0.417000        1.0080           0
   21440 WT1  7962 TIP3 OH2  OT    -0.834000       15.9994           0
   21441 WT1  7962 TIP3 H1   HT     0.417000        1.0080           0
   21442 WT1  7962 TIP3 H2   HT     0.417000        1.0080           0
   21443 WT1  7963 TIP3 OH2  OT    -0.834000       15.9994           0
   21444 WT1  7963 TIP3 H1   HT     0.417000        1.0080           0
   21445 WT1  7963 TIP3 H2   HT     0.417000        1.0080           0
   21446 WT1  7964 TIP3 OH2  OT    -0.834000       15.9994           0
   21447 WT1  7964 TIP3 H1   HT     0.417000        1.0080           0
   21448 WT1  7964 TIP3 H2   HT     0.417000        1.0080           0
   21449 WT1  7965 TIP3 OH2  OT    -0.834000       15.9994           0
   21450 WT1  7965 TIP3 H1   HT     0.417000        1.0080           0
   21451 WT1  7965 TIP3 H2   HT     0.417000        1.0080           0
   21452 WT1  7966 TIP3 OH2  OT    -0.834000       15.9994           0
   21453 WT1  7966 TIP3 H1   HT     0.417000        1.0080           0
   21454 WT1  7966 TIP3 H2   HT     0.417000        1.0080           0
   21455 WT1  7967 TIP3 OH2  OT    -0.834000       15.9994           0
   21456 WT1  7967 TIP3 H1   HT     0.417000        1.0080           0
   21457 WT1  7967 TIP3 H2   HT     0.417000        1.0080           0
   21458 WT1  7969 TIP3 OH2  OT    -0.834000       15.9994           0
   21459 WT1  7969 TIP3 H1   HT     0.417000        1.0080           0
   21460 WT1  7969 TIP3 H2   HT     0.417000        1.0080           0
   21461 WT1  7970 TIP3 OH2  OT    -0.834000       15.9994           0
   21462 WT1  7970 TIP3 H1   HT     0.417000        1.0080           0
   21463 WT1  7970 TIP3 H2   HT     0.417000        1.0080           0
   21464 WT1  7971 TIP3 OH2  OT    -0.834000       15.9994           0
   21465 WT1  7971 TIP3 H1   HT     0.417000        1.0080           0
   21466 WT1  7971 TIP3 H2   HT     0.417000        1.0080           0
   21467 WT1  7972 TIP3 OH2  OT    -0.834000       15.9994           0
   21468 WT1  7972 TIP3 H1   HT     0.417000        1.0080           0
   21469 WT1  7972 TIP3 H2   HT     0.417000        1.0080           0
   21470 WT1  7973 TIP3 OH2  OT    -0.834000       15.9994           0
   21471 WT1  7973 TIP3 H1   HT     0.417000        1.0080           0
   21472 WT1  7973 TIP3 H2   HT     0.417000        1.0080           0
   21473 WT1  7975 TIP3 OH2  OT    -0.834000       15.9994           0
   21474 WT1  7975 TIP3 H1   HT     0.417000        1.0080           0
   21475 WT1  7975 TIP3 H2   HT     0.417000        1.0080           0
   21476 WT1  7976 TIP3 OH2  OT    -0.834000       15.9994           0
   21477 WT1  7976 TIP3 H1   HT     0.417000        1.0080           0
   21478 WT1  7976 TIP3 H2   HT     0.417000        1.0080           0
   21479 WT1  7977 TIP3 OH2  OT    -0.834000       15.9994           0
   21480 WT1  7977 TIP3 H1   HT     0.417000        1.0080           0
   21481 WT1  7977 TIP3 H2   HT     0.417000        1.0080           0
   21482 WT1  7978 TIP3 OH2  OT    -0.834000       15.9994           0
   21483 WT1  7978 TIP3 H1   HT     0.417000        1.0080           0
   21484 WT1  7978 TIP3 H2   HT     0.417000        1.0080           0
   21485 WT1  7979 TIP3 OH2  OT    -0.834000       15.9994           0
   21486 WT1  7979 TIP3 H1   HT     0.417000        1.0080           0
   21487 WT1  7979 TIP3 H2   HT     0.417000        1.0080           0
   21488 WT1  7980 TIP3 OH2  OT    -0.834000       15.9994           0
   21489 WT1  7980 TIP3 H1   HT     0.417000        1.0080           0
   21490 WT1  7980 TIP3 H2   HT     0.417000        1.0080           0
   21491 WT1  7981 TIP3 OH2  OT    -0.834000       15.9994           0
   21492 WT1  7981 TIP3 H1   HT     0.417000        1.0080           0
   21493 WT1  7981 TIP3 H2   HT     0.417000        1.0080           0
   21494 WT1  7982 TIP3 OH2  OT    -0.834000       15.9994           0
   21495 WT1  7982 TIP3 H1   HT     0.417000        1.0080           0
   21496 WT1  7982 TIP3 H2   HT     0.417000        1.0080           0
   21497 WT1  7983 TIP3 OH2  OT    -0.834000       15.9994           0
   21498 WT1  7983 TIP3 H1   HT     0.417000        1.0080           0
   21499 WT1  7983 TIP3 H2   HT     0.417000        1.0080           0
   21500 WT1  7985 TIP3 OH2  OT    -0.834000       15.9994           0
   21501 WT1  7985 TIP3 H1   HT     0.417000        1.0080           0
   21502 WT1  7985 TIP3 H2   HT     0.417000        1.0080           0
   21503 WT1  7986 TIP3 OH2  OT    -0.834000       15.9994           0
   21504 WT1  7986 TIP3 H1   HT     0.417000        1.0080           0
   21505 WT1  7986 TIP3 H2   HT     0.417000        1.0080           0
   21506 WT1  7987 TIP3 OH2  OT    -0.834000       15.9994           0
   21507 WT1  7987 TIP3 H1   HT     0.417000        1.0080           0
   21508 WT1  7987 TIP3 H2   HT     0.417000        1.0080           0
   21509 WT1  7988 TIP3 OH2  OT    -0.834000       15.9994           0
   21510 WT1  7988 TIP3 H1   HT     0.417000        1.0080           0
   21511 WT1  7988 TIP3 H2   HT     0.417000        1.0080           0
   21512 WT1  7989 TIP3 OH2  OT    -0.834000       15.9994           0
   21513 WT1  7989 TIP3 H1   HT     0.417000        1.0080           0
   21514 WT1  7989 TIP3 H2   HT     0.417000        1.0080           0
   21515 WT1  7991 TIP3 OH2  OT    -0.834000       15.9994           0
   21516 WT1  7991 TIP3 H1   HT     0.417000        1.0080           0
   21517 WT1  7991 TIP3 H2   HT     0.417000        1.0080           0
   21518 WT1  7992 TIP3 OH2  OT    -0.834000       15.9994           0
   21519 WT1  7992 TIP3 H1   HT     0.417000        1.0080           0
   21520 WT1  7992 TIP3 H2   HT     0.417000        1.0080           0
   21521 WT1  7993 TIP3 OH2  OT    -0.834000       15.9994           0
   21522 WT1  7993 TIP3 H1   HT     0.417000        1.0080           0
   21523 WT1  7993 TIP3 H2   HT     0.417000        1.0080           0
   21524 WT1  7994 TIP3 OH2  OT    -0.834000       15.9994           0
   21525 WT1  7994 TIP3 H1   HT     0.417000        1.0080           0
   21526 WT1  7994 TIP3 H2   HT     0.417000        1.0080           0
   21527 WT1  7995 TIP3 OH2  OT    -0.834000       15.9994           0
   21528 WT1  7995 TIP3 H1   HT     0.417000        1.0080           0
   21529 WT1  7995 TIP3 H2   HT     0.417000        1.0080           0
   21530 WT1  7996 TIP3 OH2  OT    -0.834000       15.9994           0
   21531 WT1  7996 TIP3 H1   HT     0.417000        1.0080           0
   21532 WT1  7996 TIP3 H2   HT     0.417000        1.0080           0
   21533 WT1  7997 TIP3 OH2  OT    -0.834000       15.9994           0
   21534 WT1  7997 TIP3 H1   HT     0.417000        1.0080           0
   21535 WT1  7997 TIP3 H2   HT     0.417000        1.0080           0
   21536 WT1  7999 TIP3 OH2  OT    -0.834000       15.9994           0
   21537 WT1  7999 TIP3 H1   HT     0.417000        1.0080           0
   21538 WT1  7999 TIP3 H2   HT     0.417000        1.0080           0
   21539 WT1  8000 TIP3 OH2  OT    -0.834000       15.9994           0
   21540 WT1  8000 TIP3 H1   HT     0.417000        1.0080           0
   21541 WT1  8000 TIP3 H2   HT     0.417000        1.0080           0
   21542 WT1  8001 TIP3 OH2  OT    -0.834000       15.9994           0
   21543 WT1  8001 TIP3 H1   HT     0.417000        1.0080           0
   21544 WT1  8001 TIP3 H2   HT     0.417000        1.0080           0
   21545 WT1  8002 TIP3 OH2  OT    -0.834000       15.9994           0
   21546 WT1  8002 TIP3 H1   HT     0.417000        1.0080           0
   21547 WT1  8002 TIP3 H2   HT     0.417000        1.0080           0
   21548 WT1  8003 TIP3 OH2  OT    -0.834000       15.9994           0
   21549 WT1  8003 TIP3 H1   HT     0.417000        1.0080           0
   21550 WT1  8003 TIP3 H2   HT     0.417000        1.0080           0
   21551 WT1  8004 TIP3 OH2  OT    -0.834000       15.9994           0
   21552 WT1  8004 TIP3 H1   HT     0.417000        1.0080           0
   21553 WT1  8004 TIP3 H2   HT     0.417000        1.0080           0
   21554 WT1  8005 TIP3 OH2  OT    -0.834000       15.9994           0
   21555 WT1  8005 TIP3 H1   HT     0.417000        1.0080           0
   21556 WT1  8005 TIP3 H2   HT     0.417000        1.0080           0
   21557 WT1  8006 TIP3 OH2  OT    -0.834000       15.9994           0
   21558 WT1  8006 TIP3 H1   HT     0.417000        1.0080           0
   21559 WT1  8006 TIP3 H2   HT     0.417000        1.0080           0
   21560 WT1  8007 TIP3 OH2  OT    -0.834000       15.9994           0
   21561 WT1  8007 TIP3 H1   HT     0.417000        1.0080           0
   21562 WT1  8007 TIP3 H2   HT     0.417000        1.0080           0
   21563 WT1  8008 TIP3 OH2  OT    -0.834000       15.9994           0
   21564 WT1  8008 TIP3 H1   HT     0.417000        1.0080           0
   21565 WT1  8008 TIP3 H2   HT     0.417000        1.0080           0
   21566 WT1  8011 TIP3 OH2  OT    -0.834000       15.9994           0
   21567 WT1  8011 TIP3 H1   HT     0.417000        1.0080           0
   21568 WT1  8011 TIP3 H2   HT     0.417000        1.0080           0
   21569 WT1  8012 TIP3 OH2  OT    -0.834000       15.9994           0
   21570 WT1  8012 TIP3 H1   HT     0.417000        1.0080           0
   21571 WT1  8012 TIP3 H2   HT     0.417000        1.0080           0
   21572 WT1  8014 TIP3 OH2  OT    -0.834000       15.9994           0
   21573 WT1  8014 TIP3 H1   HT     0.417000        1.0080           0
   21574 WT1  8014 TIP3 H2   HT     0.417000        1.0080           0
   21575 WT1  8015 TIP3 OH2  OT    -0.834000       15.9994           0
   21576 WT1  8015 TIP3 H1   HT     0.417000        1.0080           0
   21577 WT1  8015 TIP3 H2   HT     0.417000        1.0080           0
   21578 WT1  8016 TIP3 OH2  OT    -0.834000       15.9994           0
   21579 WT1  8016 TIP3 H1   HT     0.417000        1.0080           0
   21580 WT1  8016 TIP3 H2   HT     0.417000        1.0080           0
   21581 WT1  8017 TIP3 OH2  OT    -0.834000       15.9994           0
   21582 WT1  8017 TIP3 H1   HT     0.417000        1.0080           0
   21583 WT1  8017 TIP3 H2   HT     0.417000        1.0080           0
   21584 WT1  8018 TIP3 OH2  OT    -0.834000       15.9994           0
   21585 WT1  8018 TIP3 H1   HT     0.417000        1.0080           0
   21586 WT1  8018 TIP3 H2   HT     0.417000        1.0080           0
   21587 WT1  8019 TIP3 OH2  OT    -0.834000       15.9994           0
   21588 WT1  8019 TIP3 H1   HT     0.417000        1.0080           0
   21589 WT1  8019 TIP3 H2   HT     0.417000        1.0080           0
   21590 WT1  8020 TIP3 OH2  OT    -0.834000       15.9994           0
   21591 WT1  8020 TIP3 H1   HT     0.417000        1.0080           0
   21592 WT1  8020 TIP3 H2   HT     0.417000        1.0080           0
   21593 WT1  8021 TIP3 OH2  OT    -0.834000       15.9994           0
   21594 WT1  8021 TIP3 H1   HT     0.417000        1.0080           0
   21595 WT1  8021 TIP3 H2   HT     0.417000        1.0080           0
   21596 WT1  8022 TIP3 OH2  OT    -0.834000       15.9994           0
   21597 WT1  8022 TIP3 H1   HT     0.417000        1.0080           0
   21598 WT1  8022 TIP3 H2   HT     0.417000        1.0080           0
   21599 WT1  8023 TIP3 OH2  OT    -0.834000       15.9994           0
   21600 WT1  8023 TIP3 H1   HT     0.417000        1.0080           0
   21601 WT1  8023 TIP3 H2   HT     0.417000        1.0080           0
   21602 WT1  8024 TIP3 OH2  OT    -0.834000       15.9994           0
   21603 WT1  8024 TIP3 H1   HT     0.417000        1.0080           0
   21604 WT1  8024 TIP3 H2   HT     0.417000        1.0080           0
   21605 WT1  8025 TIP3 OH2  OT    -0.834000       15.9994           0
   21606 WT1  8025 TIP3 H1   HT     0.417000        1.0080           0
   21607 WT1  8025 TIP3 H2   HT     0.417000        1.0080           0
   21608 WT1  8026 TIP3 OH2  OT    -0.834000       15.9994           0
   21609 WT1  8026 TIP3 H1   HT     0.417000        1.0080           0
   21610 WT1  8026 TIP3 H2   HT     0.417000        1.0080           0
   21611 WT1  8028 TIP3 OH2  OT    -0.834000       15.9994           0
   21612 WT1  8028 TIP3 H1   HT     0.417000        1.0080           0
   21613 WT1  8028 TIP3 H2   HT     0.417000        1.0080           0
   21614 WT1  8030 TIP3 OH2  OT    -0.834000       15.9994           0
   21615 WT1  8030 TIP3 H1   HT     0.417000        1.0080           0
   21616 WT1  8030 TIP3 H2   HT     0.417000        1.0080           0
   21617 WT1  8032 TIP3 OH2  OT    -0.834000       15.9994           0
   21618 WT1  8032 TIP3 H1   HT     0.417000        1.0080           0
   21619 WT1  8032 TIP3 H2   HT     0.417000        1.0080           0
   21620 WT1  8034 TIP3 OH2  OT    -0.834000       15.9994           0
   21621 WT1  8034 TIP3 H1   HT     0.417000        1.0080           0
   21622 WT1  8034 TIP3 H2   HT     0.417000        1.0080           0
   21623 WT1  8035 TIP3 OH2  OT    -0.834000       15.9994           0
   21624 WT1  8035 TIP3 H1   HT     0.417000        1.0080           0
   21625 WT1  8035 TIP3 H2   HT     0.417000        1.0080           0
   21626 WT1  8037 TIP3 OH2  OT    -0.834000       15.9994           0
   21627 WT1  8037 TIP3 H1   HT     0.417000        1.0080           0
   21628 WT1  8037 TIP3 H2   HT     0.417000        1.0080           0
   21629 WT1  8038 TIP3 OH2  OT    -0.834000       15.9994           0
   21630 WT1  8038 TIP3 H1   HT     0.417000        1.0080           0
   21631 WT1  8038 TIP3 H2   HT     0.417000        1.0080           0
   21632 WT1  8039 TIP3 OH2  OT    -0.834000       15.9994           0
   21633 WT1  8039 TIP3 H1   HT     0.417000        1.0080           0
   21634 WT1  8039 TIP3 H2   HT     0.417000        1.0080           0
   21635 WT1  8040 TIP3 OH2  OT    -0.834000       15.9994           0
   21636 WT1  8040 TIP3 H1   HT     0.417000        1.0080           0
   21637 WT1  8040 TIP3 H2   HT     0.417000        1.0080           0
   21638 WT1  8041 TIP3 OH2  OT    -0.834000       15.9994           0
   21639 WT1  8041 TIP3 H1   HT     0.417000        1.0080           0
   21640 WT1  8041 TIP3 H2   HT     0.417000        1.0080           0
   21641 WT1  8042 TIP3 OH2  OT    -0.834000       15.9994           0
   21642 WT1  8042 TIP3 H1   HT     0.417000        1.0080           0
   21643 WT1  8042 TIP3 H2   HT     0.417000        1.0080           0
   21644 WT1  8043 TIP3 OH2  OT    -0.834000       15.9994           0
   21645 WT1  8043 TIP3 H1   HT     0.417000        1.0080           0
   21646 WT1  8043 TIP3 H2   HT     0.417000        1.0080           0
   21647 WT1  8044 TIP3 OH2  OT    -0.834000       15.9994           0
   21648 WT1  8044 TIP3 H1   HT     0.417000        1.0080           0
   21649 WT1  8044 TIP3 H2   HT     0.417000        1.0080           0
   21650 WT1  8045 TIP3 OH2  OT    -0.834000       15.9994           0
   21651 WT1  8045 TIP3 H1   HT     0.417000        1.0080           0
   21652 WT1  8045 TIP3 H2   HT     0.417000        1.0080           0
   21653 WT1  8046 TIP3 OH2  OT    -0.834000       15.9994           0
   21654 WT1  8046 TIP3 H1   HT     0.417000        1.0080           0
   21655 WT1  8046 TIP3 H2   HT     0.417000        1.0080           0
   21656 WT1  8047 TIP3 OH2  OT    -0.834000       15.9994           0
   21657 WT1  8047 TIP3 H1   HT     0.417000        1.0080           0
   21658 WT1  8047 TIP3 H2   HT     0.417000        1.0080           0
   21659 WT1  8048 TIP3 OH2  OT    -0.834000       15.9994           0
   21660 WT1  8048 TIP3 H1   HT     0.417000        1.0080           0
   21661 WT1  8048 TIP3 H2   HT     0.417000        1.0080           0
   21662 WT1  8049 TIP3 OH2  OT    -0.834000       15.9994           0
   21663 WT1  8049 TIP3 H1   HT     0.417000        1.0080           0
   21664 WT1  8049 TIP3 H2   HT     0.417000        1.0080           0
   21665 WT1  8050 TIP3 OH2  OT    -0.834000       15.9994           0
   21666 WT1  8050 TIP3 H1   HT     0.417000        1.0080           0
   21667 WT1  8050 TIP3 H2   HT     0.417000        1.0080           0
   21668 WT1  8051 TIP3 OH2  OT    -0.834000       15.9994           0
   21669 WT1  8051 TIP3 H1   HT     0.417000        1.0080           0
   21670 WT1  8051 TIP3 H2   HT     0.417000        1.0080           0
   21671 WT1  8052 TIP3 OH2  OT    -0.834000       15.9994           0
   21672 WT1  8052 TIP3 H1   HT     0.417000        1.0080           0
   21673 WT1  8052 TIP3 H2   HT     0.417000        1.0080           0
   21674 WT1  8053 TIP3 OH2  OT    -0.834000       15.9994           0
   21675 WT1  8053 TIP3 H1   HT     0.417000        1.0080           0
   21676 WT1  8053 TIP3 H2   HT     0.417000        1.0080           0
   21677 WT1  8054 TIP3 OH2  OT    -0.834000       15.9994           0
   21678 WT1  8054 TIP3 H1   HT     0.417000        1.0080           0
   21679 WT1  8054 TIP3 H2   HT     0.417000        1.0080           0
   21680 WT1  8056 TIP3 OH2  OT    -0.834000       15.9994           0
   21681 WT1  8056 TIP3 H1   HT     0.417000        1.0080           0
   21682 WT1  8056 TIP3 H2   HT     0.417000        1.0080           0
   21683 WT1  8057 TIP3 OH2  OT    -0.834000       15.9994           0
   21684 WT1  8057 TIP3 H1   HT     0.417000        1.0080           0
   21685 WT1  8057 TIP3 H2   HT     0.417000        1.0080           0
   21686 WT1  8058 TIP3 OH2  OT    -0.834000       15.9994           0
   21687 WT1  8058 TIP3 H1   HT     0.417000        1.0080           0
   21688 WT1  8058 TIP3 H2   HT     0.417000        1.0080           0
   21689 WT1  8059 TIP3 OH2  OT    -0.834000       15.9994           0
   21690 WT1  8059 TIP3 H1   HT     0.417000        1.0080           0
   21691 WT1  8059 TIP3 H2   HT     0.417000        1.0080           0
   21692 WT1  8060 TIP3 OH2  OT    -0.834000       15.9994           0
   21693 WT1  8060 TIP3 H1   HT     0.417000        1.0080           0
   21694 WT1  8060 TIP3 H2   HT     0.417000        1.0080           0
   21695 WT1  8061 TIP3 OH2  OT    -0.834000       15.9994           0
   21696 WT1  8061 TIP3 H1   HT     0.417000        1.0080           0
   21697 WT1  8061 TIP3 H2   HT     0.417000        1.0080           0
   21698 WT1  8062 TIP3 OH2  OT    -0.834000       15.9994           0
   21699 WT1  8062 TIP3 H1   HT     0.417000        1.0080           0
   21700 WT1  8062 TIP3 H2   HT     0.417000        1.0080           0
   21701 WT1  8063 TIP3 OH2  OT    -0.834000       15.9994           0
   21702 WT1  8063 TIP3 H1   HT     0.417000        1.0080           0
   21703 WT1  8063 TIP3 H2   HT     0.417000        1.0080           0
   21704 WT1  8064 TIP3 OH2  OT    -0.834000       15.9994           0
   21705 WT1  8064 TIP3 H1   HT     0.417000        1.0080           0
   21706 WT1  8064 TIP3 H2   HT     0.417000        1.0080           0
   21707 WT1  8066 TIP3 OH2  OT    -0.834000       15.9994           0
   21708 WT1  8066 TIP3 H1   HT     0.417000        1.0080           0
   21709 WT1  8066 TIP3 H2   HT     0.417000        1.0080           0
   21710 WT1  8067 TIP3 OH2  OT    -0.834000       15.9994           0
   21711 WT1  8067 TIP3 H1   HT     0.417000        1.0080           0
   21712 WT1  8067 TIP3 H2   HT     0.417000        1.0080           0
   21713 WT1  8069 TIP3 OH2  OT    -0.834000       15.9994           0
   21714 WT1  8069 TIP3 H1   HT     0.417000        1.0080           0
   21715 WT1  8069 TIP3 H2   HT     0.417000        1.0080           0
   21716 WT1  8070 TIP3 OH2  OT    -0.834000       15.9994           0
   21717 WT1  8070 TIP3 H1   HT     0.417000        1.0080           0
   21718 WT1  8070 TIP3 H2   HT     0.417000        1.0080           0
   21719 WT1  8071 TIP3 OH2  OT    -0.834000       15.9994           0
   21720 WT1  8071 TIP3 H1   HT     0.417000        1.0080           0
   21721 WT1  8071 TIP3 H2   HT     0.417000        1.0080           0
   21722 WT1  8072 TIP3 OH2  OT    -0.834000       15.9994           0
   21723 WT1  8072 TIP3 H1   HT     0.417000        1.0080           0
   21724 WT1  8072 TIP3 H2   HT     0.417000        1.0080           0
   21725 WT1  8073 TIP3 OH2  OT    -0.834000       15.9994           0
   21726 WT1  8073 TIP3 H1   HT     0.417000        1.0080           0
   21727 WT1  8073 TIP3 H2   HT     0.417000        1.0080           0
   21728 WT1  8074 TIP3 OH2  OT    -0.834000       15.9994           0
   21729 WT1  8074 TIP3 H1   HT     0.417000        1.0080           0
   21730 WT1  8074 TIP3 H2   HT     0.417000        1.0080           0
   21731 WT1  8075 TIP3 OH2  OT    -0.834000       15.9994           0
   21732 WT1  8075 TIP3 H1   HT     0.417000        1.0080           0
   21733 WT1  8075 TIP3 H2   HT     0.417000        1.0080           0
   21734 WT1  8076 TIP3 OH2  OT    -0.834000       15.9994           0
   21735 WT1  8076 TIP3 H1   HT     0.417000        1.0080           0
   21736 WT1  8076 TIP3 H2   HT     0.417000        1.0080           0
   21737 WT1  8077 TIP3 OH2  OT    -0.834000       15.9994           0
   21738 WT1  8077 TIP3 H1   HT     0.417000        1.0080           0
   21739 WT1  8077 TIP3 H2   HT     0.417000        1.0080           0
   21740 WT1  8078 TIP3 OH2  OT    -0.834000       15.9994           0
   21741 WT1  8078 TIP3 H1   HT     0.417000        1.0080           0
   21742 WT1  8078 TIP3 H2   HT     0.417000        1.0080           0
   21743 WT1  8079 TIP3 OH2  OT    -0.834000       15.9994           0
   21744 WT1  8079 TIP3 H1   HT     0.417000        1.0080           0
   21745 WT1  8079 TIP3 H2   HT     0.417000        1.0080           0
   21746 WT1  8080 TIP3 OH2  OT    -0.834000       15.9994           0
   21747 WT1  8080 TIP3 H1   HT     0.417000        1.0080           0
   21748 WT1  8080 TIP3 H2   HT     0.417000        1.0080           0
   21749 WT1  8081 TIP3 OH2  OT    -0.834000       15.9994           0
   21750 WT1  8081 TIP3 H1   HT     0.417000        1.0080           0
   21751 WT1  8081 TIP3 H2   HT     0.417000        1.0080           0
   21752 WT1  8082 TIP3 OH2  OT    -0.834000       15.9994           0
   21753 WT1  8082 TIP3 H1   HT     0.417000        1.0080           0
   21754 WT1  8082 TIP3 H2   HT     0.417000        1.0080           0
   21755 WT1  8083 TIP3 OH2  OT    -0.834000       15.9994           0
   21756 WT1  8083 TIP3 H1   HT     0.417000        1.0080           0
   21757 WT1  8083 TIP3 H2   HT     0.417000        1.0080           0
   21758 WT1  8084 TIP3 OH2  OT    -0.834000       15.9994           0
   21759 WT1  8084 TIP3 H1   HT     0.417000        1.0080           0
   21760 WT1  8084 TIP3 H2   HT     0.417000        1.0080           0
   21761 WT1  8085 TIP3 OH2  OT    -0.834000       15.9994           0
   21762 WT1  8085 TIP3 H1   HT     0.417000        1.0080           0
   21763 WT1  8085 TIP3 H2   HT     0.417000        1.0080           0
   21764 WT1  8086 TIP3 OH2  OT    -0.834000       15.9994           0
   21765 WT1  8086 TIP3 H1   HT     0.417000        1.0080           0
   21766 WT1  8086 TIP3 H2   HT     0.417000        1.0080           0
   21767 WT1  8087 TIP3 OH2  OT    -0.834000       15.9994           0
   21768 WT1  8087 TIP3 H1   HT     0.417000        1.0080           0
   21769 WT1  8087 TIP3 H2   HT     0.417000        1.0080           0
   21770 WT1  8088 TIP3 OH2  OT    -0.834000       15.9994           0
   21771 WT1  8088 TIP3 H1   HT     0.417000        1.0080           0
   21772 WT1  8088 TIP3 H2   HT     0.417000        1.0080           0
   21773 WT1  8090 TIP3 OH2  OT    -0.834000       15.9994           0
   21774 WT1  8090 TIP3 H1   HT     0.417000        1.0080           0
   21775 WT1  8090 TIP3 H2   HT     0.417000        1.0080           0
   21776 WT1  8091 TIP3 OH2  OT    -0.834000       15.9994           0
   21777 WT1  8091 TIP3 H1   HT     0.417000        1.0080           0
   21778 WT1  8091 TIP3 H2   HT     0.417000        1.0080           0
   21779 WT1  8092 TIP3 OH2  OT    -0.834000       15.9994           0
   21780 WT1  8092 TIP3 H1   HT     0.417000        1.0080           0
   21781 WT1  8092 TIP3 H2   HT     0.417000        1.0080           0
   21782 WT1  8093 TIP3 OH2  OT    -0.834000       15.9994           0
   21783 WT1  8093 TIP3 H1   HT     0.417000        1.0080           0
   21784 WT1  8093 TIP3 H2   HT     0.417000        1.0080           0
   21785 WT1  8094 TIP3 OH2  OT    -0.834000       15.9994           0
   21786 WT1  8094 TIP3 H1   HT     0.417000        1.0080           0
   21787 WT1  8094 TIP3 H2   HT     0.417000        1.0080           0
   21788 WT1  8095 TIP3 OH2  OT    -0.834000       15.9994           0
   21789 WT1  8095 TIP3 H1   HT     0.417000        1.0080           0
   21790 WT1  8095 TIP3 H2   HT     0.417000        1.0080           0
   21791 WT1  8096 TIP3 OH2  OT    -0.834000       15.9994           0
   21792 WT1  8096 TIP3 H1   HT     0.417000        1.0080           0
   21793 WT1  8096 TIP3 H2   HT     0.417000        1.0080           0
   21794 WT1  8097 TIP3 OH2  OT    -0.834000       15.9994           0
   21795 WT1  8097 TIP3 H1   HT     0.417000        1.0080           0
   21796 WT1  8097 TIP3 H2   HT     0.417000        1.0080           0
   21797 WT1  8098 TIP3 OH2  OT    -0.834000       15.9994           0
   21798 WT1  8098 TIP3 H1   HT     0.417000        1.0080           0
   21799 WT1  8098 TIP3 H2   HT     0.417000        1.0080           0
   21800 WT1  8099 TIP3 OH2  OT    -0.834000       15.9994           0
   21801 WT1  8099 TIP3 H1   HT     0.417000        1.0080           0
   21802 WT1  8099 TIP3 H2   HT     0.417000        1.0080           0
   21803 WT1  8100 TIP3 OH2  OT    -0.834000       15.9994           0
   21804 WT1  8100 TIP3 H1   HT     0.417000        1.0080           0
   21805 WT1  8100 TIP3 H2   HT     0.417000        1.0080           0
   21806 WT1  8101 TIP3 OH2  OT    -0.834000       15.9994           0
   21807 WT1  8101 TIP3 H1   HT     0.417000        1.0080           0
   21808 WT1  8101 TIP3 H2   HT     0.417000        1.0080           0
   21809 WT1  8102 TIP3 OH2  OT    -0.834000       15.9994           0
   21810 WT1  8102 TIP3 H1   HT     0.417000        1.0080           0
   21811 WT1  8102 TIP3 H2   HT     0.417000        1.0080           0
   21812 WT1  8103 TIP3 OH2  OT    -0.834000       15.9994           0
   21813 WT1  8103 TIP3 H1   HT     0.417000        1.0080           0
   21814 WT1  8103 TIP3 H2   HT     0.417000        1.0080           0
   21815 WT1  8104 TIP3 OH2  OT    -0.834000       15.9994           0
   21816 WT1  8104 TIP3 H1   HT     0.417000        1.0080           0
   21817 WT1  8104 TIP3 H2   HT     0.417000        1.0080           0
   21818 WT1  8105 TIP3 OH2  OT    -0.834000       15.9994           0
   21819 WT1  8105 TIP3 H1   HT     0.417000        1.0080           0
   21820 WT1  8105 TIP3 H2   HT     0.417000        1.0080           0
   21821 WT1  8106 TIP3 OH2  OT    -0.834000       15.9994           0
   21822 WT1  8106 TIP3 H1   HT     0.417000        1.0080           0
   21823 WT1  8106 TIP3 H2   HT     0.417000        1.0080           0
   21824 WT1  8107 TIP3 OH2  OT    -0.834000       15.9994           0
   21825 WT1  8107 TIP3 H1   HT     0.417000        1.0080           0
   21826 WT1  8107 TIP3 H2   HT     0.417000        1.0080           0
   21827 WT1  8108 TIP3 OH2  OT    -0.834000       15.9994           0
   21828 WT1  8108 TIP3 H1   HT     0.417000        1.0080           0
   21829 WT1  8108 TIP3 H2   HT     0.417000        1.0080           0
   21830 WT1  8109 TIP3 OH2  OT    -0.834000       15.9994           0
   21831 WT1  8109 TIP3 H1   HT     0.417000        1.0080           0
   21832 WT1  8109 TIP3 H2   HT     0.417000        1.0080           0
   21833 WT1  8110 TIP3 OH2  OT    -0.834000       15.9994           0
   21834 WT1  8110 TIP3 H1   HT     0.417000        1.0080           0
   21835 WT1  8110 TIP3 H2   HT     0.417000        1.0080           0
   21836 WT1  8111 TIP3 OH2  OT    -0.834000       15.9994           0
   21837 WT1  8111 TIP3 H1   HT     0.417000        1.0080           0
   21838 WT1  8111 TIP3 H2   HT     0.417000        1.0080           0
   21839 WT1  8112 TIP3 OH2  OT    -0.834000       15.9994           0
   21840 WT1  8112 TIP3 H1   HT     0.417000        1.0080           0
   21841 WT1  8112 TIP3 H2   HT     0.417000        1.0080           0
   21842 WT1  8114 TIP3 OH2  OT    -0.834000       15.9994           0
   21843 WT1  8114 TIP3 H1   HT     0.417000        1.0080           0
   21844 WT1  8114 TIP3 H2   HT     0.417000        1.0080           0
   21845 WT1  8116 TIP3 OH2  OT    -0.834000       15.9994           0
   21846 WT1  8116 TIP3 H1   HT     0.417000        1.0080           0
   21847 WT1  8116 TIP3 H2   HT     0.417000        1.0080           0
   21848 WT1  8118 TIP3 OH2  OT    -0.834000       15.9994           0
   21849 WT1  8118 TIP3 H1   HT     0.417000        1.0080           0
   21850 WT1  8118 TIP3 H2   HT     0.417000        1.0080           0
   21851 WT1  8119 TIP3 OH2  OT    -0.834000       15.9994           0
   21852 WT1  8119 TIP3 H1   HT     0.417000        1.0080           0
   21853 WT1  8119 TIP3 H2   HT     0.417000        1.0080           0
   21854 WT1  8120 TIP3 OH2  OT    -0.834000       15.9994           0
   21855 WT1  8120 TIP3 H1   HT     0.417000        1.0080           0
   21856 WT1  8120 TIP3 H2   HT     0.417000        1.0080           0
   21857 WT1  8121 TIP3 OH2  OT    -0.834000       15.9994           0
   21858 WT1  8121 TIP3 H1   HT     0.417000        1.0080           0
   21859 WT1  8121 TIP3 H2   HT     0.417000        1.0080           0
   21860 WT1  8122 TIP3 OH2  OT    -0.834000       15.9994           0
   21861 WT1  8122 TIP3 H1   HT     0.417000        1.0080           0
   21862 WT1  8122 TIP3 H2   HT     0.417000        1.0080           0
   21863 WT1  8123 TIP3 OH2  OT    -0.834000       15.9994           0
   21864 WT1  8123 TIP3 H1   HT     0.417000        1.0080           0
   21865 WT1  8123 TIP3 H2   HT     0.417000        1.0080           0
   21866 WT1  8124 TIP3 OH2  OT    -0.834000       15.9994           0
   21867 WT1  8124 TIP3 H1   HT     0.417000        1.0080           0
   21868 WT1  8124 TIP3 H2   HT     0.417000        1.0080           0
   21869 WT1  8125 TIP3 OH2  OT    -0.834000       15.9994           0
   21870 WT1  8125 TIP3 H1   HT     0.417000        1.0080           0
   21871 WT1  8125 TIP3 H2   HT     0.417000        1.0080           0
   21872 WT1  8126 TIP3 OH2  OT    -0.834000       15.9994           0
   21873 WT1  8126 TIP3 H1   HT     0.417000        1.0080           0
   21874 WT1  8126 TIP3 H2   HT     0.417000        1.0080           0
   21875 WT1  8127 TIP3 OH2  OT    -0.834000       15.9994           0
   21876 WT1  8127 TIP3 H1   HT     0.417000        1.0080           0
   21877 WT1  8127 TIP3 H2   HT     0.417000        1.0080           0
   21878 WT1  8128 TIP3 OH2  OT    -0.834000       15.9994           0
   21879 WT1  8128 TIP3 H1   HT     0.417000        1.0080           0
   21880 WT1  8128 TIP3 H2   HT     0.417000        1.0080           0
   21881 WT1  8129 TIP3 OH2  OT    -0.834000       15.9994           0
   21882 WT1  8129 TIP3 H1   HT     0.417000        1.0080           0
   21883 WT1  8129 TIP3 H2   HT     0.417000        1.0080           0
   21884 WT1  8130 TIP3 OH2  OT    -0.834000       15.9994           0
   21885 WT1  8130 TIP3 H1   HT     0.417000        1.0080           0
   21886 WT1  8130 TIP3 H2   HT     0.417000        1.0080           0
   21887 WT1  8131 TIP3 OH2  OT    -0.834000       15.9994           0
   21888 WT1  8131 TIP3 H1   HT     0.417000        1.0080           0
   21889 WT1  8131 TIP3 H2   HT     0.417000        1.0080           0
   21890 WT1  8132 TIP3 OH2  OT    -0.834000       15.9994           0
   21891 WT1  8132 TIP3 H1   HT     0.417000        1.0080           0
   21892 WT1  8132 TIP3 H2   HT     0.417000        1.0080           0
   21893 WT1  8133 TIP3 OH2  OT    -0.834000       15.9994           0
   21894 WT1  8133 TIP3 H1   HT     0.417000        1.0080           0
   21895 WT1  8133 TIP3 H2   HT     0.417000        1.0080           0
   21896 WT1  8135 TIP3 OH2  OT    -0.834000       15.9994           0
   21897 WT1  8135 TIP3 H1   HT     0.417000        1.0080           0
   21898 WT1  8135 TIP3 H2   HT     0.417000        1.0080           0
   21899 WT1  8136 TIP3 OH2  OT    -0.834000       15.9994           0
   21900 WT1  8136 TIP3 H1   HT     0.417000        1.0080           0
   21901 WT1  8136 TIP3 H2   HT     0.417000        1.0080           0
   21902 WT1  8138 TIP3 OH2  OT    -0.834000       15.9994           0
   21903 WT1  8138 TIP3 H1   HT     0.417000        1.0080           0
   21904 WT1  8138 TIP3 H2   HT     0.417000        1.0080           0
   21905 WT1  8139 TIP3 OH2  OT    -0.834000       15.9994           0
   21906 WT1  8139 TIP3 H1   HT     0.417000        1.0080           0
   21907 WT1  8139 TIP3 H2   HT     0.417000        1.0080           0
   21908 WT1  8140 TIP3 OH2  OT    -0.834000       15.9994           0
   21909 WT1  8140 TIP3 H1   HT     0.417000        1.0080           0
   21910 WT1  8140 TIP3 H2   HT     0.417000        1.0080           0
   21911 WT1  8141 TIP3 OH2  OT    -0.834000       15.9994           0
   21912 WT1  8141 TIP3 H1   HT     0.417000        1.0080           0
   21913 WT1  8141 TIP3 H2   HT     0.417000        1.0080           0
   21914 WT1  8142 TIP3 OH2  OT    -0.834000       15.9994           0
   21915 WT1  8142 TIP3 H1   HT     0.417000        1.0080           0
   21916 WT1  8142 TIP3 H2   HT     0.417000        1.0080           0
   21917 WT1  8143 TIP3 OH2  OT    -0.834000       15.9994           0
   21918 WT1  8143 TIP3 H1   HT     0.417000        1.0080           0
   21919 WT1  8143 TIP3 H2   HT     0.417000        1.0080           0
   21920 WT1  8144 TIP3 OH2  OT    -0.834000       15.9994           0
   21921 WT1  8144 TIP3 H1   HT     0.417000        1.0080           0
   21922 WT1  8144 TIP3 H2   HT     0.417000        1.0080           0
   21923 WT1  8146 TIP3 OH2  OT    -0.834000       15.9994           0
   21924 WT1  8146 TIP3 H1   HT     0.417000        1.0080           0
   21925 WT1  8146 TIP3 H2   HT     0.417000        1.0080           0
   21926 WT1  8147 TIP3 OH2  OT    -0.834000       15.9994           0
   21927 WT1  8147 TIP3 H1   HT     0.417000        1.0080           0
   21928 WT1  8147 TIP3 H2   HT     0.417000        1.0080           0
   21929 WT1  8148 TIP3 OH2  OT    -0.834000       15.9994           0
   21930 WT1  8148 TIP3 H1   HT     0.417000        1.0080           0
   21931 WT1  8148 TIP3 H2   HT     0.417000        1.0080           0
   21932 WT1  8150 TIP3 OH2  OT    -0.834000       15.9994           0
   21933 WT1  8150 TIP3 H1   HT     0.417000        1.0080           0
   21934 WT1  8150 TIP3 H2   HT     0.417000        1.0080           0
   21935 WT1  8151 TIP3 OH2  OT    -0.834000       15.9994           0
   21936 WT1  8151 TIP3 H1   HT     0.417000        1.0080           0
   21937 WT1  8151 TIP3 H2   HT     0.417000        1.0080           0
   21938 WT1  8152 TIP3 OH2  OT    -0.834000       15.9994           0
   21939 WT1  8152 TIP3 H1   HT     0.417000        1.0080           0
   21940 WT1  8152 TIP3 H2   HT     0.417000        1.0080           0
   21941 WT1  8153 TIP3 OH2  OT    -0.834000       15.9994           0
   21942 WT1  8153 TIP3 H1   HT     0.417000        1.0080           0
   21943 WT1  8153 TIP3 H2   HT     0.417000        1.0080           0
   21944 WT1  8154 TIP3 OH2  OT    -0.834000       15.9994           0
   21945 WT1  8154 TIP3 H1   HT     0.417000        1.0080           0
   21946 WT1  8154 TIP3 H2   HT     0.417000        1.0080           0
   21947 WT1  8155 TIP3 OH2  OT    -0.834000       15.9994           0
   21948 WT1  8155 TIP3 H1   HT     0.417000        1.0080           0
   21949 WT1  8155 TIP3 H2   HT     0.417000        1.0080           0
   21950 WT1  8157 TIP3 OH2  OT    -0.834000       15.9994           0
   21951 WT1  8157 TIP3 H1   HT     0.417000        1.0080           0
   21952 WT1  8157 TIP3 H2   HT     0.417000        1.0080           0
   21953 WT1  8158 TIP3 OH2  OT    -0.834000       15.9994           0
   21954 WT1  8158 TIP3 H1   HT     0.417000        1.0080           0
   21955 WT1  8158 TIP3 H2   HT     0.417000        1.0080           0
   21956 WT1  8160 TIP3 OH2  OT    -0.834000       15.9994           0
   21957 WT1  8160 TIP3 H1   HT     0.417000        1.0080           0
   21958 WT1  8160 TIP3 H2   HT     0.417000        1.0080           0
   21959 WT1  8162 TIP3 OH2  OT    -0.834000       15.9994           0
   21960 WT1  8162 TIP3 H1   HT     0.417000        1.0080           0
   21961 WT1  8162 TIP3 H2   HT     0.417000        1.0080           0
   21962 WT1  8163 TIP3 OH2  OT    -0.834000       15.9994           0
   21963 WT1  8163 TIP3 H1   HT     0.417000        1.0080           0
   21964 WT1  8163 TIP3 H2   HT     0.417000        1.0080           0
   21965 WT1  8164 TIP3 OH2  OT    -0.834000       15.9994           0
   21966 WT1  8164 TIP3 H1   HT     0.417000        1.0080           0
   21967 WT1  8164 TIP3 H2   HT     0.417000        1.0080           0
   21968 WT1  8165 TIP3 OH2  OT    -0.834000       15.9994           0
   21969 WT1  8165 TIP3 H1   HT     0.417000        1.0080           0
   21970 WT1  8165 TIP3 H2   HT     0.417000        1.0080           0
   21971 WT1  8166 TIP3 OH2  OT    -0.834000       15.9994           0
   21972 WT1  8166 TIP3 H1   HT     0.417000        1.0080           0
   21973 WT1  8166 TIP3 H2   HT     0.417000        1.0080           0
   21974 WT1  8167 TIP3 OH2  OT    -0.834000       15.9994           0
   21975 WT1  8167 TIP3 H1   HT     0.417000        1.0080           0
   21976 WT1  8167 TIP3 H2   HT     0.417000        1.0080           0
   21977 WT1  8168 TIP3 OH2  OT    -0.834000       15.9994           0
   21978 WT1  8168 TIP3 H1   HT     0.417000        1.0080           0
   21979 WT1  8168 TIP3 H2   HT     0.417000        1.0080           0
   21980 WT1  8169 TIP3 OH2  OT    -0.834000       15.9994           0
   21981 WT1  8169 TIP3 H1   HT     0.417000        1.0080           0
   21982 WT1  8169 TIP3 H2   HT     0.417000        1.0080           0
   21983 WT1  8170 TIP3 OH2  OT    -0.834000       15.9994           0
   21984 WT1  8170 TIP3 H1   HT     0.417000        1.0080           0
   21985 WT1  8170 TIP3 H2   HT     0.417000        1.0080           0
   21986 WT1  8171 TIP3 OH2  OT    -0.834000       15.9994           0
   21987 WT1  8171 TIP3 H1   HT     0.417000        1.0080           0
   21988 WT1  8171 TIP3 H2   HT     0.417000        1.0080           0
   21989 WT1  8172 TIP3 OH2  OT    -0.834000       15.9994           0
   21990 WT1  8172 TIP3 H1   HT     0.417000        1.0080           0
   21991 WT1  8172 TIP3 H2   HT     0.417000        1.0080           0
   21992 WT1  8173 TIP3 OH2  OT    -0.834000       15.9994           0
   21993 WT1  8173 TIP3 H1   HT     0.417000        1.0080           0
   21994 WT1  8173 TIP3 H2   HT     0.417000        1.0080           0
   21995 WT1  8175 TIP3 OH2  OT    -0.834000       15.9994           0
   21996 WT1  8175 TIP3 H1   HT     0.417000        1.0080           0
   21997 WT1  8175 TIP3 H2   HT     0.417000        1.0080           0
   21998 WT1  8176 TIP3 OH2  OT    -0.834000       15.9994           0
   21999 WT1  8176 TIP3 H1   HT     0.417000        1.0080           0
   22000 WT1  8176 TIP3 H2   HT     0.417000        1.0080           0
   22001 WT1  8177 TIP3 OH2  OT    -0.834000       15.9994           0
   22002 WT1  8177 TIP3 H1   HT     0.417000        1.0080           0
   22003 WT1  8177 TIP3 H2   HT     0.417000        1.0080           0
   22004 WT1  8178 TIP3 OH2  OT    -0.834000       15.9994           0
   22005 WT1  8178 TIP3 H1   HT     0.417000        1.0080           0
   22006 WT1  8178 TIP3 H2   HT     0.417000        1.0080           0
   22007 WT1  8179 TIP3 OH2  OT    -0.834000       15.9994           0
   22008 WT1  8179 TIP3 H1   HT     0.417000        1.0080           0
   22009 WT1  8179 TIP3 H2   HT     0.417000        1.0080           0
   22010 WT1  8180 TIP3 OH2  OT    -0.834000       15.9994           0
   22011 WT1  8180 TIP3 H1   HT     0.417000        1.0080           0
   22012 WT1  8180 TIP3 H2   HT     0.417000        1.0080           0
   22013 WT1  8182 TIP3 OH2  OT    -0.834000       15.9994           0
   22014 WT1  8182 TIP3 H1   HT     0.417000        1.0080           0
   22015 WT1  8182 TIP3 H2   HT     0.417000        1.0080           0
   22016 WT1  8183 TIP3 OH2  OT    -0.834000       15.9994           0
   22017 WT1  8183 TIP3 H1   HT     0.417000        1.0080           0
   22018 WT1  8183 TIP3 H2   HT     0.417000        1.0080           0
   22019 WT1  8184 TIP3 OH2  OT    -0.834000       15.9994           0
   22020 WT1  8184 TIP3 H1   HT     0.417000        1.0080           0
   22021 WT1  8184 TIP3 H2   HT     0.417000        1.0080           0
   22022 WT1  8185 TIP3 OH2  OT    -0.834000       15.9994           0
   22023 WT1  8185 TIP3 H1   HT     0.417000        1.0080           0
   22024 WT1  8185 TIP3 H2   HT     0.417000        1.0080           0
   22025 WT1  8186 TIP3 OH2  OT    -0.834000       15.9994           0
   22026 WT1  8186 TIP3 H1   HT     0.417000        1.0080           0
   22027 WT1  8186 TIP3 H2   HT     0.417000        1.0080           0
   22028 WT1  8187 TIP3 OH2  OT    -0.834000       15.9994           0
   22029 WT1  8187 TIP3 H1   HT     0.417000        1.0080           0
   22030 WT1  8187 TIP3 H2   HT     0.417000        1.0080           0
   22031 WT1  8188 TIP3 OH2  OT    -0.834000       15.9994           0
   22032 WT1  8188 TIP3 H1   HT     0.417000        1.0080           0
   22033 WT1  8188 TIP3 H2   HT     0.417000        1.0080           0
   22034 WT1  8189 TIP3 OH2  OT    -0.834000       15.9994           0
   22035 WT1  8189 TIP3 H1   HT     0.417000        1.0080           0
   22036 WT1  8189 TIP3 H2   HT     0.417000        1.0080           0
   22037 WT1  8190 TIP3 OH2  OT    -0.834000       15.9994           0
   22038 WT1  8190 TIP3 H1   HT     0.417000        1.0080           0
   22039 WT1  8190 TIP3 H2   HT     0.417000        1.0080           0
   22040 WT1  8192 TIP3 OH2  OT    -0.834000       15.9994           0
   22041 WT1  8192 TIP3 H1   HT     0.417000        1.0080           0
   22042 WT1  8192 TIP3 H2   HT     0.417000        1.0080           0
   22043 WT1  8193 TIP3 OH2  OT    -0.834000       15.9994           0
   22044 WT1  8193 TIP3 H1   HT     0.417000        1.0080           0
   22045 WT1  8193 TIP3 H2   HT     0.417000        1.0080           0
   22046 WT1  8194 TIP3 OH2  OT    -0.834000       15.9994           0
   22047 WT1  8194 TIP3 H1   HT     0.417000        1.0080           0
   22048 WT1  8194 TIP3 H2   HT     0.417000        1.0080           0
   22049 WT1  8195 TIP3 OH2  OT    -0.834000       15.9994           0
   22050 WT1  8195 TIP3 H1   HT     0.417000        1.0080           0
   22051 WT1  8195 TIP3 H2   HT     0.417000        1.0080           0
   22052 WT1  8196 TIP3 OH2  OT    -0.834000       15.9994           0
   22053 WT1  8196 TIP3 H1   HT     0.417000        1.0080           0
   22054 WT1  8196 TIP3 H2   HT     0.417000        1.0080           0
   22055 WT1  8197 TIP3 OH2  OT    -0.834000       15.9994           0
   22056 WT1  8197 TIP3 H1   HT     0.417000        1.0080           0
   22057 WT1  8197 TIP3 H2   HT     0.417000        1.0080           0
   22058 WT1  8199 TIP3 OH2  OT    -0.834000       15.9994           0
   22059 WT1  8199 TIP3 H1   HT     0.417000        1.0080           0
   22060 WT1  8199 TIP3 H2   HT     0.417000        1.0080           0
   22061 WT1  8200 TIP3 OH2  OT    -0.834000       15.9994           0
   22062 WT1  8200 TIP3 H1   HT     0.417000        1.0080           0
   22063 WT1  8200 TIP3 H2   HT     0.417000        1.0080           0
   22064 WT1  8201 TIP3 OH2  OT    -0.834000       15.9994           0
   22065 WT1  8201 TIP3 H1   HT     0.417000        1.0080           0
   22066 WT1  8201 TIP3 H2   HT     0.417000        1.0080           0
   22067 WT1  8202 TIP3 OH2  OT    -0.834000       15.9994           0
   22068 WT1  8202 TIP3 H1   HT     0.417000        1.0080           0
   22069 WT1  8202 TIP3 H2   HT     0.417000        1.0080           0
   22070 WT1  8203 TIP3 OH2  OT    -0.834000       15.9994           0
   22071 WT1  8203 TIP3 H1   HT     0.417000        1.0080           0
   22072 WT1  8203 TIP3 H2   HT     0.417000        1.0080           0
   22073 WT1  8204 TIP3 OH2  OT    -0.834000       15.9994           0
   22074 WT1  8204 TIP3 H1   HT     0.417000        1.0080           0
   22075 WT1  8204 TIP3 H2   HT     0.417000        1.0080           0
   22076 WT1  8205 TIP3 OH2  OT    -0.834000       15.9994           0
   22077 WT1  8205 TIP3 H1   HT     0.417000        1.0080           0
   22078 WT1  8205 TIP3 H2   HT     0.417000        1.0080           0
   22079 WT1  8206 TIP3 OH2  OT    -0.834000       15.9994           0
   22080 WT1  8206 TIP3 H1   HT     0.417000        1.0080           0
   22081 WT1  8206 TIP3 H2   HT     0.417000        1.0080           0
   22082 WT1  8208 TIP3 OH2  OT    -0.834000       15.9994           0
   22083 WT1  8208 TIP3 H1   HT     0.417000        1.0080           0
   22084 WT1  8208 TIP3 H2   HT     0.417000        1.0080           0
   22085 WT1  8209 TIP3 OH2  OT    -0.834000       15.9994           0
   22086 WT1  8209 TIP3 H1   HT     0.417000        1.0080           0
   22087 WT1  8209 TIP3 H2   HT     0.417000        1.0080           0
   22088 WT1  8210 TIP3 OH2  OT    -0.834000       15.9994           0
   22089 WT1  8210 TIP3 H1   HT     0.417000        1.0080           0
   22090 WT1  8210 TIP3 H2   HT     0.417000        1.0080           0
   22091 WT1  8211 TIP3 OH2  OT    -0.834000       15.9994           0
   22092 WT1  8211 TIP3 H1   HT     0.417000        1.0080           0
   22093 WT1  8211 TIP3 H2   HT     0.417000        1.0080           0
   22094 WT1  8212 TIP3 OH2  OT    -0.834000       15.9994           0
   22095 WT1  8212 TIP3 H1   HT     0.417000        1.0080           0
   22096 WT1  8212 TIP3 H2   HT     0.417000        1.0080           0
   22097 WT1  8213 TIP3 OH2  OT    -0.834000       15.9994           0
   22098 WT1  8213 TIP3 H1   HT     0.417000        1.0080           0
   22099 WT1  8213 TIP3 H2   HT     0.417000        1.0080           0
   22100 WT1  8215 TIP3 OH2  OT    -0.834000       15.9994           0
   22101 WT1  8215 TIP3 H1   HT     0.417000        1.0080           0
   22102 WT1  8215 TIP3 H2   HT     0.417000        1.0080           0
   22103 WT1  8216 TIP3 OH2  OT    -0.834000       15.9994           0
   22104 WT1  8216 TIP3 H1   HT     0.417000        1.0080           0
   22105 WT1  8216 TIP3 H2   HT     0.417000        1.0080           0
   22106 WT1  8218 TIP3 OH2  OT    -0.834000       15.9994           0
   22107 WT1  8218 TIP3 H1   HT     0.417000        1.0080           0
   22108 WT1  8218 TIP3 H2   HT     0.417000        1.0080           0
   22109 WT1  8219 TIP3 OH2  OT    -0.834000       15.9994           0
   22110 WT1  8219 TIP3 H1   HT     0.417000        1.0080           0
   22111 WT1  8219 TIP3 H2   HT     0.417000        1.0080           0
   22112 WT1  8220 TIP3 OH2  OT    -0.834000       15.9994           0
   22113 WT1  8220 TIP3 H1   HT     0.417000        1.0080           0
   22114 WT1  8220 TIP3 H2   HT     0.417000        1.0080           0
   22115 WT1  8221 TIP3 OH2  OT    -0.834000       15.9994           0
   22116 WT1  8221 TIP3 H1   HT     0.417000        1.0080           0
   22117 WT1  8221 TIP3 H2   HT     0.417000        1.0080           0
   22118 WT1  8222 TIP3 OH2  OT    -0.834000       15.9994           0
   22119 WT1  8222 TIP3 H1   HT     0.417000        1.0080           0
   22120 WT1  8222 TIP3 H2   HT     0.417000        1.0080           0
   22121 WT1  8223 TIP3 OH2  OT    -0.834000       15.9994           0
   22122 WT1  8223 TIP3 H1   HT     0.417000        1.0080           0
   22123 WT1  8223 TIP3 H2   HT     0.417000        1.0080           0
   22124 WT1  8224 TIP3 OH2  OT    -0.834000       15.9994           0
   22125 WT1  8224 TIP3 H1   HT     0.417000        1.0080           0
   22126 WT1  8224 TIP3 H2   HT     0.417000        1.0080           0
   22127 WT1  8225 TIP3 OH2  OT    -0.834000       15.9994           0
   22128 WT1  8225 TIP3 H1   HT     0.417000        1.0080           0
   22129 WT1  8225 TIP3 H2   HT     0.417000        1.0080           0
   22130 WT1  8226 TIP3 OH2  OT    -0.834000       15.9994           0
   22131 WT1  8226 TIP3 H1   HT     0.417000        1.0080           0
   22132 WT1  8226 TIP3 H2   HT     0.417000        1.0080           0
   22133 WT1  8227 TIP3 OH2  OT    -0.834000       15.9994           0
   22134 WT1  8227 TIP3 H1   HT     0.417000        1.0080           0
   22135 WT1  8227 TIP3 H2   HT     0.417000        1.0080           0
   22136 WT1  8228 TIP3 OH2  OT    -0.834000       15.9994           0
   22137 WT1  8228 TIP3 H1   HT     0.417000        1.0080           0
   22138 WT1  8228 TIP3 H2   HT     0.417000        1.0080           0
   22139 WT1  8229 TIP3 OH2  OT    -0.834000       15.9994           0
   22140 WT1  8229 TIP3 H1   HT     0.417000        1.0080           0
   22141 WT1  8229 TIP3 H2   HT     0.417000        1.0080           0
   22142 WT1  8230 TIP3 OH2  OT    -0.834000       15.9994           0
   22143 WT1  8230 TIP3 H1   HT     0.417000        1.0080           0
   22144 WT1  8230 TIP3 H2   HT     0.417000        1.0080           0
   22145 WT1  8232 TIP3 OH2  OT    -0.834000       15.9994           0
   22146 WT1  8232 TIP3 H1   HT     0.417000        1.0080           0
   22147 WT1  8232 TIP3 H2   HT     0.417000        1.0080           0
   22148 WT1  8233 TIP3 OH2  OT    -0.834000       15.9994           0
   22149 WT1  8233 TIP3 H1   HT     0.417000        1.0080           0
   22150 WT1  8233 TIP3 H2   HT     0.417000        1.0080           0
   22151 WT1  8234 TIP3 OH2  OT    -0.834000       15.9994           0
   22152 WT1  8234 TIP3 H1   HT     0.417000        1.0080           0
   22153 WT1  8234 TIP3 H2   HT     0.417000        1.0080           0
   22154 WT1  8235 TIP3 OH2  OT    -0.834000       15.9994           0
   22155 WT1  8235 TIP3 H1   HT     0.417000        1.0080           0
   22156 WT1  8235 TIP3 H2   HT     0.417000        1.0080           0
   22157 WT1  8236 TIP3 OH2  OT    -0.834000       15.9994           0
   22158 WT1  8236 TIP3 H1   HT     0.417000        1.0080           0
   22159 WT1  8236 TIP3 H2   HT     0.417000        1.0080           0
   22160 WT1  8237 TIP3 OH2  OT    -0.834000       15.9994           0
   22161 WT1  8237 TIP3 H1   HT     0.417000        1.0080           0
   22162 WT1  8237 TIP3 H2   HT     0.417000        1.0080           0
   22163 WT1  8238 TIP3 OH2  OT    -0.834000       15.9994           0
   22164 WT1  8238 TIP3 H1   HT     0.417000        1.0080           0
   22165 WT1  8238 TIP3 H2   HT     0.417000        1.0080           0
   22166 WT1  8239 TIP3 OH2  OT    -0.834000       15.9994           0
   22167 WT1  8239 TIP3 H1   HT     0.417000        1.0080           0
   22168 WT1  8239 TIP3 H2   HT     0.417000        1.0080           0
   22169 WT1  8240 TIP3 OH2  OT    -0.834000       15.9994           0
   22170 WT1  8240 TIP3 H1   HT     0.417000        1.0080           0
   22171 WT1  8240 TIP3 H2   HT     0.417000        1.0080           0
   22172 WT1  8241 TIP3 OH2  OT    -0.834000       15.9994           0
   22173 WT1  8241 TIP3 H1   HT     0.417000        1.0080           0
   22174 WT1  8241 TIP3 H2   HT     0.417000        1.0080           0
   22175 WT1  8242 TIP3 OH2  OT    -0.834000       15.9994           0
   22176 WT1  8242 TIP3 H1   HT     0.417000        1.0080           0
   22177 WT1  8242 TIP3 H2   HT     0.417000        1.0080           0
   22178 WT1  8243 TIP3 OH2  OT    -0.834000       15.9994           0
   22179 WT1  8243 TIP3 H1   HT     0.417000        1.0080           0
   22180 WT1  8243 TIP3 H2   HT     0.417000        1.0080           0
   22181 WT1  8245 TIP3 OH2  OT    -0.834000       15.9994           0
   22182 WT1  8245 TIP3 H1   HT     0.417000        1.0080           0
   22183 WT1  8245 TIP3 H2   HT     0.417000        1.0080           0
   22184 WT1  8246 TIP3 OH2  OT    -0.834000       15.9994           0
   22185 WT1  8246 TIP3 H1   HT     0.417000        1.0080           0
   22186 WT1  8246 TIP3 H2   HT     0.417000        1.0080           0
   22187 WT1  8247 TIP3 OH2  OT    -0.834000       15.9994           0
   22188 WT1  8247 TIP3 H1   HT     0.417000        1.0080           0
   22189 WT1  8247 TIP3 H2   HT     0.417000        1.0080           0
   22190 WT1  8248 TIP3 OH2  OT    -0.834000       15.9994           0
   22191 WT1  8248 TIP3 H1   HT     0.417000        1.0080           0
   22192 WT1  8248 TIP3 H2   HT     0.417000        1.0080           0
   22193 WT1  8249 TIP3 OH2  OT    -0.834000       15.9994           0
   22194 WT1  8249 TIP3 H1   HT     0.417000        1.0080           0
   22195 WT1  8249 TIP3 H2   HT     0.417000        1.0080           0
   22196 WT1  8250 TIP3 OH2  OT    -0.834000       15.9994           0
   22197 WT1  8250 TIP3 H1   HT     0.417000        1.0080           0
   22198 WT1  8250 TIP3 H2   HT     0.417000        1.0080           0
   22199 WT1  8251 TIP3 OH2  OT    -0.834000       15.9994           0
   22200 WT1  8251 TIP3 H1   HT     0.417000        1.0080           0
   22201 WT1  8251 TIP3 H2   HT     0.417000        1.0080           0
   22202 WT1  8252 TIP3 OH2  OT    -0.834000       15.9994           0
   22203 WT1  8252 TIP3 H1   HT     0.417000        1.0080           0
   22204 WT1  8252 TIP3 H2   HT     0.417000        1.0080           0
   22205 WT1  8253 TIP3 OH2  OT    -0.834000       15.9994           0
   22206 WT1  8253 TIP3 H1   HT     0.417000        1.0080           0
   22207 WT1  8253 TIP3 H2   HT     0.417000        1.0080           0
   22208 WT1  8254 TIP3 OH2  OT    -0.834000       15.9994           0
   22209 WT1  8254 TIP3 H1   HT     0.417000        1.0080           0
   22210 WT1  8254 TIP3 H2   HT     0.417000        1.0080           0
   22211 WT1  8255 TIP3 OH2  OT    -0.834000       15.9994           0
   22212 WT1  8255 TIP3 H1   HT     0.417000        1.0080           0
   22213 WT1  8255 TIP3 H2   HT     0.417000        1.0080           0
   22214 WT1  8256 TIP3 OH2  OT    -0.834000       15.9994           0
   22215 WT1  8256 TIP3 H1   HT     0.417000        1.0080           0
   22216 WT1  8256 TIP3 H2   HT     0.417000        1.0080           0
   22217 WT1  8257 TIP3 OH2  OT    -0.834000       15.9994           0
   22218 WT1  8257 TIP3 H1   HT     0.417000        1.0080           0
   22219 WT1  8257 TIP3 H2   HT     0.417000        1.0080           0
   22220 WT1  8258 TIP3 OH2  OT    -0.834000       15.9994           0
   22221 WT1  8258 TIP3 H1   HT     0.417000        1.0080           0
   22222 WT1  8258 TIP3 H2   HT     0.417000        1.0080           0
   22223 WT1  8259 TIP3 OH2  OT    -0.834000       15.9994           0
   22224 WT1  8259 TIP3 H1   HT     0.417000        1.0080           0
   22225 WT1  8259 TIP3 H2   HT     0.417000        1.0080           0
   22226 WT1  8260 TIP3 OH2  OT    -0.834000       15.9994           0
   22227 WT1  8260 TIP3 H1   HT     0.417000        1.0080           0
   22228 WT1  8260 TIP3 H2   HT     0.417000        1.0080           0
   22229 WT1  8261 TIP3 OH2  OT    -0.834000       15.9994           0
   22230 WT1  8261 TIP3 H1   HT     0.417000        1.0080           0
   22231 WT1  8261 TIP3 H2   HT     0.417000        1.0080           0
   22232 WT1  8262 TIP3 OH2  OT    -0.834000       15.9994           0
   22233 WT1  8262 TIP3 H1   HT     0.417000        1.0080           0
   22234 WT1  8262 TIP3 H2   HT     0.417000        1.0080           0
   22235 WT1  8263 TIP3 OH2  OT    -0.834000       15.9994           0
   22236 WT1  8263 TIP3 H1   HT     0.417000        1.0080           0
   22237 WT1  8263 TIP3 H2   HT     0.417000        1.0080           0
   22238 WT1  8264 TIP3 OH2  OT    -0.834000       15.9994           0
   22239 WT1  8264 TIP3 H1   HT     0.417000        1.0080           0
   22240 WT1  8264 TIP3 H2   HT     0.417000        1.0080           0
   22241 WT1  8265 TIP3 OH2  OT    -0.834000       15.9994           0
   22242 WT1  8265 TIP3 H1   HT     0.417000        1.0080           0
   22243 WT1  8265 TIP3 H2   HT     0.417000        1.0080           0
   22244 WT1  8266 TIP3 OH2  OT    -0.834000       15.9994           0
   22245 WT1  8266 TIP3 H1   HT     0.417000        1.0080           0
   22246 WT1  8266 TIP3 H2   HT     0.417000        1.0080           0
   22247 WT1  8267 TIP3 OH2  OT    -0.834000       15.9994           0
   22248 WT1  8267 TIP3 H1   HT     0.417000        1.0080           0
   22249 WT1  8267 TIP3 H2   HT     0.417000        1.0080           0
   22250 WT1  8268 TIP3 OH2  OT    -0.834000       15.9994           0
   22251 WT1  8268 TIP3 H1   HT     0.417000        1.0080           0
   22252 WT1  8268 TIP3 H2   HT     0.417000        1.0080           0
   22253 WT1  8269 TIP3 OH2  OT    -0.834000       15.9994           0
   22254 WT1  8269 TIP3 H1   HT     0.417000        1.0080           0
   22255 WT1  8269 TIP3 H2   HT     0.417000        1.0080           0
   22256 WT1  8271 TIP3 OH2  OT    -0.834000       15.9994           0
   22257 WT1  8271 TIP3 H1   HT     0.417000        1.0080           0
   22258 WT1  8271 TIP3 H2   HT     0.417000        1.0080           0
   22259 WT1  8272 TIP3 OH2  OT    -0.834000       15.9994           0
   22260 WT1  8272 TIP3 H1   HT     0.417000        1.0080           0
   22261 WT1  8272 TIP3 H2   HT     0.417000        1.0080           0
   22262 WT1  8273 TIP3 OH2  OT    -0.834000       15.9994           0
   22263 WT1  8273 TIP3 H1   HT     0.417000        1.0080           0
   22264 WT1  8273 TIP3 H2   HT     0.417000        1.0080           0
   22265 WT1  8274 TIP3 OH2  OT    -0.834000       15.9994           0
   22266 WT1  8274 TIP3 H1   HT     0.417000        1.0080           0
   22267 WT1  8274 TIP3 H2   HT     0.417000        1.0080           0
   22268 WT1  8275 TIP3 OH2  OT    -0.834000       15.9994           0
   22269 WT1  8275 TIP3 H1   HT     0.417000        1.0080           0
   22270 WT1  8275 TIP3 H2   HT     0.417000        1.0080           0
   22271 WT1  8277 TIP3 OH2  OT    -0.834000       15.9994           0
   22272 WT1  8277 TIP3 H1   HT     0.417000        1.0080           0
   22273 WT1  8277 TIP3 H2   HT     0.417000        1.0080           0
   22274 WT1  8278 TIP3 OH2  OT    -0.834000       15.9994           0
   22275 WT1  8278 TIP3 H1   HT     0.417000        1.0080           0
   22276 WT1  8278 TIP3 H2   HT     0.417000        1.0080           0
   22277 WT1  8279 TIP3 OH2  OT    -0.834000       15.9994           0
   22278 WT1  8279 TIP3 H1   HT     0.417000        1.0080           0
   22279 WT1  8279 TIP3 H2   HT     0.417000        1.0080           0
   22280 WT1  8280 TIP3 OH2  OT    -0.834000       15.9994           0
   22281 WT1  8280 TIP3 H1   HT     0.417000        1.0080           0
   22282 WT1  8280 TIP3 H2   HT     0.417000        1.0080           0
   22283 WT1  8281 TIP3 OH2  OT    -0.834000       15.9994           0
   22284 WT1  8281 TIP3 H1   HT     0.417000        1.0080           0
   22285 WT1  8281 TIP3 H2   HT     0.417000        1.0080           0
   22286 WT1  8282 TIP3 OH2  OT    -0.834000       15.9994           0
   22287 WT1  8282 TIP3 H1   HT     0.417000        1.0080           0
   22288 WT1  8282 TIP3 H2   HT     0.417000        1.0080           0
   22289 WT1  8283 TIP3 OH2  OT    -0.834000       15.9994           0
   22290 WT1  8283 TIP3 H1   HT     0.417000        1.0080           0
   22291 WT1  8283 TIP3 H2   HT     0.417000        1.0080           0
   22292 WT1  8284 TIP3 OH2  OT    -0.834000       15.9994           0
   22293 WT1  8284 TIP3 H1   HT     0.417000        1.0080           0
   22294 WT1  8284 TIP3 H2   HT     0.417000        1.0080           0
   22295 WT1  8285 TIP3 OH2  OT    -0.834000       15.9994           0
   22296 WT1  8285 TIP3 H1   HT     0.417000        1.0080           0
   22297 WT1  8285 TIP3 H2   HT     0.417000        1.0080           0
   22298 WT1  8286 TIP3 OH2  OT    -0.834000       15.9994           0
   22299 WT1  8286 TIP3 H1   HT     0.417000        1.0080           0
   22300 WT1  8286 TIP3 H2   HT     0.417000        1.0080           0
   22301 WT1  8287 TIP3 OH2  OT    -0.834000       15.9994           0
   22302 WT1  8287 TIP3 H1   HT     0.417000        1.0080           0
   22303 WT1  8287 TIP3 H2   HT     0.417000        1.0080           0
   22304 WT1  8288 TIP3 OH2  OT    -0.834000       15.9994           0
   22305 WT1  8288 TIP3 H1   HT     0.417000        1.0080           0
   22306 WT1  8288 TIP3 H2   HT     0.417000        1.0080           0
   22307 WT1  8289 TIP3 OH2  OT    -0.834000       15.9994           0
   22308 WT1  8289 TIP3 H1   HT     0.417000        1.0080           0
   22309 WT1  8289 TIP3 H2   HT     0.417000        1.0080           0
   22310 WT1  8290 TIP3 OH2  OT    -0.834000       15.9994           0
   22311 WT1  8290 TIP3 H1   HT     0.417000        1.0080           0
   22312 WT1  8290 TIP3 H2   HT     0.417000        1.0080           0
   22313 WT1  8291 TIP3 OH2  OT    -0.834000       15.9994           0
   22314 WT1  8291 TIP3 H1   HT     0.417000        1.0080           0
   22315 WT1  8291 TIP3 H2   HT     0.417000        1.0080           0
   22316 WT1  8292 TIP3 OH2  OT    -0.834000       15.9994           0
   22317 WT1  8292 TIP3 H1   HT     0.417000        1.0080           0
   22318 WT1  8292 TIP3 H2   HT     0.417000        1.0080           0
   22319 WT1  8293 TIP3 OH2  OT    -0.834000       15.9994           0
   22320 WT1  8293 TIP3 H1   HT     0.417000        1.0080           0
   22321 WT1  8293 TIP3 H2   HT     0.417000        1.0080           0
   22322 WT1  8294 TIP3 OH2  OT    -0.834000       15.9994           0
   22323 WT1  8294 TIP3 H1   HT     0.417000        1.0080           0
   22324 WT1  8294 TIP3 H2   HT     0.417000        1.0080           0
   22325 WT1  8295 TIP3 OH2  OT    -0.834000       15.9994           0
   22326 WT1  8295 TIP3 H1   HT     0.417000        1.0080           0
   22327 WT1  8295 TIP3 H2   HT     0.417000        1.0080           0
   22328 WT1  8296 TIP3 OH2  OT    -0.834000       15.9994           0
   22329 WT1  8296 TIP3 H1   HT     0.417000        1.0080           0
   22330 WT1  8296 TIP3 H2   HT     0.417000        1.0080           0
   22331 WT1  8298 TIP3 OH2  OT    -0.834000       15.9994           0
   22332 WT1  8298 TIP3 H1   HT     0.417000        1.0080           0
   22333 WT1  8298 TIP3 H2   HT     0.417000        1.0080           0
   22334 WT1  8299 TIP3 OH2  OT    -0.834000       15.9994           0
   22335 WT1  8299 TIP3 H1   HT     0.417000        1.0080           0
   22336 WT1  8299 TIP3 H2   HT     0.417000        1.0080           0
   22337 WT1  8300 TIP3 OH2  OT    -0.834000       15.9994           0
   22338 WT1  8300 TIP3 H1   HT     0.417000        1.0080           0
   22339 WT1  8300 TIP3 H2   HT     0.417000        1.0080           0
   22340 WT1  8301 TIP3 OH2  OT    -0.834000       15.9994           0
   22341 WT1  8301 TIP3 H1   HT     0.417000        1.0080           0
   22342 WT1  8301 TIP3 H2   HT     0.417000        1.0080           0
   22343 WT1  8302 TIP3 OH2  OT    -0.834000       15.9994           0
   22344 WT1  8302 TIP3 H1   HT     0.417000        1.0080           0
   22345 WT1  8302 TIP3 H2   HT     0.417000        1.0080           0
   22346 WT1  8303 TIP3 OH2  OT    -0.834000       15.9994           0
   22347 WT1  8303 TIP3 H1   HT     0.417000        1.0080           0
   22348 WT1  8303 TIP3 H2   HT     0.417000        1.0080           0
   22349 WT1  8304 TIP3 OH2  OT    -0.834000       15.9994           0
   22350 WT1  8304 TIP3 H1   HT     0.417000        1.0080           0
   22351 WT1  8304 TIP3 H2   HT     0.417000        1.0080           0
   22352 WT1  8305 TIP3 OH2  OT    -0.834000       15.9994           0
   22353 WT1  8305 TIP3 H1   HT     0.417000        1.0080           0
   22354 WT1  8305 TIP3 H2   HT     0.417000        1.0080           0
   22355 WT1  8306 TIP3 OH2  OT    -0.834000       15.9994           0
   22356 WT1  8306 TIP3 H1   HT     0.417000        1.0080           0
   22357 WT1  8306 TIP3 H2   HT     0.417000        1.0080           0
   22358 WT1  8307 TIP3 OH2  OT    -0.834000       15.9994           0
   22359 WT1  8307 TIP3 H1   HT     0.417000        1.0080           0
   22360 WT1  8307 TIP3 H2   HT     0.417000        1.0080           0
   22361 WT1  8308 TIP3 OH2  OT    -0.834000       15.9994           0
   22362 WT1  8308 TIP3 H1   HT     0.417000        1.0080           0
   22363 WT1  8308 TIP3 H2   HT     0.417000        1.0080           0
   22364 WT1  8309 TIP3 OH2  OT    -0.834000       15.9994           0
   22365 WT1  8309 TIP3 H1   HT     0.417000        1.0080           0
   22366 WT1  8309 TIP3 H2   HT     0.417000        1.0080           0
   22367 WT1  8310 TIP3 OH2  OT    -0.834000       15.9994           0
   22368 WT1  8310 TIP3 H1   HT     0.417000        1.0080           0
   22369 WT1  8310 TIP3 H2   HT     0.417000        1.0080           0
   22370 WT1  8311 TIP3 OH2  OT    -0.834000       15.9994           0
   22371 WT1  8311 TIP3 H1   HT     0.417000        1.0080           0
   22372 WT1  8311 TIP3 H2   HT     0.417000        1.0080           0
   22373 WT1  8312 TIP3 OH2  OT    -0.834000       15.9994           0
   22374 WT1  8312 TIP3 H1   HT     0.417000        1.0080           0
   22375 WT1  8312 TIP3 H2   HT     0.417000        1.0080           0
   22376 WT1  8313 TIP3 OH2  OT    -0.834000       15.9994           0
   22377 WT1  8313 TIP3 H1   HT     0.417000        1.0080           0
   22378 WT1  8313 TIP3 H2   HT     0.417000        1.0080           0
   22379 WT1  8314 TIP3 OH2  OT    -0.834000       15.9994           0
   22380 WT1  8314 TIP3 H1   HT     0.417000        1.0080           0
   22381 WT1  8314 TIP3 H2   HT     0.417000        1.0080           0
   22382 WT1  8315 TIP3 OH2  OT    -0.834000       15.9994           0
   22383 WT1  8315 TIP3 H1   HT     0.417000        1.0080           0
   22384 WT1  8315 TIP3 H2   HT     0.417000        1.0080           0
   22385 WT1  8316 TIP3 OH2  OT    -0.834000       15.9994           0
   22386 WT1  8316 TIP3 H1   HT     0.417000        1.0080           0
   22387 WT1  8316 TIP3 H2   HT     0.417000        1.0080           0
   22388 WT1  8317 TIP3 OH2  OT    -0.834000       15.9994           0
   22389 WT1  8317 TIP3 H1   HT     0.417000        1.0080           0
   22390 WT1  8317 TIP3 H2   HT     0.417000        1.0080           0
   22391 WT1  8318 TIP3 OH2  OT    -0.834000       15.9994           0
   22392 WT1  8318 TIP3 H1   HT     0.417000        1.0080           0
   22393 WT1  8318 TIP3 H2   HT     0.417000        1.0080           0
   22394 WT1  8319 TIP3 OH2  OT    -0.834000       15.9994           0
   22395 WT1  8319 TIP3 H1   HT     0.417000        1.0080           0
   22396 WT1  8319 TIP3 H2   HT     0.417000        1.0080           0
   22397 WT1  8320 TIP3 OH2  OT    -0.834000       15.9994           0
   22398 WT1  8320 TIP3 H1   HT     0.417000        1.0080           0
   22399 WT1  8320 TIP3 H2   HT     0.417000        1.0080           0
   22400 WT1  8321 TIP3 OH2  OT    -0.834000       15.9994           0
   22401 WT1  8321 TIP3 H1   HT     0.417000        1.0080           0
   22402 WT1  8321 TIP3 H2   HT     0.417000        1.0080           0
   22403 WT1  8322 TIP3 OH2  OT    -0.834000       15.9994           0
   22404 WT1  8322 TIP3 H1   HT     0.417000        1.0080           0
   22405 WT1  8322 TIP3 H2   HT     0.417000        1.0080           0
   22406 WT1  8323 TIP3 OH2  OT    -0.834000       15.9994           0
   22407 WT1  8323 TIP3 H1   HT     0.417000        1.0080           0
   22408 WT1  8323 TIP3 H2   HT     0.417000        1.0080           0
   22409 WT1  8324 TIP3 OH2  OT    -0.834000       15.9994           0
   22410 WT1  8324 TIP3 H1   HT     0.417000        1.0080           0
   22411 WT1  8324 TIP3 H2   HT     0.417000        1.0080           0
   22412 WT1  8325 TIP3 OH2  OT    -0.834000       15.9994           0
   22413 WT1  8325 TIP3 H1   HT     0.417000        1.0080           0
   22414 WT1  8325 TIP3 H2   HT     0.417000        1.0080           0
   22415 WT1  8326 TIP3 OH2  OT    -0.834000       15.9994           0
   22416 WT1  8326 TIP3 H1   HT     0.417000        1.0080           0
   22417 WT1  8326 TIP3 H2   HT     0.417000        1.0080           0
   22418 WT1  8327 TIP3 OH2  OT    -0.834000       15.9994           0
   22419 WT1  8327 TIP3 H1   HT     0.417000        1.0080           0
   22420 WT1  8327 TIP3 H2   HT     0.417000        1.0080           0
   22421 WT1  8328 TIP3 OH2  OT    -0.834000       15.9994           0
   22422 WT1  8328 TIP3 H1   HT     0.417000        1.0080           0
   22423 WT1  8328 TIP3 H2   HT     0.417000        1.0080           0
   22424 WT1  8329 TIP3 OH2  OT    -0.834000       15.9994           0
   22425 WT1  8329 TIP3 H1   HT     0.417000        1.0080           0
   22426 WT1  8329 TIP3 H2   HT     0.417000        1.0080           0
   22427 WT1  8330 TIP3 OH2  OT    -0.834000       15.9994           0
   22428 WT1  8330 TIP3 H1   HT     0.417000        1.0080           0
   22429 WT1  8330 TIP3 H2   HT     0.417000        1.0080           0
   22430 WT1  8331 TIP3 OH2  OT    -0.834000       15.9994           0
   22431 WT1  8331 TIP3 H1   HT     0.417000        1.0080           0
   22432 WT1  8331 TIP3 H2   HT     0.417000        1.0080           0
   22433 WT1  8333 TIP3 OH2  OT    -0.834000       15.9994           0
   22434 WT1  8333 TIP3 H1   HT     0.417000        1.0080           0
   22435 WT1  8333 TIP3 H2   HT     0.417000        1.0080           0
   22436 WT1  8334 TIP3 OH2  OT    -0.834000       15.9994           0
   22437 WT1  8334 TIP3 H1   HT     0.417000        1.0080           0
   22438 WT1  8334 TIP3 H2   HT     0.417000        1.0080           0
   22439 WT1  8336 TIP3 OH2  OT    -0.834000       15.9994           0
   22440 WT1  8336 TIP3 H1   HT     0.417000        1.0080           0
   22441 WT1  8336 TIP3 H2   HT     0.417000        1.0080           0
   22442 WT1  8337 TIP3 OH2  OT    -0.834000       15.9994           0
   22443 WT1  8337 TIP3 H1   HT     0.417000        1.0080           0
   22444 WT1  8337 TIP3 H2   HT     0.417000        1.0080           0
   22445 WT1  8338 TIP3 OH2  OT    -0.834000       15.9994           0
   22446 WT1  8338 TIP3 H1   HT     0.417000        1.0080           0
   22447 WT1  8338 TIP3 H2   HT     0.417000        1.0080           0
   22448 WT1  8339 TIP3 OH2  OT    -0.834000       15.9994           0
   22449 WT1  8339 TIP3 H1   HT     0.417000        1.0080           0
   22450 WT1  8339 TIP3 H2   HT     0.417000        1.0080           0
   22451 WT1  8341 TIP3 OH2  OT    -0.834000       15.9994           0
   22452 WT1  8341 TIP3 H1   HT     0.417000        1.0080           0
   22453 WT1  8341 TIP3 H2   HT     0.417000        1.0080           0
   22454 WT1  8342 TIP3 OH2  OT    -0.834000       15.9994           0
   22455 WT1  8342 TIP3 H1   HT     0.417000        1.0080           0
   22456 WT1  8342 TIP3 H2   HT     0.417000        1.0080           0
   22457 WT1  8344 TIP3 OH2  OT    -0.834000       15.9994           0
   22458 WT1  8344 TIP3 H1   HT     0.417000        1.0080           0
   22459 WT1  8344 TIP3 H2   HT     0.417000        1.0080           0
   22460 WT1  8345 TIP3 OH2  OT    -0.834000       15.9994           0
   22461 WT1  8345 TIP3 H1   HT     0.417000        1.0080           0
   22462 WT1  8345 TIP3 H2   HT     0.417000        1.0080           0
   22463 WT1  8346 TIP3 OH2  OT    -0.834000       15.9994           0
   22464 WT1  8346 TIP3 H1   HT     0.417000        1.0080           0
   22465 WT1  8346 TIP3 H2   HT     0.417000        1.0080           0
   22466 WT1  8347 TIP3 OH2  OT    -0.834000       15.9994           0
   22467 WT1  8347 TIP3 H1   HT     0.417000        1.0080           0
   22468 WT1  8347 TIP3 H2   HT     0.417000        1.0080           0
   22469 WT1  8349 TIP3 OH2  OT    -0.834000       15.9994           0
   22470 WT1  8349 TIP3 H1   HT     0.417000        1.0080           0
   22471 WT1  8349 TIP3 H2   HT     0.417000        1.0080           0
   22472 WT1  8350 TIP3 OH2  OT    -0.834000       15.9994           0
   22473 WT1  8350 TIP3 H1   HT     0.417000        1.0080           0
   22474 WT1  8350 TIP3 H2   HT     0.417000        1.0080           0
   22475 WT1  8351 TIP3 OH2  OT    -0.834000       15.9994           0
   22476 WT1  8351 TIP3 H1   HT     0.417000        1.0080           0
   22477 WT1  8351 TIP3 H2   HT     0.417000        1.0080           0
   22478 WT1  8352 TIP3 OH2  OT    -0.834000       15.9994           0
   22479 WT1  8352 TIP3 H1   HT     0.417000        1.0080           0
   22480 WT1  8352 TIP3 H2   HT     0.417000        1.0080           0
   22481 WT1  8353 TIP3 OH2  OT    -0.834000       15.9994           0
   22482 WT1  8353 TIP3 H1   HT     0.417000        1.0080           0
   22483 WT1  8353 TIP3 H2   HT     0.417000        1.0080           0
   22484 WT1  8354 TIP3 OH2  OT    -0.834000       15.9994           0
   22485 WT1  8354 TIP3 H1   HT     0.417000        1.0080           0
   22486 WT1  8354 TIP3 H2   HT     0.417000        1.0080           0
   22487 WT1  8355 TIP3 OH2  OT    -0.834000       15.9994           0
   22488 WT1  8355 TIP3 H1   HT     0.417000        1.0080           0
   22489 WT1  8355 TIP3 H2   HT     0.417000        1.0080           0
   22490 WT1  8357 TIP3 OH2  OT    -0.834000       15.9994           0
   22491 WT1  8357 TIP3 H1   HT     0.417000        1.0080           0
   22492 WT1  8357 TIP3 H2   HT     0.417000        1.0080           0
   22493 WT1  8358 TIP3 OH2  OT    -0.834000       15.9994           0
   22494 WT1  8358 TIP3 H1   HT     0.417000        1.0080           0
   22495 WT1  8358 TIP3 H2   HT     0.417000        1.0080           0
   22496 WT1  8359 TIP3 OH2  OT    -0.834000       15.9994           0
   22497 WT1  8359 TIP3 H1   HT     0.417000        1.0080           0
   22498 WT1  8359 TIP3 H2   HT     0.417000        1.0080           0
   22499 WT1  8360 TIP3 OH2  OT    -0.834000       15.9994           0
   22500 WT1  8360 TIP3 H1   HT     0.417000        1.0080           0
   22501 WT1  8360 TIP3 H2   HT     0.417000        1.0080           0
   22502 WT1  8361 TIP3 OH2  OT    -0.834000       15.9994           0
   22503 WT1  8361 TIP3 H1   HT     0.417000        1.0080           0
   22504 WT1  8361 TIP3 H2   HT     0.417000        1.0080           0
   22505 WT1  8362 TIP3 OH2  OT    -0.834000       15.9994           0
   22506 WT1  8362 TIP3 H1   HT     0.417000        1.0080           0
   22507 WT1  8362 TIP3 H2   HT     0.417000        1.0080           0
   22508 WT1  8363 TIP3 OH2  OT    -0.834000       15.9994           0
   22509 WT1  8363 TIP3 H1   HT     0.417000        1.0080           0
   22510 WT1  8363 TIP3 H2   HT     0.417000        1.0080           0
   22511 WT1  8364 TIP3 OH2  OT    -0.834000       15.9994           0
   22512 WT1  8364 TIP3 H1   HT     0.417000        1.0080           0
   22513 WT1  8364 TIP3 H2   HT     0.417000        1.0080           0
   22514 WT1  8365 TIP3 OH2  OT    -0.834000       15.9994           0
   22515 WT1  8365 TIP3 H1   HT     0.417000        1.0080           0
   22516 WT1  8365 TIP3 H2   HT     0.417000        1.0080           0
   22517 WT1  8366 TIP3 OH2  OT    -0.834000       15.9994           0
   22518 WT1  8366 TIP3 H1   HT     0.417000        1.0080           0
   22519 WT1  8366 TIP3 H2   HT     0.417000        1.0080           0
   22520 WT1  8367 TIP3 OH2  OT    -0.834000       15.9994           0
   22521 WT1  8367 TIP3 H1   HT     0.417000        1.0080           0
   22522 WT1  8367 TIP3 H2   HT     0.417000        1.0080           0
   22523 WT1  8368 TIP3 OH2  OT    -0.834000       15.9994           0
   22524 WT1  8368 TIP3 H1   HT     0.417000        1.0080           0
   22525 WT1  8368 TIP3 H2   HT     0.417000        1.0080           0
   22526 WT1  8369 TIP3 OH2  OT    -0.834000       15.9994           0
   22527 WT1  8369 TIP3 H1   HT     0.417000        1.0080           0
   22528 WT1  8369 TIP3 H2   HT     0.417000        1.0080           0
   22529 WT1  8370 TIP3 OH2  OT    -0.834000       15.9994           0
   22530 WT1  8370 TIP3 H1   HT     0.417000        1.0080           0
   22531 WT1  8370 TIP3 H2   HT     0.417000        1.0080           0
   22532 WT1  8371 TIP3 OH2  OT    -0.834000       15.9994           0
   22533 WT1  8371 TIP3 H1   HT     0.417000        1.0080           0
   22534 WT1  8371 TIP3 H2   HT     0.417000        1.0080           0
   22535 WT1  8372 TIP3 OH2  OT    -0.834000       15.9994           0
   22536 WT1  8372 TIP3 H1   HT     0.417000        1.0080           0
   22537 WT1  8372 TIP3 H2   HT     0.417000        1.0080           0
   22538 WT1  8373 TIP3 OH2  OT    -0.834000       15.9994           0
   22539 WT1  8373 TIP3 H1   HT     0.417000        1.0080           0
   22540 WT1  8373 TIP3 H2   HT     0.417000        1.0080           0
   22541 WT1  8374 TIP3 OH2  OT    -0.834000       15.9994           0
   22542 WT1  8374 TIP3 H1   HT     0.417000        1.0080           0
   22543 WT1  8374 TIP3 H2   HT     0.417000        1.0080           0
   22544 WT1  8375 TIP3 OH2  OT    -0.834000       15.9994           0
   22545 WT1  8375 TIP3 H1   HT     0.417000        1.0080           0
   22546 WT1  8375 TIP3 H2   HT     0.417000        1.0080           0
   22547 WT1  8376 TIP3 OH2  OT    -0.834000       15.9994           0
   22548 WT1  8376 TIP3 H1   HT     0.417000        1.0080           0
   22549 WT1  8376 TIP3 H2   HT     0.417000        1.0080           0
   22550 WT1  8377 TIP3 OH2  OT    -0.834000       15.9994           0
   22551 WT1  8377 TIP3 H1   HT     0.417000        1.0080           0
   22552 WT1  8377 TIP3 H2   HT     0.417000        1.0080           0
   22553 WT1  8378 TIP3 OH2  OT    -0.834000       15.9994           0
   22554 WT1  8378 TIP3 H1   HT     0.417000        1.0080           0
   22555 WT1  8378 TIP3 H2   HT     0.417000        1.0080           0
   22556 WT1  8379 TIP3 OH2  OT    -0.834000       15.9994           0
   22557 WT1  8379 TIP3 H1   HT     0.417000        1.0080           0
   22558 WT1  8379 TIP3 H2   HT     0.417000        1.0080           0
   22559 WT1  8380 TIP3 OH2  OT    -0.834000       15.9994           0
   22560 WT1  8380 TIP3 H1   HT     0.417000        1.0080           0
   22561 WT1  8380 TIP3 H2   HT     0.417000        1.0080           0
   22562 WT1  8381 TIP3 OH2  OT    -0.834000       15.9994           0
   22563 WT1  8381 TIP3 H1   HT     0.417000        1.0080           0
   22564 WT1  8381 TIP3 H2   HT     0.417000        1.0080           0
   22565 WT1  8382 TIP3 OH2  OT    -0.834000       15.9994           0
   22566 WT1  8382 TIP3 H1   HT     0.417000        1.0080           0
   22567 WT1  8382 TIP3 H2   HT     0.417000        1.0080           0
   22568 WT1  8384 TIP3 OH2  OT    -0.834000       15.9994           0
   22569 WT1  8384 TIP3 H1   HT     0.417000        1.0080           0
   22570 WT1  8384 TIP3 H2   HT     0.417000        1.0080           0
   22571 WT1  8385 TIP3 OH2  OT    -0.834000       15.9994           0
   22572 WT1  8385 TIP3 H1   HT     0.417000        1.0080           0
   22573 WT1  8385 TIP3 H2   HT     0.417000        1.0080           0
   22574 WT1  8386 TIP3 OH2  OT    -0.834000       15.9994           0
   22575 WT1  8386 TIP3 H1   HT     0.417000        1.0080           0
   22576 WT1  8386 TIP3 H2   HT     0.417000        1.0080           0
   22577 WT1  8387 TIP3 OH2  OT    -0.834000       15.9994           0
   22578 WT1  8387 TIP3 H1   HT     0.417000        1.0080           0
   22579 WT1  8387 TIP3 H2   HT     0.417000        1.0080           0
   22580 WT1  8388 TIP3 OH2  OT    -0.834000       15.9994           0
   22581 WT1  8388 TIP3 H1   HT     0.417000        1.0080           0
   22582 WT1  8388 TIP3 H2   HT     0.417000        1.0080           0
   22583 WT1  8389 TIP3 OH2  OT    -0.834000       15.9994           0
   22584 WT1  8389 TIP3 H1   HT     0.417000        1.0080           0
   22585 WT1  8389 TIP3 H2   HT     0.417000        1.0080           0
   22586 WT1  8390 TIP3 OH2  OT    -0.834000       15.9994           0
   22587 WT1  8390 TIP3 H1   HT     0.417000        1.0080           0
   22588 WT1  8390 TIP3 H2   HT     0.417000        1.0080           0
   22589 WT1  8391 TIP3 OH2  OT    -0.834000       15.9994           0
   22590 WT1  8391 TIP3 H1   HT     0.417000        1.0080           0
   22591 WT1  8391 TIP3 H2   HT     0.417000        1.0080           0
   22592 WT1  8392 TIP3 OH2  OT    -0.834000       15.9994           0
   22593 WT1  8392 TIP3 H1   HT     0.417000        1.0080           0
   22594 WT1  8392 TIP3 H2   HT     0.417000        1.0080           0
   22595 WT1  8393 TIP3 OH2  OT    -0.834000       15.9994           0
   22596 WT1  8393 TIP3 H1   HT     0.417000        1.0080           0
   22597 WT1  8393 TIP3 H2   HT     0.417000        1.0080           0
   22598 WT1  8394 TIP3 OH2  OT    -0.834000       15.9994           0
   22599 WT1  8394 TIP3 H1   HT     0.417000        1.0080           0
   22600 WT1  8394 TIP3 H2   HT     0.417000        1.0080           0
   22601 WT1  8396 TIP3 OH2  OT    -0.834000       15.9994           0
   22602 WT1  8396 TIP3 H1   HT     0.417000        1.0080           0
   22603 WT1  8396 TIP3 H2   HT     0.417000        1.0080           0
   22604 WT1  8397 TIP3 OH2  OT    -0.834000       15.9994           0
   22605 WT1  8397 TIP3 H1   HT     0.417000        1.0080           0
   22606 WT1  8397 TIP3 H2   HT     0.417000        1.0080           0
   22607 WT1  8398 TIP3 OH2  OT    -0.834000       15.9994           0
   22608 WT1  8398 TIP3 H1   HT     0.417000        1.0080           0
   22609 WT1  8398 TIP3 H2   HT     0.417000        1.0080           0
   22610 WT1  8400 TIP3 OH2  OT    -0.834000       15.9994           0
   22611 WT1  8400 TIP3 H1   HT     0.417000        1.0080           0
   22612 WT1  8400 TIP3 H2   HT     0.417000        1.0080           0
   22613 WT1  8401 TIP3 OH2  OT    -0.834000       15.9994           0
   22614 WT1  8401 TIP3 H1   HT     0.417000        1.0080           0
   22615 WT1  8401 TIP3 H2   HT     0.417000        1.0080           0
   22616 WT1  8402 TIP3 OH2  OT    -0.834000       15.9994           0
   22617 WT1  8402 TIP3 H1   HT     0.417000        1.0080           0
   22618 WT1  8402 TIP3 H2   HT     0.417000        1.0080           0
   22619 WT1  8403 TIP3 OH2  OT    -0.834000       15.9994           0
   22620 WT1  8403 TIP3 H1   HT     0.417000        1.0080           0
   22621 WT1  8403 TIP3 H2   HT     0.417000        1.0080           0
   22622 WT1  8404 TIP3 OH2  OT    -0.834000       15.9994           0
   22623 WT1  8404 TIP3 H1   HT     0.417000        1.0080           0
   22624 WT1  8404 TIP3 H2   HT     0.417000        1.0080           0
   22625 WT1  8406 TIP3 OH2  OT    -0.834000       15.9994           0
   22626 WT1  8406 TIP3 H1   HT     0.417000        1.0080           0
   22627 WT1  8406 TIP3 H2   HT     0.417000        1.0080           0
   22628 WT1  8407 TIP3 OH2  OT    -0.834000       15.9994           0
   22629 WT1  8407 TIP3 H1   HT     0.417000        1.0080           0
   22630 WT1  8407 TIP3 H2   HT     0.417000        1.0080           0
   22631 WT1  8408 TIP3 OH2  OT    -0.834000       15.9994           0
   22632 WT1  8408 TIP3 H1   HT     0.417000        1.0080           0
   22633 WT1  8408 TIP3 H2   HT     0.417000        1.0080           0
   22634 WT1  8410 TIP3 OH2  OT    -0.834000       15.9994           0
   22635 WT1  8410 TIP3 H1   HT     0.417000        1.0080           0
   22636 WT1  8410 TIP3 H2   HT     0.417000        1.0080           0
   22637 WT1  8411 TIP3 OH2  OT    -0.834000       15.9994           0
   22638 WT1  8411 TIP3 H1   HT     0.417000        1.0080           0
   22639 WT1  8411 TIP3 H2   HT     0.417000        1.0080           0
   22640 WT1  8412 TIP3 OH2  OT    -0.834000       15.9994           0
   22641 WT1  8412 TIP3 H1   HT     0.417000        1.0080           0
   22642 WT1  8412 TIP3 H2   HT     0.417000        1.0080           0
   22643 WT1  8413 TIP3 OH2  OT    -0.834000       15.9994           0
   22644 WT1  8413 TIP3 H1   HT     0.417000        1.0080           0
   22645 WT1  8413 TIP3 H2   HT     0.417000        1.0080           0
   22646 WT1  8416 TIP3 OH2  OT    -0.834000       15.9994           0
   22647 WT1  8416 TIP3 H1   HT     0.417000        1.0080           0
   22648 WT1  8416 TIP3 H2   HT     0.417000        1.0080           0
   22649 WT1  8417 TIP3 OH2  OT    -0.834000       15.9994           0
   22650 WT1  8417 TIP3 H1   HT     0.417000        1.0080           0
   22651 WT1  8417 TIP3 H2   HT     0.417000        1.0080           0
   22652 WT1  8418 TIP3 OH2  OT    -0.834000       15.9994           0
   22653 WT1  8418 TIP3 H1   HT     0.417000        1.0080           0
   22654 WT1  8418 TIP3 H2   HT     0.417000        1.0080           0
   22655 WT1  8419 TIP3 OH2  OT    -0.834000       15.9994           0
   22656 WT1  8419 TIP3 H1   HT     0.417000        1.0080           0
   22657 WT1  8419 TIP3 H2   HT     0.417000        1.0080           0
   22658 WT1  8422 TIP3 OH2  OT    -0.834000       15.9994           0
   22659 WT1  8422 TIP3 H1   HT     0.417000        1.0080           0
   22660 WT1  8422 TIP3 H2   HT     0.417000        1.0080           0
   22661 WT1  8423 TIP3 OH2  OT    -0.834000       15.9994           0
   22662 WT1  8423 TIP3 H1   HT     0.417000        1.0080           0
   22663 WT1  8423 TIP3 H2   HT     0.417000        1.0080           0
   22664 WT1  8424 TIP3 OH2  OT    -0.834000       15.9994           0
   22665 WT1  8424 TIP3 H1   HT     0.417000        1.0080           0
   22666 WT1  8424 TIP3 H2   HT     0.417000        1.0080           0
   22667 WT1  8425 TIP3 OH2  OT    -0.834000       15.9994           0
   22668 WT1  8425 TIP3 H1   HT     0.417000        1.0080           0
   22669 WT1  8425 TIP3 H2   HT     0.417000        1.0080           0
   22670 WT1  8426 TIP3 OH2  OT    -0.834000       15.9994           0
   22671 WT1  8426 TIP3 H1   HT     0.417000        1.0080           0
   22672 WT1  8426 TIP3 H2   HT     0.417000        1.0080           0
   22673 WT1  8427 TIP3 OH2  OT    -0.834000       15.9994           0
   22674 WT1  8427 TIP3 H1   HT     0.417000        1.0080           0
   22675 WT1  8427 TIP3 H2   HT     0.417000        1.0080           0
   22676 WT1  8428 TIP3 OH2  OT    -0.834000       15.9994           0
   22677 WT1  8428 TIP3 H1   HT     0.417000        1.0080           0
   22678 WT1  8428 TIP3 H2   HT     0.417000        1.0080           0
   22679 WT1  8430 TIP3 OH2  OT    -0.834000       15.9994           0
   22680 WT1  8430 TIP3 H1   HT     0.417000        1.0080           0
   22681 WT1  8430 TIP3 H2   HT     0.417000        1.0080           0
   22682 WT1  8432 TIP3 OH2  OT    -0.834000       15.9994           0
   22683 WT1  8432 TIP3 H1   HT     0.417000        1.0080           0
   22684 WT1  8432 TIP3 H2   HT     0.417000        1.0080           0
   22685 WT1  8433 TIP3 OH2  OT    -0.834000       15.9994           0
   22686 WT1  8433 TIP3 H1   HT     0.417000        1.0080           0
   22687 WT1  8433 TIP3 H2   HT     0.417000        1.0080           0
   22688 WT1  8435 TIP3 OH2  OT    -0.834000       15.9994           0
   22689 WT1  8435 TIP3 H1   HT     0.417000        1.0080           0
   22690 WT1  8435 TIP3 H2   HT     0.417000        1.0080           0
   22691 WT1  8436 TIP3 OH2  OT    -0.834000       15.9994           0
   22692 WT1  8436 TIP3 H1   HT     0.417000        1.0080           0
   22693 WT1  8436 TIP3 H2   HT     0.417000        1.0080           0
   22694 WT1  8437 TIP3 OH2  OT    -0.834000       15.9994           0
   22695 WT1  8437 TIP3 H1   HT     0.417000        1.0080           0
   22696 WT1  8437 TIP3 H2   HT     0.417000        1.0080           0
   22697 WT1  8438 TIP3 OH2  OT    -0.834000       15.9994           0
   22698 WT1  8438 TIP3 H1   HT     0.417000        1.0080           0
   22699 WT1  8438 TIP3 H2   HT     0.417000        1.0080           0
   22700 WT1  8439 TIP3 OH2  OT    -0.834000       15.9994           0
   22701 WT1  8439 TIP3 H1   HT     0.417000        1.0080           0
   22702 WT1  8439 TIP3 H2   HT     0.417000        1.0080           0
   22703 WT1  8441 TIP3 OH2  OT    -0.834000       15.9994           0
   22704 WT1  8441 TIP3 H1   HT     0.417000        1.0080           0
   22705 WT1  8441 TIP3 H2   HT     0.417000        1.0080           0
   22706 WT1  8443 TIP3 OH2  OT    -0.834000       15.9994           0
   22707 WT1  8443 TIP3 H1   HT     0.417000        1.0080           0
   22708 WT1  8443 TIP3 H2   HT     0.417000        1.0080           0
   22709 WT1  8444 TIP3 OH2  OT    -0.834000       15.9994           0
   22710 WT1  8444 TIP3 H1   HT     0.417000        1.0080           0
   22711 WT1  8444 TIP3 H2   HT     0.417000        1.0080           0
   22712 WT1  8445 TIP3 OH2  OT    -0.834000       15.9994           0
   22713 WT1  8445 TIP3 H1   HT     0.417000        1.0080           0
   22714 WT1  8445 TIP3 H2   HT     0.417000        1.0080           0
   22715 WT1  8446 TIP3 OH2  OT    -0.834000       15.9994           0
   22716 WT1  8446 TIP3 H1   HT     0.417000        1.0080           0
   22717 WT1  8446 TIP3 H2   HT     0.417000        1.0080           0
   22718 WT1  8448 TIP3 OH2  OT    -0.834000       15.9994           0
   22719 WT1  8448 TIP3 H1   HT     0.417000        1.0080           0
   22720 WT1  8448 TIP3 H2   HT     0.417000        1.0080           0
   22721 WT1  8450 TIP3 OH2  OT    -0.834000       15.9994           0
   22722 WT1  8450 TIP3 H1   HT     0.417000        1.0080           0
   22723 WT1  8450 TIP3 H2   HT     0.417000        1.0080           0
   22724 WT1  8451 TIP3 OH2  OT    -0.834000       15.9994           0
   22725 WT1  8451 TIP3 H1   HT     0.417000        1.0080           0
   22726 WT1  8451 TIP3 H2   HT     0.417000        1.0080           0
   22727 WT1  8453 TIP3 OH2  OT    -0.834000       15.9994           0
   22728 WT1  8453 TIP3 H1   HT     0.417000        1.0080           0
   22729 WT1  8453 TIP3 H2   HT     0.417000        1.0080           0
   22730 WT1  8454 TIP3 OH2  OT    -0.834000       15.9994           0
   22731 WT1  8454 TIP3 H1   HT     0.417000        1.0080           0
   22732 WT1  8454 TIP3 H2   HT     0.417000        1.0080           0
   22733 WT1  8456 TIP3 OH2  OT    -0.834000       15.9994           0
   22734 WT1  8456 TIP3 H1   HT     0.417000        1.0080           0
   22735 WT1  8456 TIP3 H2   HT     0.417000        1.0080           0
   22736 WT1  8457 TIP3 OH2  OT    -0.834000       15.9994           0
   22737 WT1  8457 TIP3 H1   HT     0.417000        1.0080           0
   22738 WT1  8457 TIP3 H2   HT     0.417000        1.0080           0
   22739 WT1  8458 TIP3 OH2  OT    -0.834000       15.9994           0
   22740 WT1  8458 TIP3 H1   HT     0.417000        1.0080           0
   22741 WT1  8458 TIP3 H2   HT     0.417000        1.0080           0
   22742 WT1  8459 TIP3 OH2  OT    -0.834000       15.9994           0
   22743 WT1  8459 TIP3 H1   HT     0.417000        1.0080           0
   22744 WT1  8459 TIP3 H2   HT     0.417000        1.0080           0
   22745 WT1  8461 TIP3 OH2  OT    -0.834000       15.9994           0
   22746 WT1  8461 TIP3 H1   HT     0.417000        1.0080           0
   22747 WT1  8461 TIP3 H2   HT     0.417000        1.0080           0
   22748 WT1  8462 TIP3 OH2  OT    -0.834000       15.9994           0
   22749 WT1  8462 TIP3 H1   HT     0.417000        1.0080           0
   22750 WT1  8462 TIP3 H2   HT     0.417000        1.0080           0
   22751 WT1  8463 TIP3 OH2  OT    -0.834000       15.9994           0
   22752 WT1  8463 TIP3 H1   HT     0.417000        1.0080           0
   22753 WT1  8463 TIP3 H2   HT     0.417000        1.0080           0
   22754 WT1  8464 TIP3 OH2  OT    -0.834000       15.9994           0
   22755 WT1  8464 TIP3 H1   HT     0.417000        1.0080           0
   22756 WT1  8464 TIP3 H2   HT     0.417000        1.0080           0
   22757 WT1  8465 TIP3 OH2  OT    -0.834000       15.9994           0
   22758 WT1  8465 TIP3 H1   HT     0.417000        1.0080           0
   22759 WT1  8465 TIP3 H2   HT     0.417000        1.0080           0
   22760 WT1  8466 TIP3 OH2  OT    -0.834000       15.9994           0
   22761 WT1  8466 TIP3 H1   HT     0.417000        1.0080           0
   22762 WT1  8466 TIP3 H2   HT     0.417000        1.0080           0
   22763 WT1  8467 TIP3 OH2  OT    -0.834000       15.9994           0
   22764 WT1  8467 TIP3 H1   HT     0.417000        1.0080           0
   22765 WT1  8467 TIP3 H2   HT     0.417000        1.0080           0
   22766 WT1  8469 TIP3 OH2  OT    -0.834000       15.9994           0
   22767 WT1  8469 TIP3 H1   HT     0.417000        1.0080           0
   22768 WT1  8469 TIP3 H2   HT     0.417000        1.0080           0
   22769 WT1  8470 TIP3 OH2  OT    -0.834000       15.9994           0
   22770 WT1  8470 TIP3 H1   HT     0.417000        1.0080           0
   22771 WT1  8470 TIP3 H2   HT     0.417000        1.0080           0
   22772 WT1  8471 TIP3 OH2  OT    -0.834000       15.9994           0
   22773 WT1  8471 TIP3 H1   HT     0.417000        1.0080           0
   22774 WT1  8471 TIP3 H2   HT     0.417000        1.0080           0
   22775 WT1  8472 TIP3 OH2  OT    -0.834000       15.9994           0
   22776 WT1  8472 TIP3 H1   HT     0.417000        1.0080           0
   22777 WT1  8472 TIP3 H2   HT     0.417000        1.0080           0
   22778 WT1  8473 TIP3 OH2  OT    -0.834000       15.9994           0
   22779 WT1  8473 TIP3 H1   HT     0.417000        1.0080           0
   22780 WT1  8473 TIP3 H2   HT     0.417000        1.0080           0
   22781 WT1  8474 TIP3 OH2  OT    -0.834000       15.9994           0
   22782 WT1  8474 TIP3 H1   HT     0.417000        1.0080           0
   22783 WT1  8474 TIP3 H2   HT     0.417000        1.0080           0
   22784 WT1  8475 TIP3 OH2  OT    -0.834000       15.9994           0
   22785 WT1  8475 TIP3 H1   HT     0.417000        1.0080           0
   22786 WT1  8475 TIP3 H2   HT     0.417000        1.0080           0
   22787 WT1  8476 TIP3 OH2  OT    -0.834000       15.9994           0
   22788 WT1  8476 TIP3 H1   HT     0.417000        1.0080           0
   22789 WT1  8476 TIP3 H2   HT     0.417000        1.0080           0
   22790 WT1  8477 TIP3 OH2  OT    -0.834000       15.9994           0
   22791 WT1  8477 TIP3 H1   HT     0.417000        1.0080           0
   22792 WT1  8477 TIP3 H2   HT     0.417000        1.0080           0
   22793 WT1  8478 TIP3 OH2  OT    -0.834000       15.9994           0
   22794 WT1  8478 TIP3 H1   HT     0.417000        1.0080           0
   22795 WT1  8478 TIP3 H2   HT     0.417000        1.0080           0
   22796 WT1  8479 TIP3 OH2  OT    -0.834000       15.9994           0
   22797 WT1  8479 TIP3 H1   HT     0.417000        1.0080           0
   22798 WT1  8479 TIP3 H2   HT     0.417000        1.0080           0
   22799 WT1  8481 TIP3 OH2  OT    -0.834000       15.9994           0
   22800 WT1  8481 TIP3 H1   HT     0.417000        1.0080           0
   22801 WT1  8481 TIP3 H2   HT     0.417000        1.0080           0
   22802 WT1  8482 TIP3 OH2  OT    -0.834000       15.9994           0
   22803 WT1  8482 TIP3 H1   HT     0.417000        1.0080           0
   22804 WT1  8482 TIP3 H2   HT     0.417000        1.0080           0
   22805 WT1  8483 TIP3 OH2  OT    -0.834000       15.9994           0
   22806 WT1  8483 TIP3 H1   HT     0.417000        1.0080           0
   22807 WT1  8483 TIP3 H2   HT     0.417000        1.0080           0
   22808 WT1  8484 TIP3 OH2  OT    -0.834000       15.9994           0
   22809 WT1  8484 TIP3 H1   HT     0.417000        1.0080           0
   22810 WT1  8484 TIP3 H2   HT     0.417000        1.0080           0
   22811 WT1  8486 TIP3 OH2  OT    -0.834000       15.9994           0
   22812 WT1  8486 TIP3 H1   HT     0.417000        1.0080           0
   22813 WT1  8486 TIP3 H2   HT     0.417000        1.0080           0
   22814 WT1  8487 TIP3 OH2  OT    -0.834000       15.9994           0
   22815 WT1  8487 TIP3 H1   HT     0.417000        1.0080           0
   22816 WT1  8487 TIP3 H2   HT     0.417000        1.0080           0
   22817 WT1  8488 TIP3 OH2  OT    -0.834000       15.9994           0
   22818 WT1  8488 TIP3 H1   HT     0.417000        1.0080           0
   22819 WT1  8488 TIP3 H2   HT     0.417000        1.0080           0
   22820 WT1  8489 TIP3 OH2  OT    -0.834000       15.9994           0
   22821 WT1  8489 TIP3 H1   HT     0.417000        1.0080           0
   22822 WT1  8489 TIP3 H2   HT     0.417000        1.0080           0
   22823 WT1  8490 TIP3 OH2  OT    -0.834000       15.9994           0
   22824 WT1  8490 TIP3 H1   HT     0.417000        1.0080           0
   22825 WT1  8490 TIP3 H2   HT     0.417000        1.0080           0
   22826 WT1  8491 TIP3 OH2  OT    -0.834000       15.9994           0
   22827 WT1  8491 TIP3 H1   HT     0.417000        1.0080           0
   22828 WT1  8491 TIP3 H2   HT     0.417000        1.0080           0
   22829 WT1  8492 TIP3 OH2  OT    -0.834000       15.9994           0
   22830 WT1  8492 TIP3 H1   HT     0.417000        1.0080           0
   22831 WT1  8492 TIP3 H2   HT     0.417000        1.0080           0
   22832 WT1  8493 TIP3 OH2  OT    -0.834000       15.9994           0
   22833 WT1  8493 TIP3 H1   HT     0.417000        1.0080           0
   22834 WT1  8493 TIP3 H2   HT     0.417000        1.0080           0
   22835 WT1  8496 TIP3 OH2  OT    -0.834000       15.9994           0
   22836 WT1  8496 TIP3 H1   HT     0.417000        1.0080           0
   22837 WT1  8496 TIP3 H2   HT     0.417000        1.0080           0
   22838 WT1  8497 TIP3 OH2  OT    -0.834000       15.9994           0
   22839 WT1  8497 TIP3 H1   HT     0.417000        1.0080           0
   22840 WT1  8497 TIP3 H2   HT     0.417000        1.0080           0
   22841 WT1  8498 TIP3 OH2  OT    -0.834000       15.9994           0
   22842 WT1  8498 TIP3 H1   HT     0.417000        1.0080           0
   22843 WT1  8498 TIP3 H2   HT     0.417000        1.0080           0
   22844 WT1  8499 TIP3 OH2  OT    -0.834000       15.9994           0
   22845 WT1  8499 TIP3 H1   HT     0.417000        1.0080           0
   22846 WT1  8499 TIP3 H2   HT     0.417000        1.0080           0
   22847 WT1  8501 TIP3 OH2  OT    -0.834000       15.9994           0
   22848 WT1  8501 TIP3 H1   HT     0.417000        1.0080           0
   22849 WT1  8501 TIP3 H2   HT     0.417000        1.0080           0
   22850 WT1  8502 TIP3 OH2  OT    -0.834000       15.9994           0
   22851 WT1  8502 TIP3 H1   HT     0.417000        1.0080           0
   22852 WT1  8502 TIP3 H2   HT     0.417000        1.0080           0
   22853 WT1  8503 TIP3 OH2  OT    -0.834000       15.9994           0
   22854 WT1  8503 TIP3 H1   HT     0.417000        1.0080           0
   22855 WT1  8503 TIP3 H2   HT     0.417000        1.0080           0
   22856 WT1  8504 TIP3 OH2  OT    -0.834000       15.9994           0
   22857 WT1  8504 TIP3 H1   HT     0.417000        1.0080           0
   22858 WT1  8504 TIP3 H2   HT     0.417000        1.0080           0
   22859 WT1  8505 TIP3 OH2  OT    -0.834000       15.9994           0
   22860 WT1  8505 TIP3 H1   HT     0.417000        1.0080           0
   22861 WT1  8505 TIP3 H2   HT     0.417000        1.0080           0
   22862 WT1  8507 TIP3 OH2  OT    -0.834000       15.9994           0
   22863 WT1  8507 TIP3 H1   HT     0.417000        1.0080           0
   22864 WT1  8507 TIP3 H2   HT     0.417000        1.0080           0
   22865 WT1  8508 TIP3 OH2  OT    -0.834000       15.9994           0
   22866 WT1  8508 TIP3 H1   HT     0.417000        1.0080           0
   22867 WT1  8508 TIP3 H2   HT     0.417000        1.0080           0
   22868 WT1  8510 TIP3 OH2  OT    -0.834000       15.9994           0
   22869 WT1  8510 TIP3 H1   HT     0.417000        1.0080           0
   22870 WT1  8510 TIP3 H2   HT     0.417000        1.0080           0
   22871 WT1  8511 TIP3 OH2  OT    -0.834000       15.9994           0
   22872 WT1  8511 TIP3 H1   HT     0.417000        1.0080           0
   22873 WT1  8511 TIP3 H2   HT     0.417000        1.0080           0
   22874 WT1  8512 TIP3 OH2  OT    -0.834000       15.9994           0
   22875 WT1  8512 TIP3 H1   HT     0.417000        1.0080           0
   22876 WT1  8512 TIP3 H2   HT     0.417000        1.0080           0
   22877 WT1  8514 TIP3 OH2  OT    -0.834000       15.9994           0
   22878 WT1  8514 TIP3 H1   HT     0.417000        1.0080           0
   22879 WT1  8514 TIP3 H2   HT     0.417000        1.0080           0
   22880 WT1  8515 TIP3 OH2  OT    -0.834000       15.9994           0
   22881 WT1  8515 TIP3 H1   HT     0.417000        1.0080           0
   22882 WT1  8515 TIP3 H2   HT     0.417000        1.0080           0
   22883 WT1  8516 TIP3 OH2  OT    -0.834000       15.9994           0
   22884 WT1  8516 TIP3 H1   HT     0.417000        1.0080           0
   22885 WT1  8516 TIP3 H2   HT     0.417000        1.0080           0
   22886 WT1  8517 TIP3 OH2  OT    -0.834000       15.9994           0
   22887 WT1  8517 TIP3 H1   HT     0.417000        1.0080           0
   22888 WT1  8517 TIP3 H2   HT     0.417000        1.0080           0
   22889 WT1  8518 TIP3 OH2  OT    -0.834000       15.9994           0
   22890 WT1  8518 TIP3 H1   HT     0.417000        1.0080           0
   22891 WT1  8518 TIP3 H2   HT     0.417000        1.0080           0
   22892 WT1  8520 TIP3 OH2  OT    -0.834000       15.9994           0
   22893 WT1  8520 TIP3 H1   HT     0.417000        1.0080           0
   22894 WT1  8520 TIP3 H2   HT     0.417000        1.0080           0
   22895 WT1  8521 TIP3 OH2  OT    -0.834000       15.9994           0
   22896 WT1  8521 TIP3 H1   HT     0.417000        1.0080           0
   22897 WT1  8521 TIP3 H2   HT     0.417000        1.0080           0
   22898 WT1  8522 TIP3 OH2  OT    -0.834000       15.9994           0
   22899 WT1  8522 TIP3 H1   HT     0.417000        1.0080           0
   22900 WT1  8522 TIP3 H2   HT     0.417000        1.0080           0
   22901 WT1  8523 TIP3 OH2  OT    -0.834000       15.9994           0
   22902 WT1  8523 TIP3 H1   HT     0.417000        1.0080           0
   22903 WT1  8523 TIP3 H2   HT     0.417000        1.0080           0
   22904 WT1  8524 TIP3 OH2  OT    -0.834000       15.9994           0
   22905 WT1  8524 TIP3 H1   HT     0.417000        1.0080           0
   22906 WT1  8524 TIP3 H2   HT     0.417000        1.0080           0
   22907 WT1  8525 TIP3 OH2  OT    -0.834000       15.9994           0
   22908 WT1  8525 TIP3 H1   HT     0.417000        1.0080           0
   22909 WT1  8525 TIP3 H2   HT     0.417000        1.0080           0
   22910 WT1  8526 TIP3 OH2  OT    -0.834000       15.9994           0
   22911 WT1  8526 TIP3 H1   HT     0.417000        1.0080           0
   22912 WT1  8526 TIP3 H2   HT     0.417000        1.0080           0
   22913 WT1  8527 TIP3 OH2  OT    -0.834000       15.9994           0
   22914 WT1  8527 TIP3 H1   HT     0.417000        1.0080           0
   22915 WT1  8527 TIP3 H2   HT     0.417000        1.0080           0
   22916 WT1  8529 TIP3 OH2  OT    -0.834000       15.9994           0
   22917 WT1  8529 TIP3 H1   HT     0.417000        1.0080           0
   22918 WT1  8529 TIP3 H2   HT     0.417000        1.0080           0
   22919 WT1  8530 TIP3 OH2  OT    -0.834000       15.9994           0
   22920 WT1  8530 TIP3 H1   HT     0.417000        1.0080           0
   22921 WT1  8530 TIP3 H2   HT     0.417000        1.0080           0
   22922 WT1  8531 TIP3 OH2  OT    -0.834000       15.9994           0
   22923 WT1  8531 TIP3 H1   HT     0.417000        1.0080           0
   22924 WT1  8531 TIP3 H2   HT     0.417000        1.0080           0
   22925 WT1  8532 TIP3 OH2  OT    -0.834000       15.9994           0
   22926 WT1  8532 TIP3 H1   HT     0.417000        1.0080           0
   22927 WT1  8532 TIP3 H2   HT     0.417000        1.0080           0
   22928 WT1  8533 TIP3 OH2  OT    -0.834000       15.9994           0
   22929 WT1  8533 TIP3 H1   HT     0.417000        1.0080           0
   22930 WT1  8533 TIP3 H2   HT     0.417000        1.0080           0
   22931 WT1  8534 TIP3 OH2  OT    -0.834000       15.9994           0
   22932 WT1  8534 TIP3 H1   HT     0.417000        1.0080           0
   22933 WT1  8534 TIP3 H2   HT     0.417000        1.0080           0
   22934 WT1  8535 TIP3 OH2  OT    -0.834000       15.9994           0
   22935 WT1  8535 TIP3 H1   HT     0.417000        1.0080           0
   22936 WT1  8535 TIP3 H2   HT     0.417000        1.0080           0
   22937 WT1  8536 TIP3 OH2  OT    -0.834000       15.9994           0
   22938 WT1  8536 TIP3 H1   HT     0.417000        1.0080           0
   22939 WT1  8536 TIP3 H2   HT     0.417000        1.0080           0
   22940 WT1  8538 TIP3 OH2  OT    -0.834000       15.9994           0
   22941 WT1  8538 TIP3 H1   HT     0.417000        1.0080           0
   22942 WT1  8538 TIP3 H2   HT     0.417000        1.0080           0
   22943 WT1  8540 TIP3 OH2  OT    -0.834000       15.9994           0
   22944 WT1  8540 TIP3 H1   HT     0.417000        1.0080           0
   22945 WT1  8540 TIP3 H2   HT     0.417000        1.0080           0
   22946 WT1  8541 TIP3 OH2  OT    -0.834000       15.9994           0
   22947 WT1  8541 TIP3 H1   HT     0.417000        1.0080           0
   22948 WT1  8541 TIP3 H2   HT     0.417000        1.0080           0
   22949 WT1  8542 TIP3 OH2  OT    -0.834000       15.9994           0
   22950 WT1  8542 TIP3 H1   HT     0.417000        1.0080           0
   22951 WT1  8542 TIP3 H2   HT     0.417000        1.0080           0
   22952 WT1  8543 TIP3 OH2  OT    -0.834000       15.9994           0
   22953 WT1  8543 TIP3 H1   HT     0.417000        1.0080           0
   22954 WT1  8543 TIP3 H2   HT     0.417000        1.0080           0
   22955 WT1  8544 TIP3 OH2  OT    -0.834000       15.9994           0
   22956 WT1  8544 TIP3 H1   HT     0.417000        1.0080           0
   22957 WT1  8544 TIP3 H2   HT     0.417000        1.0080           0
   22958 WT1  8545 TIP3 OH2  OT    -0.834000       15.9994           0
   22959 WT1  8545 TIP3 H1   HT     0.417000        1.0080           0
   22960 WT1  8545 TIP3 H2   HT     0.417000        1.0080           0
   22961 WT1  8546 TIP3 OH2  OT    -0.834000       15.9994           0
   22962 WT1  8546 TIP3 H1   HT     0.417000        1.0080           0
   22963 WT1  8546 TIP3 H2   HT     0.417000        1.0080           0
   22964 WT1  8547 TIP3 OH2  OT    -0.834000       15.9994           0
   22965 WT1  8547 TIP3 H1   HT     0.417000        1.0080           0
   22966 WT1  8547 TIP3 H2   HT     0.417000        1.0080           0
   22967 WT1  8548 TIP3 OH2  OT    -0.834000       15.9994           0
   22968 WT1  8548 TIP3 H1   HT     0.417000        1.0080           0
   22969 WT1  8548 TIP3 H2   HT     0.417000        1.0080           0
   22970 WT1  8549 TIP3 OH2  OT    -0.834000       15.9994           0
   22971 WT1  8549 TIP3 H1   HT     0.417000        1.0080           0
   22972 WT1  8549 TIP3 H2   HT     0.417000        1.0080           0
   22973 WT1  8550 TIP3 OH2  OT    -0.834000       15.9994           0
   22974 WT1  8550 TIP3 H1   HT     0.417000        1.0080           0
   22975 WT1  8550 TIP3 H2   HT     0.417000        1.0080           0
   22976 WT1  8551 TIP3 OH2  OT    -0.834000       15.9994           0
   22977 WT1  8551 TIP3 H1   HT     0.417000        1.0080           0
   22978 WT1  8551 TIP3 H2   HT     0.417000        1.0080           0
   22979 WT1  8553 TIP3 OH2  OT    -0.834000       15.9994           0
   22980 WT1  8553 TIP3 H1   HT     0.417000        1.0080           0
   22981 WT1  8553 TIP3 H2   HT     0.417000        1.0080           0
   22982 WT1  8554 TIP3 OH2  OT    -0.834000       15.9994           0
   22983 WT1  8554 TIP3 H1   HT     0.417000        1.0080           0
   22984 WT1  8554 TIP3 H2   HT     0.417000        1.0080           0
   22985 WT1  8555 TIP3 OH2  OT    -0.834000       15.9994           0
   22986 WT1  8555 TIP3 H1   HT     0.417000        1.0080           0
   22987 WT1  8555 TIP3 H2   HT     0.417000        1.0080           0
   22988 WT1  8556 TIP3 OH2  OT    -0.834000       15.9994           0
   22989 WT1  8556 TIP3 H1   HT     0.417000        1.0080           0
   22990 WT1  8556 TIP3 H2   HT     0.417000        1.0080           0
   22991 WT1  8557 TIP3 OH2  OT    -0.834000       15.9994           0
   22992 WT1  8557 TIP3 H1   HT     0.417000        1.0080           0
   22993 WT1  8557 TIP3 H2   HT     0.417000        1.0080           0
   22994 WT1  8558 TIP3 OH2  OT    -0.834000       15.9994           0
   22995 WT1  8558 TIP3 H1   HT     0.417000        1.0080           0
   22996 WT1  8558 TIP3 H2   HT     0.417000        1.0080           0
   22997 WT1  8559 TIP3 OH2  OT    -0.834000       15.9994           0
   22998 WT1  8559 TIP3 H1   HT     0.417000        1.0080           0
   22999 WT1  8559 TIP3 H2   HT     0.417000        1.0080           0
   23000 WT1  8560 TIP3 OH2  OT    -0.834000       15.9994           0
   23001 WT1  8560 TIP3 H1   HT     0.417000        1.0080           0
   23002 WT1  8560 TIP3 H2   HT     0.417000        1.0080           0
   23003 WT1  8561 TIP3 OH2  OT    -0.834000       15.9994           0
   23004 WT1  8561 TIP3 H1   HT     0.417000        1.0080           0
   23005 WT1  8561 TIP3 H2   HT     0.417000        1.0080           0
   23006 WT1  8562 TIP3 OH2  OT    -0.834000       15.9994           0
   23007 WT1  8562 TIP3 H1   HT     0.417000        1.0080           0
   23008 WT1  8562 TIP3 H2   HT     0.417000        1.0080           0
   23009 WT1  8563 TIP3 OH2  OT    -0.834000       15.9994           0
   23010 WT1  8563 TIP3 H1   HT     0.417000        1.0080           0
   23011 WT1  8563 TIP3 H2   HT     0.417000        1.0080           0
   23012 WT1  8564 TIP3 OH2  OT    -0.834000       15.9994           0
   23013 WT1  8564 TIP3 H1   HT     0.417000        1.0080           0
   23014 WT1  8564 TIP3 H2   HT     0.417000        1.0080           0
   23015 WT1  8565 TIP3 OH2  OT    -0.834000       15.9994           0
   23016 WT1  8565 TIP3 H1   HT     0.417000        1.0080           0
   23017 WT1  8565 TIP3 H2   HT     0.417000        1.0080           0
   23018 WT1  8566 TIP3 OH2  OT    -0.834000       15.9994           0
   23019 WT1  8566 TIP3 H1   HT     0.417000        1.0080           0
   23020 WT1  8566 TIP3 H2   HT     0.417000        1.0080           0
   23021 WT1  8567 TIP3 OH2  OT    -0.834000       15.9994           0
   23022 WT1  8567 TIP3 H1   HT     0.417000        1.0080           0
   23023 WT1  8567 TIP3 H2   HT     0.417000        1.0080           0
   23024 WT1  8569 TIP3 OH2  OT    -0.834000       15.9994           0
   23025 WT1  8569 TIP3 H1   HT     0.417000        1.0080           0
   23026 WT1  8569 TIP3 H2   HT     0.417000        1.0080           0
   23027 WT1  8571 TIP3 OH2  OT    -0.834000       15.9994           0
   23028 WT1  8571 TIP3 H1   HT     0.417000        1.0080           0
   23029 WT1  8571 TIP3 H2   HT     0.417000        1.0080           0
   23030 WT1  8573 TIP3 OH2  OT    -0.834000       15.9994           0
   23031 WT1  8573 TIP3 H1   HT     0.417000        1.0080           0
   23032 WT1  8573 TIP3 H2   HT     0.417000        1.0080           0
   23033 WT1  8574 TIP3 OH2  OT    -0.834000       15.9994           0
   23034 WT1  8574 TIP3 H1   HT     0.417000        1.0080           0
   23035 WT1  8574 TIP3 H2   HT     0.417000        1.0080           0
   23036 WT1  8575 TIP3 OH2  OT    -0.834000       15.9994           0
   23037 WT1  8575 TIP3 H1   HT     0.417000        1.0080           0
   23038 WT1  8575 TIP3 H2   HT     0.417000        1.0080           0
   23039 WT1  8576 TIP3 OH2  OT    -0.834000       15.9994           0
   23040 WT1  8576 TIP3 H1   HT     0.417000        1.0080           0
   23041 WT1  8576 TIP3 H2   HT     0.417000        1.0080           0
   23042 WT1  8577 TIP3 OH2  OT    -0.834000       15.9994           0
   23043 WT1  8577 TIP3 H1   HT     0.417000        1.0080           0
   23044 WT1  8577 TIP3 H2   HT     0.417000        1.0080           0
   23045 WT1  8578 TIP3 OH2  OT    -0.834000       15.9994           0
   23046 WT1  8578 TIP3 H1   HT     0.417000        1.0080           0
   23047 WT1  8578 TIP3 H2   HT     0.417000        1.0080           0
   23048 WT1  8580 TIP3 OH2  OT    -0.834000       15.9994           0
   23049 WT1  8580 TIP3 H1   HT     0.417000        1.0080           0
   23050 WT1  8580 TIP3 H2   HT     0.417000        1.0080           0
   23051 WT1  8582 TIP3 OH2  OT    -0.834000       15.9994           0
   23052 WT1  8582 TIP3 H1   HT     0.417000        1.0080           0
   23053 WT1  8582 TIP3 H2   HT     0.417000        1.0080           0
   23054 WT1  8583 TIP3 OH2  OT    -0.834000       15.9994           0
   23055 WT1  8583 TIP3 H1   HT     0.417000        1.0080           0
   23056 WT1  8583 TIP3 H2   HT     0.417000        1.0080           0
   23057 WT1  8584 TIP3 OH2  OT    -0.834000       15.9994           0
   23058 WT1  8584 TIP3 H1   HT     0.417000        1.0080           0
   23059 WT1  8584 TIP3 H2   HT     0.417000        1.0080           0
   23060 WT1  8586 TIP3 OH2  OT    -0.834000       15.9994           0
   23061 WT1  8586 TIP3 H1   HT     0.417000        1.0080           0
   23062 WT1  8586 TIP3 H2   HT     0.417000        1.0080           0
   23063 WT1  8587 TIP3 OH2  OT    -0.834000       15.9994           0
   23064 WT1  8587 TIP3 H1   HT     0.417000        1.0080           0
   23065 WT1  8587 TIP3 H2   HT     0.417000        1.0080           0
   23066 WT1  8588 TIP3 OH2  OT    -0.834000       15.9994           0
   23067 WT1  8588 TIP3 H1   HT     0.417000        1.0080           0
   23068 WT1  8588 TIP3 H2   HT     0.417000        1.0080           0
   23069 WT1  8589 TIP3 OH2  OT    -0.834000       15.9994           0
   23070 WT1  8589 TIP3 H1   HT     0.417000        1.0080           0
   23071 WT1  8589 TIP3 H2   HT     0.417000        1.0080           0
   23072 WT1  8591 TIP3 OH2  OT    -0.834000       15.9994           0
   23073 WT1  8591 TIP3 H1   HT     0.417000        1.0080           0
   23074 WT1  8591 TIP3 H2   HT     0.417000        1.0080           0
   23075 WT1  8592 TIP3 OH2  OT    -0.834000       15.9994           0
   23076 WT1  8592 TIP3 H1   HT     0.417000        1.0080           0
   23077 WT1  8592 TIP3 H2   HT     0.417000        1.0080           0
   23078 WT1  8593 TIP3 OH2  OT    -0.834000       15.9994           0
   23079 WT1  8593 TIP3 H1   HT     0.417000        1.0080           0
   23080 WT1  8593 TIP3 H2   HT     0.417000        1.0080           0
   23081 WT1  8595 TIP3 OH2  OT    -0.834000       15.9994           0
   23082 WT1  8595 TIP3 H1   HT     0.417000        1.0080           0
   23083 WT1  8595 TIP3 H2   HT     0.417000        1.0080           0
   23084 WT1  8597 TIP3 OH2  OT    -0.834000       15.9994           0
   23085 WT1  8597 TIP3 H1   HT     0.417000        1.0080           0
   23086 WT1  8597 TIP3 H2   HT     0.417000        1.0080           0
   23087 WT1  8598 TIP3 OH2  OT    -0.834000       15.9994           0
   23088 WT1  8598 TIP3 H1   HT     0.417000        1.0080           0
   23089 WT1  8598 TIP3 H2   HT     0.417000        1.0080           0
   23090 WT1  8599 TIP3 OH2  OT    -0.834000       15.9994           0
   23091 WT1  8599 TIP3 H1   HT     0.417000        1.0080           0
   23092 WT1  8599 TIP3 H2   HT     0.417000        1.0080           0
   23093 WT1  8600 TIP3 OH2  OT    -0.834000       15.9994           0
   23094 WT1  8600 TIP3 H1   HT     0.417000        1.0080           0
   23095 WT1  8600 TIP3 H2   HT     0.417000        1.0080           0
   23096 WT1  8601 TIP3 OH2  OT    -0.834000       15.9994           0
   23097 WT1  8601 TIP3 H1   HT     0.417000        1.0080           0
   23098 WT1  8601 TIP3 H2   HT     0.417000        1.0080           0
   23099 WT1  8602 TIP3 OH2  OT    -0.834000       15.9994           0
   23100 WT1  8602 TIP3 H1   HT     0.417000        1.0080           0
   23101 WT1  8602 TIP3 H2   HT     0.417000        1.0080           0
   23102 WT1  8603 TIP3 OH2  OT    -0.834000       15.9994           0
   23103 WT1  8603 TIP3 H1   HT     0.417000        1.0080           0
   23104 WT1  8603 TIP3 H2   HT     0.417000        1.0080           0
   23105 WT1  8604 TIP3 OH2  OT    -0.834000       15.9994           0
   23106 WT1  8604 TIP3 H1   HT     0.417000        1.0080           0
   23107 WT1  8604 TIP3 H2   HT     0.417000        1.0080           0
   23108 WT1  8605 TIP3 OH2  OT    -0.834000       15.9994           0
   23109 WT1  8605 TIP3 H1   HT     0.417000        1.0080           0
   23110 WT1  8605 TIP3 H2   HT     0.417000        1.0080           0
   23111 WT1  8606 TIP3 OH2  OT    -0.834000       15.9994           0
   23112 WT1  8606 TIP3 H1   HT     0.417000        1.0080           0
   23113 WT1  8606 TIP3 H2   HT     0.417000        1.0080           0
   23114 WT1  8607 TIP3 OH2  OT    -0.834000       15.9994           0
   23115 WT1  8607 TIP3 H1   HT     0.417000        1.0080           0
   23116 WT1  8607 TIP3 H2   HT     0.417000        1.0080           0
   23117 WT1  8609 TIP3 OH2  OT    -0.834000       15.9994           0
   23118 WT1  8609 TIP3 H1   HT     0.417000        1.0080           0
   23119 WT1  8609 TIP3 H2   HT     0.417000        1.0080           0
   23120 WT1  8610 TIP3 OH2  OT    -0.834000       15.9994           0
   23121 WT1  8610 TIP3 H1   HT     0.417000        1.0080           0
   23122 WT1  8610 TIP3 H2   HT     0.417000        1.0080           0
   23123 WT1  8611 TIP3 OH2  OT    -0.834000       15.9994           0
   23124 WT1  8611 TIP3 H1   HT     0.417000        1.0080           0
   23125 WT1  8611 TIP3 H2   HT     0.417000        1.0080           0
   23126 WT1  8612 TIP3 OH2  OT    -0.834000       15.9994           0
   23127 WT1  8612 TIP3 H1   HT     0.417000        1.0080           0
   23128 WT1  8612 TIP3 H2   HT     0.417000        1.0080           0
   23129 WT1  8613 TIP3 OH2  OT    -0.834000       15.9994           0
   23130 WT1  8613 TIP3 H1   HT     0.417000        1.0080           0
   23131 WT1  8613 TIP3 H2   HT     0.417000        1.0080           0
   23132 WT1  8614 TIP3 OH2  OT    -0.834000       15.9994           0
   23133 WT1  8614 TIP3 H1   HT     0.417000        1.0080           0
   23134 WT1  8614 TIP3 H2   HT     0.417000        1.0080           0
   23135 WT1  8615 TIP3 OH2  OT    -0.834000       15.9994           0
   23136 WT1  8615 TIP3 H1   HT     0.417000        1.0080           0
   23137 WT1  8615 TIP3 H2   HT     0.417000        1.0080           0
   23138 WT1  8616 TIP3 OH2  OT    -0.834000       15.9994           0
   23139 WT1  8616 TIP3 H1   HT     0.417000        1.0080           0
   23140 WT1  8616 TIP3 H2   HT     0.417000        1.0080           0
   23141 WT1  8617 TIP3 OH2  OT    -0.834000       15.9994           0
   23142 WT1  8617 TIP3 H1   HT     0.417000        1.0080           0
   23143 WT1  8617 TIP3 H2   HT     0.417000        1.0080           0
   23144 WT1  8618 TIP3 OH2  OT    -0.834000       15.9994           0
   23145 WT1  8618 TIP3 H1   HT     0.417000        1.0080           0
   23146 WT1  8618 TIP3 H2   HT     0.417000        1.0080           0
   23147 WT1  8619 TIP3 OH2  OT    -0.834000       15.9994           0
   23148 WT1  8619 TIP3 H1   HT     0.417000        1.0080           0
   23149 WT1  8619 TIP3 H2   HT     0.417000        1.0080           0
   23150 WT1  8620 TIP3 OH2  OT    -0.834000       15.9994           0
   23151 WT1  8620 TIP3 H1   HT     0.417000        1.0080           0
   23152 WT1  8620 TIP3 H2   HT     0.417000        1.0080           0
   23153 WT1  8621 TIP3 OH2  OT    -0.834000       15.9994           0
   23154 WT1  8621 TIP3 H1   HT     0.417000        1.0080           0
   23155 WT1  8621 TIP3 H2   HT     0.417000        1.0080           0
   23156 WT1  8622 TIP3 OH2  OT    -0.834000       15.9994           0
   23157 WT1  8622 TIP3 H1   HT     0.417000        1.0080           0
   23158 WT1  8622 TIP3 H2   HT     0.417000        1.0080           0
   23159 WT1  8623 TIP3 OH2  OT    -0.834000       15.9994           0
   23160 WT1  8623 TIP3 H1   HT     0.417000        1.0080           0
   23161 WT1  8623 TIP3 H2   HT     0.417000        1.0080           0
   23162 WT1  8624 TIP3 OH2  OT    -0.834000       15.9994           0
   23163 WT1  8624 TIP3 H1   HT     0.417000        1.0080           0
   23164 WT1  8624 TIP3 H2   HT     0.417000        1.0080           0
   23165 WT1  8625 TIP3 OH2  OT    -0.834000       15.9994           0
   23166 WT1  8625 TIP3 H1   HT     0.417000        1.0080           0
   23167 WT1  8625 TIP3 H2   HT     0.417000        1.0080           0
   23168 WT1  8627 TIP3 OH2  OT    -0.834000       15.9994           0
   23169 WT1  8627 TIP3 H1   HT     0.417000        1.0080           0
   23170 WT1  8627 TIP3 H2   HT     0.417000        1.0080           0
   23171 WT1  8628 TIP3 OH2  OT    -0.834000       15.9994           0
   23172 WT1  8628 TIP3 H1   HT     0.417000        1.0080           0
   23173 WT1  8628 TIP3 H2   HT     0.417000        1.0080           0
   23174 WT1  8629 TIP3 OH2  OT    -0.834000       15.9994           0
   23175 WT1  8629 TIP3 H1   HT     0.417000        1.0080           0
   23176 WT1  8629 TIP3 H2   HT     0.417000        1.0080           0
   23177 WT1  8630 TIP3 OH2  OT    -0.834000       15.9994           0
   23178 WT1  8630 TIP3 H1   HT     0.417000        1.0080           0
   23179 WT1  8630 TIP3 H2   HT     0.417000        1.0080           0
   23180 WT1  8631 TIP3 OH2  OT    -0.834000       15.9994           0
   23181 WT1  8631 TIP3 H1   HT     0.417000        1.0080           0
   23182 WT1  8631 TIP3 H2   HT     0.417000        1.0080           0
   23183 WT1  8633 TIP3 OH2  OT    -0.834000       15.9994           0
   23184 WT1  8633 TIP3 H1   HT     0.417000        1.0080           0
   23185 WT1  8633 TIP3 H2   HT     0.417000        1.0080           0
   23186 WT1  8634 TIP3 OH2  OT    -0.834000       15.9994           0
   23187 WT1  8634 TIP3 H1   HT     0.417000        1.0080           0
   23188 WT1  8634 TIP3 H2   HT     0.417000        1.0080           0
   23189 WT1  8635 TIP3 OH2  OT    -0.834000       15.9994           0
   23190 WT1  8635 TIP3 H1   HT     0.417000        1.0080           0
   23191 WT1  8635 TIP3 H2   HT     0.417000        1.0080           0
   23192 WT1  8636 TIP3 OH2  OT    -0.834000       15.9994           0
   23193 WT1  8636 TIP3 H1   HT     0.417000        1.0080           0
   23194 WT1  8636 TIP3 H2   HT     0.417000        1.0080           0
   23195 WT1  8637 TIP3 OH2  OT    -0.834000       15.9994           0
   23196 WT1  8637 TIP3 H1   HT     0.417000        1.0080           0
   23197 WT1  8637 TIP3 H2   HT     0.417000        1.0080           0
   23198 WT1  8638 TIP3 OH2  OT    -0.834000       15.9994           0
   23199 WT1  8638 TIP3 H1   HT     0.417000        1.0080           0
   23200 WT1  8638 TIP3 H2   HT     0.417000        1.0080           0
   23201 WT1  8639 TIP3 OH2  OT    -0.834000       15.9994           0
   23202 WT1  8639 TIP3 H1   HT     0.417000        1.0080           0
   23203 WT1  8639 TIP3 H2   HT     0.417000        1.0080           0
   23204 WT1  8640 TIP3 OH2  OT    -0.834000       15.9994           0
   23205 WT1  8640 TIP3 H1   HT     0.417000        1.0080           0
   23206 WT1  8640 TIP3 H2   HT     0.417000        1.0080           0
   23207 WT1  8642 TIP3 OH2  OT    -0.834000       15.9994           0
   23208 WT1  8642 TIP3 H1   HT     0.417000        1.0080           0
   23209 WT1  8642 TIP3 H2   HT     0.417000        1.0080           0
   23210 WT1  8643 TIP3 OH2  OT    -0.834000       15.9994           0
   23211 WT1  8643 TIP3 H1   HT     0.417000        1.0080           0
   23212 WT1  8643 TIP3 H2   HT     0.417000        1.0080           0
   23213 WT1  8644 TIP3 OH2  OT    -0.834000       15.9994           0
   23214 WT1  8644 TIP3 H1   HT     0.417000        1.0080           0
   23215 WT1  8644 TIP3 H2   HT     0.417000        1.0080           0
   23216 WT1  8645 TIP3 OH2  OT    -0.834000       15.9994           0
   23217 WT1  8645 TIP3 H1   HT     0.417000        1.0080           0
   23218 WT1  8645 TIP3 H2   HT     0.417000        1.0080           0
   23219 WT1  8646 TIP3 OH2  OT    -0.834000       15.9994           0
   23220 WT1  8646 TIP3 H1   HT     0.417000        1.0080           0
   23221 WT1  8646 TIP3 H2   HT     0.417000        1.0080           0
   23222 WT1  8647 TIP3 OH2  OT    -0.834000       15.9994           0
   23223 WT1  8647 TIP3 H1   HT     0.417000        1.0080           0
   23224 WT1  8647 TIP3 H2   HT     0.417000        1.0080           0
   23225 WT1  8648 TIP3 OH2  OT    -0.834000       15.9994           0
   23226 WT1  8648 TIP3 H1   HT     0.417000        1.0080           0
   23227 WT1  8648 TIP3 H2   HT     0.417000        1.0080           0
   23228 WT1  8649 TIP3 OH2  OT    -0.834000       15.9994           0
   23229 WT1  8649 TIP3 H1   HT     0.417000        1.0080           0
   23230 WT1  8649 TIP3 H2   HT     0.417000        1.0080           0
   23231 WT1  8650 TIP3 OH2  OT    -0.834000       15.9994           0
   23232 WT1  8650 TIP3 H1   HT     0.417000        1.0080           0
   23233 WT1  8650 TIP3 H2   HT     0.417000        1.0080           0
   23234 WT1  8651 TIP3 OH2  OT    -0.834000       15.9994           0
   23235 WT1  8651 TIP3 H1   HT     0.417000        1.0080           0
   23236 WT1  8651 TIP3 H2   HT     0.417000        1.0080           0
   23237 WT1  8652 TIP3 OH2  OT    -0.834000       15.9994           0
   23238 WT1  8652 TIP3 H1   HT     0.417000        1.0080           0
   23239 WT1  8652 TIP3 H2   HT     0.417000        1.0080           0
   23240 WT1  8653 TIP3 OH2  OT    -0.834000       15.9994           0
   23241 WT1  8653 TIP3 H1   HT     0.417000        1.0080           0
   23242 WT1  8653 TIP3 H2   HT     0.417000        1.0080           0
   23243 WT1  8654 TIP3 OH2  OT    -0.834000       15.9994           0
   23244 WT1  8654 TIP3 H1   HT     0.417000        1.0080           0
   23245 WT1  8654 TIP3 H2   HT     0.417000        1.0080           0
   23246 WT1  8655 TIP3 OH2  OT    -0.834000       15.9994           0
   23247 WT1  8655 TIP3 H1   HT     0.417000        1.0080           0
   23248 WT1  8655 TIP3 H2   HT     0.417000        1.0080           0
   23249 WT1  8656 TIP3 OH2  OT    -0.834000       15.9994           0
   23250 WT1  8656 TIP3 H1   HT     0.417000        1.0080           0
   23251 WT1  8656 TIP3 H2   HT     0.417000        1.0080           0
   23252 WT1  8657 TIP3 OH2  OT    -0.834000       15.9994           0
   23253 WT1  8657 TIP3 H1   HT     0.417000        1.0080           0
   23254 WT1  8657 TIP3 H2   HT     0.417000        1.0080           0
   23255 WT1  8658 TIP3 OH2  OT    -0.834000       15.9994           0
   23256 WT1  8658 TIP3 H1   HT     0.417000        1.0080           0
   23257 WT1  8658 TIP3 H2   HT     0.417000        1.0080           0
   23258 WT1  8659 TIP3 OH2  OT    -0.834000       15.9994           0
   23259 WT1  8659 TIP3 H1   HT     0.417000        1.0080           0
   23260 WT1  8659 TIP3 H2   HT     0.417000        1.0080           0
   23261 WT1  8660 TIP3 OH2  OT    -0.834000       15.9994           0
   23262 WT1  8660 TIP3 H1   HT     0.417000        1.0080           0
   23263 WT1  8660 TIP3 H2   HT     0.417000        1.0080           0
   23264 WT1  8662 TIP3 OH2  OT    -0.834000       15.9994           0
   23265 WT1  8662 TIP3 H1   HT     0.417000        1.0080           0
   23266 WT1  8662 TIP3 H2   HT     0.417000        1.0080           0
   23267 WT1  8663 TIP3 OH2  OT    -0.834000       15.9994           0
   23268 WT1  8663 TIP3 H1   HT     0.417000        1.0080           0
   23269 WT1  8663 TIP3 H2   HT     0.417000        1.0080           0
   23270 WT1  8664 TIP3 OH2  OT    -0.834000       15.9994           0
   23271 WT1  8664 TIP3 H1   HT     0.417000        1.0080           0
   23272 WT1  8664 TIP3 H2   HT     0.417000        1.0080           0
   23273 WT1  8667 TIP3 OH2  OT    -0.834000       15.9994           0
   23274 WT1  8667 TIP3 H1   HT     0.417000        1.0080           0
   23275 WT1  8667 TIP3 H2   HT     0.417000        1.0080           0
   23276 WT1  8668 TIP3 OH2  OT    -0.834000       15.9994           0
   23277 WT1  8668 TIP3 H1   HT     0.417000        1.0080           0
   23278 WT1  8668 TIP3 H2   HT     0.417000        1.0080           0
   23279 WT1  8669 TIP3 OH2  OT    -0.834000       15.9994           0
   23280 WT1  8669 TIP3 H1   HT     0.417000        1.0080           0
   23281 WT1  8669 TIP3 H2   HT     0.417000        1.0080           0
   23282 WT1  8670 TIP3 OH2  OT    -0.834000       15.9994           0
   23283 WT1  8670 TIP3 H1   HT     0.417000        1.0080           0
   23284 WT1  8670 TIP3 H2   HT     0.417000        1.0080           0
   23285 WT1  8671 TIP3 OH2  OT    -0.834000       15.9994           0
   23286 WT1  8671 TIP3 H1   HT     0.417000        1.0080           0
   23287 WT1  8671 TIP3 H2   HT     0.417000        1.0080           0
   23288 WT1  8674 TIP3 OH2  OT    -0.834000       15.9994           0
   23289 WT1  8674 TIP3 H1   HT     0.417000        1.0080           0
   23290 WT1  8674 TIP3 H2   HT     0.417000        1.0080           0
   23291 WT1  8675 TIP3 OH2  OT    -0.834000       15.9994           0
   23292 WT1  8675 TIP3 H1   HT     0.417000        1.0080           0
   23293 WT1  8675 TIP3 H2   HT     0.417000        1.0080           0
   23294 WT1  8676 TIP3 OH2  OT    -0.834000       15.9994           0
   23295 WT1  8676 TIP3 H1   HT     0.417000        1.0080           0
   23296 WT1  8676 TIP3 H2   HT     0.417000        1.0080           0
   23297 WT1  8677 TIP3 OH2  OT    -0.834000       15.9994           0
   23298 WT1  8677 TIP3 H1   HT     0.417000        1.0080           0
   23299 WT1  8677 TIP3 H2   HT     0.417000        1.0080           0
   23300 WT1  8678 TIP3 OH2  OT    -0.834000       15.9994           0
   23301 WT1  8678 TIP3 H1   HT     0.417000        1.0080           0
   23302 WT1  8678 TIP3 H2   HT     0.417000        1.0080           0
   23303 WT1  8679 TIP3 OH2  OT    -0.834000       15.9994           0
   23304 WT1  8679 TIP3 H1   HT     0.417000        1.0080           0
   23305 WT1  8679 TIP3 H2   HT     0.417000        1.0080           0
   23306 WT1  8680 TIP3 OH2  OT    -0.834000       15.9994           0
   23307 WT1  8680 TIP3 H1   HT     0.417000        1.0080           0
   23308 WT1  8680 TIP3 H2   HT     0.417000        1.0080           0
   23309 WT1  8681 TIP3 OH2  OT    -0.834000       15.9994           0
   23310 WT1  8681 TIP3 H1   HT     0.417000        1.0080           0
   23311 WT1  8681 TIP3 H2   HT     0.417000        1.0080           0
   23312 WT1  8682 TIP3 OH2  OT    -0.834000       15.9994           0
   23313 WT1  8682 TIP3 H1   HT     0.417000        1.0080           0
   23314 WT1  8682 TIP3 H2   HT     0.417000        1.0080           0
   23315 WT1  8683 TIP3 OH2  OT    -0.834000       15.9994           0
   23316 WT1  8683 TIP3 H1   HT     0.417000        1.0080           0
   23317 WT1  8683 TIP3 H2   HT     0.417000        1.0080           0
   23318 WT1  8684 TIP3 OH2  OT    -0.834000       15.9994           0
   23319 WT1  8684 TIP3 H1   HT     0.417000        1.0080           0
   23320 WT1  8684 TIP3 H2   HT     0.417000        1.0080           0
   23321 WT1  8685 TIP3 OH2  OT    -0.834000       15.9994           0
   23322 WT1  8685 TIP3 H1   HT     0.417000        1.0080           0
   23323 WT1  8685 TIP3 H2   HT     0.417000        1.0080           0
   23324 WT1  8686 TIP3 OH2  OT    -0.834000       15.9994           0
   23325 WT1  8686 TIP3 H1   HT     0.417000        1.0080           0
   23326 WT1  8686 TIP3 H2   HT     0.417000        1.0080           0
   23327 WT1  8687 TIP3 OH2  OT    -0.834000       15.9994           0
   23328 WT1  8687 TIP3 H1   HT     0.417000        1.0080           0
   23329 WT1  8687 TIP3 H2   HT     0.417000        1.0080           0
   23330 WT1  8688 TIP3 OH2  OT    -0.834000       15.9994           0
   23331 WT1  8688 TIP3 H1   HT     0.417000        1.0080           0
   23332 WT1  8688 TIP3 H2   HT     0.417000        1.0080           0
   23333 WT1  8689 TIP3 OH2  OT    -0.834000       15.9994           0
   23334 WT1  8689 TIP3 H1   HT     0.417000        1.0080           0
   23335 WT1  8689 TIP3 H2   HT     0.417000        1.0080           0
   23336 WT1  8690 TIP3 OH2  OT    -0.834000       15.9994           0
   23337 WT1  8690 TIP3 H1   HT     0.417000        1.0080           0
   23338 WT1  8690 TIP3 H2   HT     0.417000        1.0080           0
   23339 WT1  8691 TIP3 OH2  OT    -0.834000       15.9994           0
   23340 WT1  8691 TIP3 H1   HT     0.417000        1.0080           0
   23341 WT1  8691 TIP3 H2   HT     0.417000        1.0080           0
   23342 WT1  8692 TIP3 OH2  OT    -0.834000       15.9994           0
   23343 WT1  8692 TIP3 H1   HT     0.417000        1.0080           0
   23344 WT1  8692 TIP3 H2   HT     0.417000        1.0080           0
   23345 WT1  8693 TIP3 OH2  OT    -0.834000       15.9994           0
   23346 WT1  8693 TIP3 H1   HT     0.417000        1.0080           0
   23347 WT1  8693 TIP3 H2   HT     0.417000        1.0080           0
   23348 WT1  8694 TIP3 OH2  OT    -0.834000       15.9994           0
   23349 WT1  8694 TIP3 H1   HT     0.417000        1.0080           0
   23350 WT1  8694 TIP3 H2   HT     0.417000        1.0080           0
   23351 WT1  8695 TIP3 OH2  OT    -0.834000       15.9994           0
   23352 WT1  8695 TIP3 H1   HT     0.417000        1.0080           0
   23353 WT1  8695 TIP3 H2   HT     0.417000        1.0080           0
   23354 WT1  8696 TIP3 OH2  OT    -0.834000       15.9994           0
   23355 WT1  8696 TIP3 H1   HT     0.417000        1.0080           0
   23356 WT1  8696 TIP3 H2   HT     0.417000        1.0080           0
   23357 WT1  8697 TIP3 OH2  OT    -0.834000       15.9994           0
   23358 WT1  8697 TIP3 H1   HT     0.417000        1.0080           0
   23359 WT1  8697 TIP3 H2   HT     0.417000        1.0080           0
   23360 WT1  8698 TIP3 OH2  OT    -0.834000       15.9994           0
   23361 WT1  8698 TIP3 H1   HT     0.417000        1.0080           0
   23362 WT1  8698 TIP3 H2   HT     0.417000        1.0080           0
   23363 WT1  8700 TIP3 OH2  OT    -0.834000       15.9994           0
   23364 WT1  8700 TIP3 H1   HT     0.417000        1.0080           0
   23365 WT1  8700 TIP3 H2   HT     0.417000        1.0080           0
   23366 WT1  8702 TIP3 OH2  OT    -0.834000       15.9994           0
   23367 WT1  8702 TIP3 H1   HT     0.417000        1.0080           0
   23368 WT1  8702 TIP3 H2   HT     0.417000        1.0080           0
   23369 WT1  8703 TIP3 OH2  OT    -0.834000       15.9994           0
   23370 WT1  8703 TIP3 H1   HT     0.417000        1.0080           0
   23371 WT1  8703 TIP3 H2   HT     0.417000        1.0080           0
   23372 WT1  8704 TIP3 OH2  OT    -0.834000       15.9994           0
   23373 WT1  8704 TIP3 H1   HT     0.417000        1.0080           0
   23374 WT1  8704 TIP3 H2   HT     0.417000        1.0080           0
   23375 WT1  8705 TIP3 OH2  OT    -0.834000       15.9994           0
   23376 WT1  8705 TIP3 H1   HT     0.417000        1.0080           0
   23377 WT1  8705 TIP3 H2   HT     0.417000        1.0080           0
   23378 WT1  8706 TIP3 OH2  OT    -0.834000       15.9994           0
   23379 WT1  8706 TIP3 H1   HT     0.417000        1.0080           0
   23380 WT1  8706 TIP3 H2   HT     0.417000        1.0080           0
   23381 WT1  8707 TIP3 OH2  OT    -0.834000       15.9994           0
   23382 WT1  8707 TIP3 H1   HT     0.417000        1.0080           0
   23383 WT1  8707 TIP3 H2   HT     0.417000        1.0080           0
   23384 WT1  8709 TIP3 OH2  OT    -0.834000       15.9994           0
   23385 WT1  8709 TIP3 H1   HT     0.417000        1.0080           0
   23386 WT1  8709 TIP3 H2   HT     0.417000        1.0080           0
   23387 WT1  8710 TIP3 OH2  OT    -0.834000       15.9994           0
   23388 WT1  8710 TIP3 H1   HT     0.417000        1.0080           0
   23389 WT1  8710 TIP3 H2   HT     0.417000        1.0080           0
   23390 WT1  8711 TIP3 OH2  OT    -0.834000       15.9994           0
   23391 WT1  8711 TIP3 H1   HT     0.417000        1.0080           0
   23392 WT1  8711 TIP3 H2   HT     0.417000        1.0080           0
   23393 WT1  8712 TIP3 OH2  OT    -0.834000       15.9994           0
   23394 WT1  8712 TIP3 H1   HT     0.417000        1.0080           0
   23395 WT1  8712 TIP3 H2   HT     0.417000        1.0080           0
   23396 WT1  8713 TIP3 OH2  OT    -0.834000       15.9994           0
   23397 WT1  8713 TIP3 H1   HT     0.417000        1.0080           0
   23398 WT1  8713 TIP3 H2   HT     0.417000        1.0080           0
   23399 WT1  8714 TIP3 OH2  OT    -0.834000       15.9994           0
   23400 WT1  8714 TIP3 H1   HT     0.417000        1.0080           0
   23401 WT1  8714 TIP3 H2   HT     0.417000        1.0080           0
   23402 WT1  8715 TIP3 OH2  OT    -0.834000       15.9994           0
   23403 WT1  8715 TIP3 H1   HT     0.417000        1.0080           0
   23404 WT1  8715 TIP3 H2   HT     0.417000        1.0080           0
   23405 WT1  8716 TIP3 OH2  OT    -0.834000       15.9994           0
   23406 WT1  8716 TIP3 H1   HT     0.417000        1.0080           0
   23407 WT1  8716 TIP3 H2   HT     0.417000        1.0080           0
   23408 WT1  8717 TIP3 OH2  OT    -0.834000       15.9994           0
   23409 WT1  8717 TIP3 H1   HT     0.417000        1.0080           0
   23410 WT1  8717 TIP3 H2   HT     0.417000        1.0080           0
   23411 WT1  8718 TIP3 OH2  OT    -0.834000       15.9994           0
   23412 WT1  8718 TIP3 H1   HT     0.417000        1.0080           0
   23413 WT1  8718 TIP3 H2   HT     0.417000        1.0080           0
   23414 WT1  8719 TIP3 OH2  OT    -0.834000       15.9994           0
   23415 WT1  8719 TIP3 H1   HT     0.417000        1.0080           0
   23416 WT1  8719 TIP3 H2   HT     0.417000        1.0080           0
   23417 WT1  8720 TIP3 OH2  OT    -0.834000       15.9994           0
   23418 WT1  8720 TIP3 H1   HT     0.417000        1.0080           0
   23419 WT1  8720 TIP3 H2   HT     0.417000        1.0080           0
   23420 WT1  8721 TIP3 OH2  OT    -0.834000       15.9994           0
   23421 WT1  8721 TIP3 H1   HT     0.417000        1.0080           0
   23422 WT1  8721 TIP3 H2   HT     0.417000        1.0080           0
   23423 WT1  8722 TIP3 OH2  OT    -0.834000       15.9994           0
   23424 WT1  8722 TIP3 H1   HT     0.417000        1.0080           0
   23425 WT1  8722 TIP3 H2   HT     0.417000        1.0080           0
   23426 WT1  8723 TIP3 OH2  OT    -0.834000       15.9994           0
   23427 WT1  8723 TIP3 H1   HT     0.417000        1.0080           0
   23428 WT1  8723 TIP3 H2   HT     0.417000        1.0080           0
   23429 WT1  8724 TIP3 OH2  OT    -0.834000       15.9994           0
   23430 WT1  8724 TIP3 H1   HT     0.417000        1.0080           0
   23431 WT1  8724 TIP3 H2   HT     0.417000        1.0080           0
   23432 WT1  8725 TIP3 OH2  OT    -0.834000       15.9994           0
   23433 WT1  8725 TIP3 H1   HT     0.417000        1.0080           0
   23434 WT1  8725 TIP3 H2   HT     0.417000        1.0080           0
   23435 WT1  8726 TIP3 OH2  OT    -0.834000       15.9994           0
   23436 WT1  8726 TIP3 H1   HT     0.417000        1.0080           0
   23437 WT1  8726 TIP3 H2   HT     0.417000        1.0080           0
   23438 WT1  8727 TIP3 OH2  OT    -0.834000       15.9994           0
   23439 WT1  8727 TIP3 H1   HT     0.417000        1.0080           0
   23440 WT1  8727 TIP3 H2   HT     0.417000        1.0080           0
   23441 WT1  8728 TIP3 OH2  OT    -0.834000       15.9994           0
   23442 WT1  8728 TIP3 H1   HT     0.417000        1.0080           0
   23443 WT1  8728 TIP3 H2   HT     0.417000        1.0080           0
   23444 WT1  8729 TIP3 OH2  OT    -0.834000       15.9994           0
   23445 WT1  8729 TIP3 H1   HT     0.417000        1.0080           0
   23446 WT1  8729 TIP3 H2   HT     0.417000        1.0080           0
   23447 WT1  8730 TIP3 OH2  OT    -0.834000       15.9994           0
   23448 WT1  8730 TIP3 H1   HT     0.417000        1.0080           0
   23449 WT1  8730 TIP3 H2   HT     0.417000        1.0080           0
   23450 WT1  8731 TIP3 OH2  OT    -0.834000       15.9994           0
   23451 WT1  8731 TIP3 H1   HT     0.417000        1.0080           0
   23452 WT1  8731 TIP3 H2   HT     0.417000        1.0080           0
   23453 WT1  8732 TIP3 OH2  OT    -0.834000       15.9994           0
   23454 WT1  8732 TIP3 H1   HT     0.417000        1.0080           0
   23455 WT1  8732 TIP3 H2   HT     0.417000        1.0080           0
   23456 WT1  8734 TIP3 OH2  OT    -0.834000       15.9994           0
   23457 WT1  8734 TIP3 H1   HT     0.417000        1.0080           0
   23458 WT1  8734 TIP3 H2   HT     0.417000        1.0080           0
   23459 WT1  8735 TIP3 OH2  OT    -0.834000       15.9994           0
   23460 WT1  8735 TIP3 H1   HT     0.417000        1.0080           0
   23461 WT1  8735 TIP3 H2   HT     0.417000        1.0080           0
   23462 WT1  8736 TIP3 OH2  OT    -0.834000       15.9994           0
   23463 WT1  8736 TIP3 H1   HT     0.417000        1.0080           0
   23464 WT1  8736 TIP3 H2   HT     0.417000        1.0080           0
   23465 WT1  8737 TIP3 OH2  OT    -0.834000       15.9994           0
   23466 WT1  8737 TIP3 H1   HT     0.417000        1.0080           0
   23467 WT1  8737 TIP3 H2   HT     0.417000        1.0080           0
   23468 WT1  8738 TIP3 OH2  OT    -0.834000       15.9994           0
   23469 WT1  8738 TIP3 H1   HT     0.417000        1.0080           0
   23470 WT1  8738 TIP3 H2   HT     0.417000        1.0080           0
   23471 WT1  8739 TIP3 OH2  OT    -0.834000       15.9994           0
   23472 WT1  8739 TIP3 H1   HT     0.417000        1.0080           0
   23473 WT1  8739 TIP3 H2   HT     0.417000        1.0080           0
   23474 WT1  8740 TIP3 OH2  OT    -0.834000       15.9994           0
   23475 WT1  8740 TIP3 H1   HT     0.417000        1.0080           0
   23476 WT1  8740 TIP3 H2   HT     0.417000        1.0080           0
   23477 WT1  8741 TIP3 OH2  OT    -0.834000       15.9994           0
   23478 WT1  8741 TIP3 H1   HT     0.417000        1.0080           0
   23479 WT1  8741 TIP3 H2   HT     0.417000        1.0080           0
   23480 WT1  8742 TIP3 OH2  OT    -0.834000       15.9994           0
   23481 WT1  8742 TIP3 H1   HT     0.417000        1.0080           0
   23482 WT1  8742 TIP3 H2   HT     0.417000        1.0080           0
   23483 WT1  8743 TIP3 OH2  OT    -0.834000       15.9994           0
   23484 WT1  8743 TIP3 H1   HT     0.417000        1.0080           0
   23485 WT1  8743 TIP3 H2   HT     0.417000        1.0080           0
   23486 WT1  8744 TIP3 OH2  OT    -0.834000       15.9994           0
   23487 WT1  8744 TIP3 H1   HT     0.417000        1.0080           0
   23488 WT1  8744 TIP3 H2   HT     0.417000        1.0080           0
   23489 WT1  8745 TIP3 OH2  OT    -0.834000       15.9994           0
   23490 WT1  8745 TIP3 H1   HT     0.417000        1.0080           0
   23491 WT1  8745 TIP3 H2   HT     0.417000        1.0080           0
   23492 WT1  8746 TIP3 OH2  OT    -0.834000       15.9994           0
   23493 WT1  8746 TIP3 H1   HT     0.417000        1.0080           0
   23494 WT1  8746 TIP3 H2   HT     0.417000        1.0080           0
   23495 WT1  8747 TIP3 OH2  OT    -0.834000       15.9994           0
   23496 WT1  8747 TIP3 H1   HT     0.417000        1.0080           0
   23497 WT1  8747 TIP3 H2   HT     0.417000        1.0080           0
   23498 WT1  8748 TIP3 OH2  OT    -0.834000       15.9994           0
   23499 WT1  8748 TIP3 H1   HT     0.417000        1.0080           0
   23500 WT1  8748 TIP3 H2   HT     0.417000        1.0080           0
   23501 WT1  8749 TIP3 OH2  OT    -0.834000       15.9994           0
   23502 WT1  8749 TIP3 H1   HT     0.417000        1.0080           0
   23503 WT1  8749 TIP3 H2   HT     0.417000        1.0080           0
   23504 WT1  8750 TIP3 OH2  OT    -0.834000       15.9994           0
   23505 WT1  8750 TIP3 H1   HT     0.417000        1.0080           0
   23506 WT1  8750 TIP3 H2   HT     0.417000        1.0080           0
   23507 WT1  8751 TIP3 OH2  OT    -0.834000       15.9994           0
   23508 WT1  8751 TIP3 H1   HT     0.417000        1.0080           0
   23509 WT1  8751 TIP3 H2   HT     0.417000        1.0080           0
   23510 WT1  8752 TIP3 OH2  OT    -0.834000       15.9994           0
   23511 WT1  8752 TIP3 H1   HT     0.417000        1.0080           0
   23512 WT1  8752 TIP3 H2   HT     0.417000        1.0080           0
   23513 WT1  8753 TIP3 OH2  OT    -0.834000       15.9994           0
   23514 WT1  8753 TIP3 H1   HT     0.417000        1.0080           0
   23515 WT1  8753 TIP3 H2   HT     0.417000        1.0080           0
   23516 WT1  8755 TIP3 OH2  OT    -0.834000       15.9994           0
   23517 WT1  8755 TIP3 H1   HT     0.417000        1.0080           0
   23518 WT1  8755 TIP3 H2   HT     0.417000        1.0080           0
   23519 WT1  8756 TIP3 OH2  OT    -0.834000       15.9994           0
   23520 WT1  8756 TIP3 H1   HT     0.417000        1.0080           0
   23521 WT1  8756 TIP3 H2   HT     0.417000        1.0080           0
   23522 WT1  8757 TIP3 OH2  OT    -0.834000       15.9994           0
   23523 WT1  8757 TIP3 H1   HT     0.417000        1.0080           0
   23524 WT1  8757 TIP3 H2   HT     0.417000        1.0080           0
   23525 WT1  8758 TIP3 OH2  OT    -0.834000       15.9994           0
   23526 WT1  8758 TIP3 H1   HT     0.417000        1.0080           0
   23527 WT1  8758 TIP3 H2   HT     0.417000        1.0080           0
   23528 WT1  8762 TIP3 OH2  OT    -0.834000       15.9994           0
   23529 WT1  8762 TIP3 H1   HT     0.417000        1.0080           0
   23530 WT1  8762 TIP3 H2   HT     0.417000        1.0080           0
   23531 WT1  8763 TIP3 OH2  OT    -0.834000       15.9994           0
   23532 WT1  8763 TIP3 H1   HT     0.417000        1.0080           0
   23533 WT1  8763 TIP3 H2   HT     0.417000        1.0080           0
   23534 WT1  8764 TIP3 OH2  OT    -0.834000       15.9994           0
   23535 WT1  8764 TIP3 H1   HT     0.417000        1.0080           0
   23536 WT1  8764 TIP3 H2   HT     0.417000        1.0080           0
   23537 WT1  8765 TIP3 OH2  OT    -0.834000       15.9994           0
   23538 WT1  8765 TIP3 H1   HT     0.417000        1.0080           0
   23539 WT1  8765 TIP3 H2   HT     0.417000        1.0080           0
   23540 WT1  8766 TIP3 OH2  OT    -0.834000       15.9994           0
   23541 WT1  8766 TIP3 H1   HT     0.417000        1.0080           0
   23542 WT1  8766 TIP3 H2   HT     0.417000        1.0080           0
   23543 WT1  8767 TIP3 OH2  OT    -0.834000       15.9994           0
   23544 WT1  8767 TIP3 H1   HT     0.417000        1.0080           0
   23545 WT1  8767 TIP3 H2   HT     0.417000        1.0080           0
   23546 WT1  8768 TIP3 OH2  OT    -0.834000       15.9994           0
   23547 WT1  8768 TIP3 H1   HT     0.417000        1.0080           0
   23548 WT1  8768 TIP3 H2   HT     0.417000        1.0080           0
   23549 WT1  8770 TIP3 OH2  OT    -0.834000       15.9994           0
   23550 WT1  8770 TIP3 H1   HT     0.417000        1.0080           0
   23551 WT1  8770 TIP3 H2   HT     0.417000        1.0080           0
   23552 WT1  8771 TIP3 OH2  OT    -0.834000       15.9994           0
   23553 WT1  8771 TIP3 H1   HT     0.417000        1.0080           0
   23554 WT1  8771 TIP3 H2   HT     0.417000        1.0080           0
   23555 WT1  8772 TIP3 OH2  OT    -0.834000       15.9994           0
   23556 WT1  8772 TIP3 H1   HT     0.417000        1.0080           0
   23557 WT1  8772 TIP3 H2   HT     0.417000        1.0080           0
   23558 WT1  8774 TIP3 OH2  OT    -0.834000       15.9994           0
   23559 WT1  8774 TIP3 H1   HT     0.417000        1.0080           0
   23560 WT1  8774 TIP3 H2   HT     0.417000        1.0080           0
   23561 WT1  8775 TIP3 OH2  OT    -0.834000       15.9994           0
   23562 WT1  8775 TIP3 H1   HT     0.417000        1.0080           0
   23563 WT1  8775 TIP3 H2   HT     0.417000        1.0080           0
   23564 WT1  8777 TIP3 OH2  OT    -0.834000       15.9994           0
   23565 WT1  8777 TIP3 H1   HT     0.417000        1.0080           0
   23566 WT1  8777 TIP3 H2   HT     0.417000        1.0080           0
   23567 WT1  8778 TIP3 OH2  OT    -0.834000       15.9994           0
   23568 WT1  8778 TIP3 H1   HT     0.417000        1.0080           0
   23569 WT1  8778 TIP3 H2   HT     0.417000        1.0080           0
   23570 WT1  8779 TIP3 OH2  OT    -0.834000       15.9994           0
   23571 WT1  8779 TIP3 H1   HT     0.417000        1.0080           0
   23572 WT1  8779 TIP3 H2   HT     0.417000        1.0080           0
   23573 WT1  8780 TIP3 OH2  OT    -0.834000       15.9994           0
   23574 WT1  8780 TIP3 H1   HT     0.417000        1.0080           0
   23575 WT1  8780 TIP3 H2   HT     0.417000        1.0080           0
   23576 WT1  8781 TIP3 OH2  OT    -0.834000       15.9994           0
   23577 WT1  8781 TIP3 H1   HT     0.417000        1.0080           0
   23578 WT1  8781 TIP3 H2   HT     0.417000        1.0080           0
   23579 WT1  8782 TIP3 OH2  OT    -0.834000       15.9994           0
   23580 WT1  8782 TIP3 H1   HT     0.417000        1.0080           0
   23581 WT1  8782 TIP3 H2   HT     0.417000        1.0080           0
   23582 WT1  8783 TIP3 OH2  OT    -0.834000       15.9994           0
   23583 WT1  8783 TIP3 H1   HT     0.417000        1.0080           0
   23584 WT1  8783 TIP3 H2   HT     0.417000        1.0080           0
   23585 WT1  8784 TIP3 OH2  OT    -0.834000       15.9994           0
   23586 WT1  8784 TIP3 H1   HT     0.417000        1.0080           0
   23587 WT1  8784 TIP3 H2   HT     0.417000        1.0080           0
   23588 WT1  8785 TIP3 OH2  OT    -0.834000       15.9994           0
   23589 WT1  8785 TIP3 H1   HT     0.417000        1.0080           0
   23590 WT1  8785 TIP3 H2   HT     0.417000        1.0080           0
   23591 WT1  8786 TIP3 OH2  OT    -0.834000       15.9994           0
   23592 WT1  8786 TIP3 H1   HT     0.417000        1.0080           0
   23593 WT1  8786 TIP3 H2   HT     0.417000        1.0080           0
   23594 WT1  8787 TIP3 OH2  OT    -0.834000       15.9994           0
   23595 WT1  8787 TIP3 H1   HT     0.417000        1.0080           0
   23596 WT1  8787 TIP3 H2   HT     0.417000        1.0080           0
   23597 WT1  8788 TIP3 OH2  OT    -0.834000       15.9994           0
   23598 WT1  8788 TIP3 H1   HT     0.417000        1.0080           0
   23599 WT1  8788 TIP3 H2   HT     0.417000        1.0080           0
   23600 WT1  8789 TIP3 OH2  OT    -0.834000       15.9994           0
   23601 WT1  8789 TIP3 H1   HT     0.417000        1.0080           0
   23602 WT1  8789 TIP3 H2   HT     0.417000        1.0080           0
   23603 WT1  8790 TIP3 OH2  OT    -0.834000       15.9994           0
   23604 WT1  8790 TIP3 H1   HT     0.417000        1.0080           0
   23605 WT1  8790 TIP3 H2   HT     0.417000        1.0080           0
   23606 WT1  8791 TIP3 OH2  OT    -0.834000       15.9994           0
   23607 WT1  8791 TIP3 H1   HT     0.417000        1.0080           0
   23608 WT1  8791 TIP3 H2   HT     0.417000        1.0080           0
   23609 WT1  8793 TIP3 OH2  OT    -0.834000       15.9994           0
   23610 WT1  8793 TIP3 H1   HT     0.417000        1.0080           0
   23611 WT1  8793 TIP3 H2   HT     0.417000        1.0080           0
   23612 WT1  8794 TIP3 OH2  OT    -0.834000       15.9994           0
   23613 WT1  8794 TIP3 H1   HT     0.417000        1.0080           0
   23614 WT1  8794 TIP3 H2   HT     0.417000        1.0080           0
   23615 WT1  8795 TIP3 OH2  OT    -0.834000       15.9994           0
   23616 WT1  8795 TIP3 H1   HT     0.417000        1.0080           0
   23617 WT1  8795 TIP3 H2   HT     0.417000        1.0080           0
   23618 WT1  8796 TIP3 OH2  OT    -0.834000       15.9994           0
   23619 WT1  8796 TIP3 H1   HT     0.417000        1.0080           0
   23620 WT1  8796 TIP3 H2   HT     0.417000        1.0080           0
   23621 WT1  8797 TIP3 OH2  OT    -0.834000       15.9994           0
   23622 WT1  8797 TIP3 H1   HT     0.417000        1.0080           0
   23623 WT1  8797 TIP3 H2   HT     0.417000        1.0080           0
   23624 WT1  8798 TIP3 OH2  OT    -0.834000       15.9994           0
   23625 WT1  8798 TIP3 H1   HT     0.417000        1.0080           0
   23626 WT1  8798 TIP3 H2   HT     0.417000        1.0080           0
   23627 WT1  8799 TIP3 OH2  OT    -0.834000       15.9994           0
   23628 WT1  8799 TIP3 H1   HT     0.417000        1.0080           0
   23629 WT1  8799 TIP3 H2   HT     0.417000        1.0080           0
   23630 WT1  8801 TIP3 OH2  OT    -0.834000       15.9994           0
   23631 WT1  8801 TIP3 H1   HT     0.417000        1.0080           0
   23632 WT1  8801 TIP3 H2   HT     0.417000        1.0080           0
   23633 WT1  8802 TIP3 OH2  OT    -0.834000       15.9994           0
   23634 WT1  8802 TIP3 H1   HT     0.417000        1.0080           0
   23635 WT1  8802 TIP3 H2   HT     0.417000        1.0080           0
   23636 WT1  8803 TIP3 OH2  OT    -0.834000       15.9994           0
   23637 WT1  8803 TIP3 H1   HT     0.417000        1.0080           0
   23638 WT1  8803 TIP3 H2   HT     0.417000        1.0080           0
   23639 WT1  8804 TIP3 OH2  OT    -0.834000       15.9994           0
   23640 WT1  8804 TIP3 H1   HT     0.417000        1.0080           0
   23641 WT1  8804 TIP3 H2   HT     0.417000        1.0080           0
   23642 WT1  8805 TIP3 OH2  OT    -0.834000       15.9994           0
   23643 WT1  8805 TIP3 H1   HT     0.417000        1.0080           0
   23644 WT1  8805 TIP3 H2   HT     0.417000        1.0080           0
   23645 WT1  8806 TIP3 OH2  OT    -0.834000       15.9994           0
   23646 WT1  8806 TIP3 H1   HT     0.417000        1.0080           0
   23647 WT1  8806 TIP3 H2   HT     0.417000        1.0080           0
   23648 WT1  8808 TIP3 OH2  OT    -0.834000       15.9994           0
   23649 WT1  8808 TIP3 H1   HT     0.417000        1.0080           0
   23650 WT1  8808 TIP3 H2   HT     0.417000        1.0080           0
   23651 WT1  8809 TIP3 OH2  OT    -0.834000       15.9994           0
   23652 WT1  8809 TIP3 H1   HT     0.417000        1.0080           0
   23653 WT1  8809 TIP3 H2   HT     0.417000        1.0080           0
   23654 WT1  8810 TIP3 OH2  OT    -0.834000       15.9994           0
   23655 WT1  8810 TIP3 H1   HT     0.417000        1.0080           0
   23656 WT1  8810 TIP3 H2   HT     0.417000        1.0080           0
   23657 WT1  8812 TIP3 OH2  OT    -0.834000       15.9994           0
   23658 WT1  8812 TIP3 H1   HT     0.417000        1.0080           0
   23659 WT1  8812 TIP3 H2   HT     0.417000        1.0080           0
   23660 WT1  8813 TIP3 OH2  OT    -0.834000       15.9994           0
   23661 WT1  8813 TIP3 H1   HT     0.417000        1.0080           0
   23662 WT1  8813 TIP3 H2   HT     0.417000        1.0080           0
   23663 WT1  8814 TIP3 OH2  OT    -0.834000       15.9994           0
   23664 WT1  8814 TIP3 H1   HT     0.417000        1.0080           0
   23665 WT1  8814 TIP3 H2   HT     0.417000        1.0080           0
   23666 WT1  8815 TIP3 OH2  OT    -0.834000       15.9994           0
   23667 WT1  8815 TIP3 H1   HT     0.417000        1.0080           0
   23668 WT1  8815 TIP3 H2   HT     0.417000        1.0080           0
   23669 WT1  8816 TIP3 OH2  OT    -0.834000       15.9994           0
   23670 WT1  8816 TIP3 H1   HT     0.417000        1.0080           0
   23671 WT1  8816 TIP3 H2   HT     0.417000        1.0080           0
   23672 WT1  8817 TIP3 OH2  OT    -0.834000       15.9994           0
   23673 WT1  8817 TIP3 H1   HT     0.417000        1.0080           0
   23674 WT1  8817 TIP3 H2   HT     0.417000        1.0080           0
   23675 WT1  8818 TIP3 OH2  OT    -0.834000       15.9994           0
   23676 WT1  8818 TIP3 H1   HT     0.417000        1.0080           0
   23677 WT1  8818 TIP3 H2   HT     0.417000        1.0080           0
   23678 WT1  8819 TIP3 OH2  OT    -0.834000       15.9994           0
   23679 WT1  8819 TIP3 H1   HT     0.417000        1.0080           0
   23680 WT1  8819 TIP3 H2   HT     0.417000        1.0080           0
   23681 WT1  8820 TIP3 OH2  OT    -0.834000       15.9994           0
   23682 WT1  8820 TIP3 H1   HT     0.417000        1.0080           0
   23683 WT1  8820 TIP3 H2   HT     0.417000        1.0080           0
   23684 WT1  8821 TIP3 OH2  OT    -0.834000       15.9994           0
   23685 WT1  8821 TIP3 H1   HT     0.417000        1.0080           0
   23686 WT1  8821 TIP3 H2   HT     0.417000        1.0080           0
   23687 WT1  8822 TIP3 OH2  OT    -0.834000       15.9994           0
   23688 WT1  8822 TIP3 H1   HT     0.417000        1.0080           0
   23689 WT1  8822 TIP3 H2   HT     0.417000        1.0080           0
   23690 WT1  8823 TIP3 OH2  OT    -0.834000       15.9994           0
   23691 WT1  8823 TIP3 H1   HT     0.417000        1.0080           0
   23692 WT1  8823 TIP3 H2   HT     0.417000        1.0080           0
   23693 WT1  8824 TIP3 OH2  OT    -0.834000       15.9994           0
   23694 WT1  8824 TIP3 H1   HT     0.417000        1.0080           0
   23695 WT1  8824 TIP3 H2   HT     0.417000        1.0080           0
   23696 WT1  8825 TIP3 OH2  OT    -0.834000       15.9994           0
   23697 WT1  8825 TIP3 H1   HT     0.417000        1.0080           0
   23698 WT1  8825 TIP3 H2   HT     0.417000        1.0080           0
   23699 WT1  8828 TIP3 OH2  OT    -0.834000       15.9994           0
   23700 WT1  8828 TIP3 H1   HT     0.417000        1.0080           0
   23701 WT1  8828 TIP3 H2   HT     0.417000        1.0080           0
   23702 WT1  8829 TIP3 OH2  OT    -0.834000       15.9994           0
   23703 WT1  8829 TIP3 H1   HT     0.417000        1.0080           0
   23704 WT1  8829 TIP3 H2   HT     0.417000        1.0080           0
   23705 WT1  8830 TIP3 OH2  OT    -0.834000       15.9994           0
   23706 WT1  8830 TIP3 H1   HT     0.417000        1.0080           0
   23707 WT1  8830 TIP3 H2   HT     0.417000        1.0080           0
   23708 WT1  8832 TIP3 OH2  OT    -0.834000       15.9994           0
   23709 WT1  8832 TIP3 H1   HT     0.417000        1.0080           0
   23710 WT1  8832 TIP3 H2   HT     0.417000        1.0080           0
   23711 WT1  8833 TIP3 OH2  OT    -0.834000       15.9994           0
   23712 WT1  8833 TIP3 H1   HT     0.417000        1.0080           0
   23713 WT1  8833 TIP3 H2   HT     0.417000        1.0080           0
   23714 WT1  8834 TIP3 OH2  OT    -0.834000       15.9994           0
   23715 WT1  8834 TIP3 H1   HT     0.417000        1.0080           0
   23716 WT1  8834 TIP3 H2   HT     0.417000        1.0080           0
   23717 WT1  8835 TIP3 OH2  OT    -0.834000       15.9994           0
   23718 WT1  8835 TIP3 H1   HT     0.417000        1.0080           0
   23719 WT1  8835 TIP3 H2   HT     0.417000        1.0080           0
   23720 WT1  8836 TIP3 OH2  OT    -0.834000       15.9994           0
   23721 WT1  8836 TIP3 H1   HT     0.417000        1.0080           0
   23722 WT1  8836 TIP3 H2   HT     0.417000        1.0080           0
   23723 WT1  8837 TIP3 OH2  OT    -0.834000       15.9994           0
   23724 WT1  8837 TIP3 H1   HT     0.417000        1.0080           0
   23725 WT1  8837 TIP3 H2   HT     0.417000        1.0080           0
   23726 WT1  8839 TIP3 OH2  OT    -0.834000       15.9994           0
   23727 WT1  8839 TIP3 H1   HT     0.417000        1.0080           0
   23728 WT1  8839 TIP3 H2   HT     0.417000        1.0080           0
   23729 WT1  8840 TIP3 OH2  OT    -0.834000       15.9994           0
   23730 WT1  8840 TIP3 H1   HT     0.417000        1.0080           0
   23731 WT1  8840 TIP3 H2   HT     0.417000        1.0080           0
   23732 WT1  8841 TIP3 OH2  OT    -0.834000       15.9994           0
   23733 WT1  8841 TIP3 H1   HT     0.417000        1.0080           0
   23734 WT1  8841 TIP3 H2   HT     0.417000        1.0080           0
   23735 WT1  8843 TIP3 OH2  OT    -0.834000       15.9994           0
   23736 WT1  8843 TIP3 H1   HT     0.417000        1.0080           0
   23737 WT1  8843 TIP3 H2   HT     0.417000        1.0080           0
   23738 WT1  8844 TIP3 OH2  OT    -0.834000       15.9994           0
   23739 WT1  8844 TIP3 H1   HT     0.417000        1.0080           0
   23740 WT1  8844 TIP3 H2   HT     0.417000        1.0080           0
   23741 WT1  8845 TIP3 OH2  OT    -0.834000       15.9994           0
   23742 WT1  8845 TIP3 H1   HT     0.417000        1.0080           0
   23743 WT1  8845 TIP3 H2   HT     0.417000        1.0080           0
   23744 WT1  8846 TIP3 OH2  OT    -0.834000       15.9994           0
   23745 WT1  8846 TIP3 H1   HT     0.417000        1.0080           0
   23746 WT1  8846 TIP3 H2   HT     0.417000        1.0080           0
   23747 WT1  8847 TIP3 OH2  OT    -0.834000       15.9994           0
   23748 WT1  8847 TIP3 H1   HT     0.417000        1.0080           0
   23749 WT1  8847 TIP3 H2   HT     0.417000        1.0080           0
   23750 WT1  8848 TIP3 OH2  OT    -0.834000       15.9994           0
   23751 WT1  8848 TIP3 H1   HT     0.417000        1.0080           0
   23752 WT1  8848 TIP3 H2   HT     0.417000        1.0080           0
   23753 WT1  8849 TIP3 OH2  OT    -0.834000       15.9994           0
   23754 WT1  8849 TIP3 H1   HT     0.417000        1.0080           0
   23755 WT1  8849 TIP3 H2   HT     0.417000        1.0080           0
   23756 WT1  8850 TIP3 OH2  OT    -0.834000       15.9994           0
   23757 WT1  8850 TIP3 H1   HT     0.417000        1.0080           0
   23758 WT1  8850 TIP3 H2   HT     0.417000        1.0080           0
   23759 WT1  8851 TIP3 OH2  OT    -0.834000       15.9994           0
   23760 WT1  8851 TIP3 H1   HT     0.417000        1.0080           0
   23761 WT1  8851 TIP3 H2   HT     0.417000        1.0080           0
   23762 WT1  8852 TIP3 OH2  OT    -0.834000       15.9994           0
   23763 WT1  8852 TIP3 H1   HT     0.417000        1.0080           0
   23764 WT1  8852 TIP3 H2   HT     0.417000        1.0080           0
   23765 WT1  8853 TIP3 OH2  OT    -0.834000       15.9994           0
   23766 WT1  8853 TIP3 H1   HT     0.417000        1.0080           0
   23767 WT1  8853 TIP3 H2   HT     0.417000        1.0080           0
   23768 WT1  8854 TIP3 OH2  OT    -0.834000       15.9994           0
   23769 WT1  8854 TIP3 H1   HT     0.417000        1.0080           0
   23770 WT1  8854 TIP3 H2   HT     0.417000        1.0080           0
   23771 WT1  8855 TIP3 OH2  OT    -0.834000       15.9994           0
   23772 WT1  8855 TIP3 H1   HT     0.417000        1.0080           0
   23773 WT1  8855 TIP3 H2   HT     0.417000        1.0080           0
   23774 WT1  8857 TIP3 OH2  OT    -0.834000       15.9994           0
   23775 WT1  8857 TIP3 H1   HT     0.417000        1.0080           0
   23776 WT1  8857 TIP3 H2   HT     0.417000        1.0080           0
   23777 WT1  8858 TIP3 OH2  OT    -0.834000       15.9994           0
   23778 WT1  8858 TIP3 H1   HT     0.417000        1.0080           0
   23779 WT1  8858 TIP3 H2   HT     0.417000        1.0080           0
   23780 WT1  8859 TIP3 OH2  OT    -0.834000       15.9994           0
   23781 WT1  8859 TIP3 H1   HT     0.417000        1.0080           0
   23782 WT1  8859 TIP3 H2   HT     0.417000        1.0080           0
   23783 WT1  8860 TIP3 OH2  OT    -0.834000       15.9994           0
   23784 WT1  8860 TIP3 H1   HT     0.417000        1.0080           0
   23785 WT1  8860 TIP3 H2   HT     0.417000        1.0080           0
   23786 WT1  8861 TIP3 OH2  OT    -0.834000       15.9994           0
   23787 WT1  8861 TIP3 H1   HT     0.417000        1.0080           0
   23788 WT1  8861 TIP3 H2   HT     0.417000        1.0080           0
   23789 WT1  8862 TIP3 OH2  OT    -0.834000       15.9994           0
   23790 WT1  8862 TIP3 H1   HT     0.417000        1.0080           0
   23791 WT1  8862 TIP3 H2   HT     0.417000        1.0080           0
   23792 WT1  8863 TIP3 OH2  OT    -0.834000       15.9994           0
   23793 WT1  8863 TIP3 H1   HT     0.417000        1.0080           0
   23794 WT1  8863 TIP3 H2   HT     0.417000        1.0080           0
   23795 WT1  8865 TIP3 OH2  OT    -0.834000       15.9994           0
   23796 WT1  8865 TIP3 H1   HT     0.417000        1.0080           0
   23797 WT1  8865 TIP3 H2   HT     0.417000        1.0080           0
   23798 WT1  8866 TIP3 OH2  OT    -0.834000       15.9994           0
   23799 WT1  8866 TIP3 H1   HT     0.417000        1.0080           0
   23800 WT1  8866 TIP3 H2   HT     0.417000        1.0080           0
   23801 WT1  8867 TIP3 OH2  OT    -0.834000       15.9994           0
   23802 WT1  8867 TIP3 H1   HT     0.417000        1.0080           0
   23803 WT1  8867 TIP3 H2   HT     0.417000        1.0080           0
   23804 WT1  8868 TIP3 OH2  OT    -0.834000       15.9994           0
   23805 WT1  8868 TIP3 H1   HT     0.417000        1.0080           0
   23806 WT1  8868 TIP3 H2   HT     0.417000        1.0080           0
   23807 WT1  8869 TIP3 OH2  OT    -0.834000       15.9994           0
   23808 WT1  8869 TIP3 H1   HT     0.417000        1.0080           0
   23809 WT1  8869 TIP3 H2   HT     0.417000        1.0080           0
   23810 WT1  8870 TIP3 OH2  OT    -0.834000       15.9994           0
   23811 WT1  8870 TIP3 H1   HT     0.417000        1.0080           0
   23812 WT1  8870 TIP3 H2   HT     0.417000        1.0080           0
   23813 WT1  8871 TIP3 OH2  OT    -0.834000       15.9994           0
   23814 WT1  8871 TIP3 H1   HT     0.417000        1.0080           0
   23815 WT1  8871 TIP3 H2   HT     0.417000        1.0080           0
   23816 WT1  8872 TIP3 OH2  OT    -0.834000       15.9994           0
   23817 WT1  8872 TIP3 H1   HT     0.417000        1.0080           0
   23818 WT1  8872 TIP3 H2   HT     0.417000        1.0080           0
   23819 WT1  8873 TIP3 OH2  OT    -0.834000       15.9994           0
   23820 WT1  8873 TIP3 H1   HT     0.417000        1.0080           0
   23821 WT1  8873 TIP3 H2   HT     0.417000        1.0080           0
   23822 WT1  8874 TIP3 OH2  OT    -0.834000       15.9994           0
   23823 WT1  8874 TIP3 H1   HT     0.417000        1.0080           0
   23824 WT1  8874 TIP3 H2   HT     0.417000        1.0080           0
   23825 WT1  8875 TIP3 OH2  OT    -0.834000       15.9994           0
   23826 WT1  8875 TIP3 H1   HT     0.417000        1.0080           0
   23827 WT1  8875 TIP3 H2   HT     0.417000        1.0080           0
   23828 WT1  8876 TIP3 OH2  OT    -0.834000       15.9994           0
   23829 WT1  8876 TIP3 H1   HT     0.417000        1.0080           0
   23830 WT1  8876 TIP3 H2   HT     0.417000        1.0080           0
   23831 WT1  8877 TIP3 OH2  OT    -0.834000       15.9994           0
   23832 WT1  8877 TIP3 H1   HT     0.417000        1.0080           0
   23833 WT1  8877 TIP3 H2   HT     0.417000        1.0080           0
   23834 WT1  8878 TIP3 OH2  OT    -0.834000       15.9994           0
   23835 WT1  8878 TIP3 H1   HT     0.417000        1.0080           0
   23836 WT1  8878 TIP3 H2   HT     0.417000        1.0080           0
   23837 WT1  8879 TIP3 OH2  OT    -0.834000       15.9994           0
   23838 WT1  8879 TIP3 H1   HT     0.417000        1.0080           0
   23839 WT1  8879 TIP3 H2   HT     0.417000        1.0080           0
   23840 WT1  8880 TIP3 OH2  OT    -0.834000       15.9994           0
   23841 WT1  8880 TIP3 H1   HT     0.417000        1.0080           0
   23842 WT1  8880 TIP3 H2   HT     0.417000        1.0080           0
   23843 WT1  8881 TIP3 OH2  OT    -0.834000       15.9994           0
   23844 WT1  8881 TIP3 H1   HT     0.417000        1.0080           0
   23845 WT1  8881 TIP3 H2   HT     0.417000        1.0080           0
   23846 WT1  8882 TIP3 OH2  OT    -0.834000       15.9994           0
   23847 WT1  8882 TIP3 H1   HT     0.417000        1.0080           0
   23848 WT1  8882 TIP3 H2   HT     0.417000        1.0080           0
   23849 WT1  8883 TIP3 OH2  OT    -0.834000       15.9994           0
   23850 WT1  8883 TIP3 H1   HT     0.417000        1.0080           0
   23851 WT1  8883 TIP3 H2   HT     0.417000        1.0080           0
   23852 WT1  8885 TIP3 OH2  OT    -0.834000       15.9994           0
   23853 WT1  8885 TIP3 H1   HT     0.417000        1.0080           0
   23854 WT1  8885 TIP3 H2   HT     0.417000        1.0080           0
   23855 WT1  8887 TIP3 OH2  OT    -0.834000       15.9994           0
   23856 WT1  8887 TIP3 H1   HT     0.417000        1.0080           0
   23857 WT1  8887 TIP3 H2   HT     0.417000        1.0080           0
   23858 WT1  8888 TIP3 OH2  OT    -0.834000       15.9994           0
   23859 WT1  8888 TIP3 H1   HT     0.417000        1.0080           0
   23860 WT1  8888 TIP3 H2   HT     0.417000        1.0080           0
   23861 WT1  8889 TIP3 OH2  OT    -0.834000       15.9994           0
   23862 WT1  8889 TIP3 H1   HT     0.417000        1.0080           0
   23863 WT1  8889 TIP3 H2   HT     0.417000        1.0080           0
   23864 WT1  8891 TIP3 OH2  OT    -0.834000       15.9994           0
   23865 WT1  8891 TIP3 H1   HT     0.417000        1.0080           0
   23866 WT1  8891 TIP3 H2   HT     0.417000        1.0080           0
   23867 WT1  8893 TIP3 OH2  OT    -0.834000       15.9994           0
   23868 WT1  8893 TIP3 H1   HT     0.417000        1.0080           0
   23869 WT1  8893 TIP3 H2   HT     0.417000        1.0080           0
   23870 WT1  8894 TIP3 OH2  OT    -0.834000       15.9994           0
   23871 WT1  8894 TIP3 H1   HT     0.417000        1.0080           0
   23872 WT1  8894 TIP3 H2   HT     0.417000        1.0080           0
   23873 WT1  8895 TIP3 OH2  OT    -0.834000       15.9994           0
   23874 WT1  8895 TIP3 H1   HT     0.417000        1.0080           0
   23875 WT1  8895 TIP3 H2   HT     0.417000        1.0080           0
   23876 WT1  8897 TIP3 OH2  OT    -0.834000       15.9994           0
   23877 WT1  8897 TIP3 H1   HT     0.417000        1.0080           0
   23878 WT1  8897 TIP3 H2   HT     0.417000        1.0080           0
   23879 WT1  8898 TIP3 OH2  OT    -0.834000       15.9994           0
   23880 WT1  8898 TIP3 H1   HT     0.417000        1.0080           0
   23881 WT1  8898 TIP3 H2   HT     0.417000        1.0080           0
   23882 WT1  8900 TIP3 OH2  OT    -0.834000       15.9994           0
   23883 WT1  8900 TIP3 H1   HT     0.417000        1.0080           0
   23884 WT1  8900 TIP3 H2   HT     0.417000        1.0080           0
   23885 WT1  8901 TIP3 OH2  OT    -0.834000       15.9994           0
   23886 WT1  8901 TIP3 H1   HT     0.417000        1.0080           0
   23887 WT1  8901 TIP3 H2   HT     0.417000        1.0080           0
   23888 WT1  8902 TIP3 OH2  OT    -0.834000       15.9994           0
   23889 WT1  8902 TIP3 H1   HT     0.417000        1.0080           0
   23890 WT1  8902 TIP3 H2   HT     0.417000        1.0080           0
   23891 WT1  8905 TIP3 OH2  OT    -0.834000       15.9994           0
   23892 WT1  8905 TIP3 H1   HT     0.417000        1.0080           0
   23893 WT1  8905 TIP3 H2   HT     0.417000        1.0080           0
   23894 WT1  8906 TIP3 OH2  OT    -0.834000       15.9994           0
   23895 WT1  8906 TIP3 H1   HT     0.417000        1.0080           0
   23896 WT1  8906 TIP3 H2   HT     0.417000        1.0080           0
   23897 WT1  8907 TIP3 OH2  OT    -0.834000       15.9994           0
   23898 WT1  8907 TIP3 H1   HT     0.417000        1.0080           0
   23899 WT1  8907 TIP3 H2   HT     0.417000        1.0080           0
   23900 WT1  8908 TIP3 OH2  OT    -0.834000       15.9994           0
   23901 WT1  8908 TIP3 H1   HT     0.417000        1.0080           0
   23902 WT1  8908 TIP3 H2   HT     0.417000        1.0080           0
   23903 WT1  8909 TIP3 OH2  OT    -0.834000       15.9994           0
   23904 WT1  8909 TIP3 H1   HT     0.417000        1.0080           0
   23905 WT1  8909 TIP3 H2   HT     0.417000        1.0080           0
   23906 WT1  8910 TIP3 OH2  OT    -0.834000       15.9994           0
   23907 WT1  8910 TIP3 H1   HT     0.417000        1.0080           0
   23908 WT1  8910 TIP3 H2   HT     0.417000        1.0080           0
   23909 WT1  8912 TIP3 OH2  OT    -0.834000       15.9994           0
   23910 WT1  8912 TIP3 H1   HT     0.417000        1.0080           0
   23911 WT1  8912 TIP3 H2   HT     0.417000        1.0080           0
   23912 WT1  8914 TIP3 OH2  OT    -0.834000       15.9994           0
   23913 WT1  8914 TIP3 H1   HT     0.417000        1.0080           0
   23914 WT1  8914 TIP3 H2   HT     0.417000        1.0080           0
   23915 WT1  8915 TIP3 OH2  OT    -0.834000       15.9994           0
   23916 WT1  8915 TIP3 H1   HT     0.417000        1.0080           0
   23917 WT1  8915 TIP3 H2   HT     0.417000        1.0080           0
   23918 WT1  8916 TIP3 OH2  OT    -0.834000       15.9994           0
   23919 WT1  8916 TIP3 H1   HT     0.417000        1.0080           0
   23920 WT1  8916 TIP3 H2   HT     0.417000        1.0080           0
   23921 WT1  8917 TIP3 OH2  OT    -0.834000       15.9994           0
   23922 WT1  8917 TIP3 H1   HT     0.417000        1.0080           0
   23923 WT1  8917 TIP3 H2   HT     0.417000        1.0080           0
   23924 WT1  8918 TIP3 OH2  OT    -0.834000       15.9994           0
   23925 WT1  8918 TIP3 H1   HT     0.417000        1.0080           0
   23926 WT1  8918 TIP3 H2   HT     0.417000        1.0080           0
   23927 WT1  8919 TIP3 OH2  OT    -0.834000       15.9994           0
   23928 WT1  8919 TIP3 H1   HT     0.417000        1.0080           0
   23929 WT1  8919 TIP3 H2   HT     0.417000        1.0080           0
   23930 WT1  8920 TIP3 OH2  OT    -0.834000       15.9994           0
   23931 WT1  8920 TIP3 H1   HT     0.417000        1.0080           0
   23932 WT1  8920 TIP3 H2   HT     0.417000        1.0080           0
   23933 WT1  8921 TIP3 OH2  OT    -0.834000       15.9994           0
   23934 WT1  8921 TIP3 H1   HT     0.417000        1.0080           0
   23935 WT1  8921 TIP3 H2   HT     0.417000        1.0080           0
   23936 WT1  8922 TIP3 OH2  OT    -0.834000       15.9994           0
   23937 WT1  8922 TIP3 H1   HT     0.417000        1.0080           0
   23938 WT1  8922 TIP3 H2   HT     0.417000        1.0080           0
   23939 WT1  8923 TIP3 OH2  OT    -0.834000       15.9994           0
   23940 WT1  8923 TIP3 H1   HT     0.417000        1.0080           0
   23941 WT1  8923 TIP3 H2   HT     0.417000        1.0080           0
   23942 WT1  8924 TIP3 OH2  OT    -0.834000       15.9994           0
   23943 WT1  8924 TIP3 H1   HT     0.417000        1.0080           0
   23944 WT1  8924 TIP3 H2   HT     0.417000        1.0080           0
   23945 WT1  8926 TIP3 OH2  OT    -0.834000       15.9994           0
   23946 WT1  8926 TIP3 H1   HT     0.417000        1.0080           0
   23947 WT1  8926 TIP3 H2   HT     0.417000        1.0080           0
   23948 WT1  8928 TIP3 OH2  OT    -0.834000       15.9994           0
   23949 WT1  8928 TIP3 H1   HT     0.417000        1.0080           0
   23950 WT1  8928 TIP3 H2   HT     0.417000        1.0080           0
   23951 WT1  8929 TIP3 OH2  OT    -0.834000       15.9994           0
   23952 WT1  8929 TIP3 H1   HT     0.417000        1.0080           0
   23953 WT1  8929 TIP3 H2   HT     0.417000        1.0080           0
   23954 WT1  8930 TIP3 OH2  OT    -0.834000       15.9994           0
   23955 WT1  8930 TIP3 H1   HT     0.417000        1.0080           0
   23956 WT1  8930 TIP3 H2   HT     0.417000        1.0080           0
   23957 WT1  8931 TIP3 OH2  OT    -0.834000       15.9994           0
   23958 WT1  8931 TIP3 H1   HT     0.417000        1.0080           0
   23959 WT1  8931 TIP3 H2   HT     0.417000        1.0080           0
   23960 WT1  8932 TIP3 OH2  OT    -0.834000       15.9994           0
   23961 WT1  8932 TIP3 H1   HT     0.417000        1.0080           0
   23962 WT1  8932 TIP3 H2   HT     0.417000        1.0080           0
   23963 WT1  8934 TIP3 OH2  OT    -0.834000       15.9994           0
   23964 WT1  8934 TIP3 H1   HT     0.417000        1.0080           0
   23965 WT1  8934 TIP3 H2   HT     0.417000        1.0080           0
   23966 WT1  8935 TIP3 OH2  OT    -0.834000       15.9994           0
   23967 WT1  8935 TIP3 H1   HT     0.417000        1.0080           0
   23968 WT1  8935 TIP3 H2   HT     0.417000        1.0080           0
   23969 WT1  8936 TIP3 OH2  OT    -0.834000       15.9994           0
   23970 WT1  8936 TIP3 H1   HT     0.417000        1.0080           0
   23971 WT1  8936 TIP3 H2   HT     0.417000        1.0080           0
   23972 WT1  8937 TIP3 OH2  OT    -0.834000       15.9994           0
   23973 WT1  8937 TIP3 H1   HT     0.417000        1.0080           0
   23974 WT1  8937 TIP3 H2   HT     0.417000        1.0080           0
   23975 WT1  8938 TIP3 OH2  OT    -0.834000       15.9994           0
   23976 WT1  8938 TIP3 H1   HT     0.417000        1.0080           0
   23977 WT1  8938 TIP3 H2   HT     0.417000        1.0080           0
   23978 WT1  8941 TIP3 OH2  OT    -0.834000       15.9994           0
   23979 WT1  8941 TIP3 H1   HT     0.417000        1.0080           0
   23980 WT1  8941 TIP3 H2   HT     0.417000        1.0080           0
   23981 WT1  8943 TIP3 OH2  OT    -0.834000       15.9994           0
   23982 WT1  8943 TIP3 H1   HT     0.417000        1.0080           0
   23983 WT1  8943 TIP3 H2   HT     0.417000        1.0080           0
   23984 WT1  8944 TIP3 OH2  OT    -0.834000       15.9994           0
   23985 WT1  8944 TIP3 H1   HT     0.417000        1.0080           0
   23986 WT1  8944 TIP3 H2   HT     0.417000        1.0080           0
   23987 WT1  8946 TIP3 OH2  OT    -0.834000       15.9994           0
   23988 WT1  8946 TIP3 H1   HT     0.417000        1.0080           0
   23989 WT1  8946 TIP3 H2   HT     0.417000        1.0080           0
   23990 WT1  8947 TIP3 OH2  OT    -0.834000       15.9994           0
   23991 WT1  8947 TIP3 H1   HT     0.417000        1.0080           0
   23992 WT1  8947 TIP3 H2   HT     0.417000        1.0080           0
   23993 WT1  8948 TIP3 OH2  OT    -0.834000       15.9994           0
   23994 WT1  8948 TIP3 H1   HT     0.417000        1.0080           0
   23995 WT1  8948 TIP3 H2   HT     0.417000        1.0080           0
   23996 WT1  8949 TIP3 OH2  OT    -0.834000       15.9994           0
   23997 WT1  8949 TIP3 H1   HT     0.417000        1.0080           0
   23998 WT1  8949 TIP3 H2   HT     0.417000        1.0080           0
   23999 WT1  8950 TIP3 OH2  OT    -0.834000       15.9994           0
   24000 WT1  8950 TIP3 H1   HT     0.417000        1.0080           0
   24001 WT1  8950 TIP3 H2   HT     0.417000        1.0080           0
   24002 WT1  8951 TIP3 OH2  OT    -0.834000       15.9994           0
   24003 WT1  8951 TIP3 H1   HT     0.417000        1.0080           0
   24004 WT1  8951 TIP3 H2   HT     0.417000        1.0080           0
   24005 WT1  8952 TIP3 OH2  OT    -0.834000       15.9994           0
   24006 WT1  8952 TIP3 H1   HT     0.417000        1.0080           0
   24007 WT1  8952 TIP3 H2   HT     0.417000        1.0080           0
   24008 WT1  8954 TIP3 OH2  OT    -0.834000       15.9994           0
   24009 WT1  8954 TIP3 H1   HT     0.417000        1.0080           0
   24010 WT1  8954 TIP3 H2   HT     0.417000        1.0080           0
   24011 WT1  8955 TIP3 OH2  OT    -0.834000       15.9994           0
   24012 WT1  8955 TIP3 H1   HT     0.417000        1.0080           0
   24013 WT1  8955 TIP3 H2   HT     0.417000        1.0080           0
   24014 WT1  8957 TIP3 OH2  OT    -0.834000       15.9994           0
   24015 WT1  8957 TIP3 H1   HT     0.417000        1.0080           0
   24016 WT1  8957 TIP3 H2   HT     0.417000        1.0080           0
   24017 WT1  8958 TIP3 OH2  OT    -0.834000       15.9994           0
   24018 WT1  8958 TIP3 H1   HT     0.417000        1.0080           0
   24019 WT1  8958 TIP3 H2   HT     0.417000        1.0080           0
   24020 WT1  8959 TIP3 OH2  OT    -0.834000       15.9994           0
   24021 WT1  8959 TIP3 H1   HT     0.417000        1.0080           0
   24022 WT1  8959 TIP3 H2   HT     0.417000        1.0080           0
   24023 WT1  8960 TIP3 OH2  OT    -0.834000       15.9994           0
   24024 WT1  8960 TIP3 H1   HT     0.417000        1.0080           0
   24025 WT1  8960 TIP3 H2   HT     0.417000        1.0080           0
   24026 WT1  8961 TIP3 OH2  OT    -0.834000       15.9994           0
   24027 WT1  8961 TIP3 H1   HT     0.417000        1.0080           0
   24028 WT1  8961 TIP3 H2   HT     0.417000        1.0080           0
   24029 WT1  8962 TIP3 OH2  OT    -0.834000       15.9994           0
   24030 WT1  8962 TIP3 H1   HT     0.417000        1.0080           0
   24031 WT1  8962 TIP3 H2   HT     0.417000        1.0080           0
   24032 WT1  8963 TIP3 OH2  OT    -0.834000       15.9994           0
   24033 WT1  8963 TIP3 H1   HT     0.417000        1.0080           0
   24034 WT1  8963 TIP3 H2   HT     0.417000        1.0080           0
   24035 WT1  8964 TIP3 OH2  OT    -0.834000       15.9994           0
   24036 WT1  8964 TIP3 H1   HT     0.417000        1.0080           0
   24037 WT1  8964 TIP3 H2   HT     0.417000        1.0080           0
   24038 WT1  8966 TIP3 OH2  OT    -0.834000       15.9994           0
   24039 WT1  8966 TIP3 H1   HT     0.417000        1.0080           0
   24040 WT1  8966 TIP3 H2   HT     0.417000        1.0080           0
   24041 WT1  8967 TIP3 OH2  OT    -0.834000       15.9994           0
   24042 WT1  8967 TIP3 H1   HT     0.417000        1.0080           0
   24043 WT1  8967 TIP3 H2   HT     0.417000        1.0080           0
   24044 WT1  8968 TIP3 OH2  OT    -0.834000       15.9994           0
   24045 WT1  8968 TIP3 H1   HT     0.417000        1.0080           0
   24046 WT1  8968 TIP3 H2   HT     0.417000        1.0080           0
   24047 WT1  8969 TIP3 OH2  OT    -0.834000       15.9994           0
   24048 WT1  8969 TIP3 H1   HT     0.417000        1.0080           0
   24049 WT1  8969 TIP3 H2   HT     0.417000        1.0080           0
   24050 WT1  8970 TIP3 OH2  OT    -0.834000       15.9994           0
   24051 WT1  8970 TIP3 H1   HT     0.417000        1.0080           0
   24052 WT1  8970 TIP3 H2   HT     0.417000        1.0080           0
   24053 WT1  8971 TIP3 OH2  OT    -0.834000       15.9994           0
   24054 WT1  8971 TIP3 H1   HT     0.417000        1.0080           0
   24055 WT1  8971 TIP3 H2   HT     0.417000        1.0080           0
   24056 WT1  8972 TIP3 OH2  OT    -0.834000       15.9994           0
   24057 WT1  8972 TIP3 H1   HT     0.417000        1.0080           0
   24058 WT1  8972 TIP3 H2   HT     0.417000        1.0080           0
   24059 WT1  8973 TIP3 OH2  OT    -0.834000       15.9994           0
   24060 WT1  8973 TIP3 H1   HT     0.417000        1.0080           0
   24061 WT1  8973 TIP3 H2   HT     0.417000        1.0080           0
   24062 WT1  8974 TIP3 OH2  OT    -0.834000       15.9994           0
   24063 WT1  8974 TIP3 H1   HT     0.417000        1.0080           0
   24064 WT1  8974 TIP3 H2   HT     0.417000        1.0080           0
   24065 WT1  8975 TIP3 OH2  OT    -0.834000       15.9994           0
   24066 WT1  8975 TIP3 H1   HT     0.417000        1.0080           0
   24067 WT1  8975 TIP3 H2   HT     0.417000        1.0080           0
   24068 WT1  8976 TIP3 OH2  OT    -0.834000       15.9994           0
   24069 WT1  8976 TIP3 H1   HT     0.417000        1.0080           0
   24070 WT1  8976 TIP3 H2   HT     0.417000        1.0080           0
   24071 WT1  8977 TIP3 OH2  OT    -0.834000       15.9994           0
   24072 WT1  8977 TIP3 H1   HT     0.417000        1.0080           0
   24073 WT1  8977 TIP3 H2   HT     0.417000        1.0080           0
   24074 WT1  8978 TIP3 OH2  OT    -0.834000       15.9994           0
   24075 WT1  8978 TIP3 H1   HT     0.417000        1.0080           0
   24076 WT1  8978 TIP3 H2   HT     0.417000        1.0080           0
   24077 WT1  8979 TIP3 OH2  OT    -0.834000       15.9994           0
   24078 WT1  8979 TIP3 H1   HT     0.417000        1.0080           0
   24079 WT1  8979 TIP3 H2   HT     0.417000        1.0080           0
   24080 WT1  8980 TIP3 OH2  OT    -0.834000       15.9994           0
   24081 WT1  8980 TIP3 H1   HT     0.417000        1.0080           0
   24082 WT1  8980 TIP3 H2   HT     0.417000        1.0080           0
   24083 WT1  8981 TIP3 OH2  OT    -0.834000       15.9994           0
   24084 WT1  8981 TIP3 H1   HT     0.417000        1.0080           0
   24085 WT1  8981 TIP3 H2   HT     0.417000        1.0080           0
   24086 WT1  8983 TIP3 OH2  OT    -0.834000       15.9994           0
   24087 WT1  8983 TIP3 H1   HT     0.417000        1.0080           0
   24088 WT1  8983 TIP3 H2   HT     0.417000        1.0080           0
   24089 WT1  8984 TIP3 OH2  OT    -0.834000       15.9994           0
   24090 WT1  8984 TIP3 H1   HT     0.417000        1.0080           0
   24091 WT1  8984 TIP3 H2   HT     0.417000        1.0080           0
   24092 WT1  8985 TIP3 OH2  OT    -0.834000       15.9994           0
   24093 WT1  8985 TIP3 H1   HT     0.417000        1.0080           0
   24094 WT1  8985 TIP3 H2   HT     0.417000        1.0080           0
   24095 WT1  8986 TIP3 OH2  OT    -0.834000       15.9994           0
   24096 WT1  8986 TIP3 H1   HT     0.417000        1.0080           0
   24097 WT1  8986 TIP3 H2   HT     0.417000        1.0080           0
   24098 WT1  8987 TIP3 OH2  OT    -0.834000       15.9994           0
   24099 WT1  8987 TIP3 H1   HT     0.417000        1.0080           0
   24100 WT1  8987 TIP3 H2   HT     0.417000        1.0080           0
   24101 WT1  8988 TIP3 OH2  OT    -0.834000       15.9994           0
   24102 WT1  8988 TIP3 H1   HT     0.417000        1.0080           0
   24103 WT1  8988 TIP3 H2   HT     0.417000        1.0080           0
   24104 WT1  8989 TIP3 OH2  OT    -0.834000       15.9994           0
   24105 WT1  8989 TIP3 H1   HT     0.417000        1.0080           0
   24106 WT1  8989 TIP3 H2   HT     0.417000        1.0080           0
   24107 WT1  8990 TIP3 OH2  OT    -0.834000       15.9994           0
   24108 WT1  8990 TIP3 H1   HT     0.417000        1.0080           0
   24109 WT1  8990 TIP3 H2   HT     0.417000        1.0080           0
   24110 WT1  8991 TIP3 OH2  OT    -0.834000       15.9994           0
   24111 WT1  8991 TIP3 H1   HT     0.417000        1.0080           0
   24112 WT1  8991 TIP3 H2   HT     0.417000        1.0080           0
   24113 WT1  8992 TIP3 OH2  OT    -0.834000       15.9994           0
   24114 WT1  8992 TIP3 H1   HT     0.417000        1.0080           0
   24115 WT1  8992 TIP3 H2   HT     0.417000        1.0080           0
   24116 WT1  8993 TIP3 OH2  OT    -0.834000       15.9994           0
   24117 WT1  8993 TIP3 H1   HT     0.417000        1.0080           0
   24118 WT1  8993 TIP3 H2   HT     0.417000        1.0080           0
   24119 WT1  8994 TIP3 OH2  OT    -0.834000       15.9994           0
   24120 WT1  8994 TIP3 H1   HT     0.417000        1.0080           0
   24121 WT1  8994 TIP3 H2   HT     0.417000        1.0080           0
   24122 WT1  8995 TIP3 OH2  OT    -0.834000       15.9994           0
   24123 WT1  8995 TIP3 H1   HT     0.417000        1.0080           0
   24124 WT1  8995 TIP3 H2   HT     0.417000        1.0080           0
   24125 WT1  8996 TIP3 OH2  OT    -0.834000       15.9994           0
   24126 WT1  8996 TIP3 H1   HT     0.417000        1.0080           0
   24127 WT1  8996 TIP3 H2   HT     0.417000        1.0080           0
   24128 WT1  8997 TIP3 OH2  OT    -0.834000       15.9994           0
   24129 WT1  8997 TIP3 H1   HT     0.417000        1.0080           0
   24130 WT1  8997 TIP3 H2   HT     0.417000        1.0080           0
   24131 WT1  8998 TIP3 OH2  OT    -0.834000       15.9994           0
   24132 WT1  8998 TIP3 H1   HT     0.417000        1.0080           0
   24133 WT1  8998 TIP3 H2   HT     0.417000        1.0080           0
   24134 WT1  8999 TIP3 OH2  OT    -0.834000       15.9994           0
   24135 WT1  8999 TIP3 H1   HT     0.417000        1.0080           0
   24136 WT1  8999 TIP3 H2   HT     0.417000        1.0080           0
   24137 WT1  9000 TIP3 OH2  OT    -0.834000       15.9994           0
   24138 WT1  9000 TIP3 H1   HT     0.417000        1.0080           0
   24139 WT1  9000 TIP3 H2   HT     0.417000        1.0080           0
   24140 WT1  9001 TIP3 OH2  OT    -0.834000       15.9994           0
   24141 WT1  9001 TIP3 H1   HT     0.417000        1.0080           0
   24142 WT1  9001 TIP3 H2   HT     0.417000        1.0080           0
   24143 WT1  9002 TIP3 OH2  OT    -0.834000       15.9994           0
   24144 WT1  9002 TIP3 H1   HT     0.417000        1.0080           0
   24145 WT1  9002 TIP3 H2   HT     0.417000        1.0080           0
   24146 WT1  9003 TIP3 OH2  OT    -0.834000       15.9994           0
   24147 WT1  9003 TIP3 H1   HT     0.417000        1.0080           0
   24148 WT1  9003 TIP3 H2   HT     0.417000        1.0080           0
   24149 WT1  9004 TIP3 OH2  OT    -0.834000       15.9994           0
   24150 WT1  9004 TIP3 H1   HT     0.417000        1.0080           0
   24151 WT1  9004 TIP3 H2   HT     0.417000        1.0080           0
   24152 WT1  9005 TIP3 OH2  OT    -0.834000       15.9994           0
   24153 WT1  9005 TIP3 H1   HT     0.417000        1.0080           0
   24154 WT1  9005 TIP3 H2   HT     0.417000        1.0080           0
   24155 WT1  9006 TIP3 OH2  OT    -0.834000       15.9994           0
   24156 WT1  9006 TIP3 H1   HT     0.417000        1.0080           0
   24157 WT1  9006 TIP3 H2   HT     0.417000        1.0080           0
   24158 WT1  9007 TIP3 OH2  OT    -0.834000       15.9994           0
   24159 WT1  9007 TIP3 H1   HT     0.417000        1.0080           0
   24160 WT1  9007 TIP3 H2   HT     0.417000        1.0080           0
   24161 WT1  9008 TIP3 OH2  OT    -0.834000       15.9994           0
   24162 WT1  9008 TIP3 H1   HT     0.417000        1.0080           0
   24163 WT1  9008 TIP3 H2   HT     0.417000        1.0080           0
   24164 WT1  9009 TIP3 OH2  OT    -0.834000       15.9994           0
   24165 WT1  9009 TIP3 H1   HT     0.417000        1.0080           0
   24166 WT1  9009 TIP3 H2   HT     0.417000        1.0080           0
   24167 WT1  9010 TIP3 OH2  OT    -0.834000       15.9994           0
   24168 WT1  9010 TIP3 H1   HT     0.417000        1.0080           0
   24169 WT1  9010 TIP3 H2   HT     0.417000        1.0080           0
   24170 WT1  9011 TIP3 OH2  OT    -0.834000       15.9994           0
   24171 WT1  9011 TIP3 H1   HT     0.417000        1.0080           0
   24172 WT1  9011 TIP3 H2   HT     0.417000        1.0080           0
   24173 WT1  9012 TIP3 OH2  OT    -0.834000       15.9994           0
   24174 WT1  9012 TIP3 H1   HT     0.417000        1.0080           0
   24175 WT1  9012 TIP3 H2   HT     0.417000        1.0080           0
   24176 WT1  9013 TIP3 OH2  OT    -0.834000       15.9994           0
   24177 WT1  9013 TIP3 H1   HT     0.417000        1.0080           0
   24178 WT1  9013 TIP3 H2   HT     0.417000        1.0080           0
   24179 WT1  9014 TIP3 OH2  OT    -0.834000       15.9994           0
   24180 WT1  9014 TIP3 H1   HT     0.417000        1.0080           0
   24181 WT1  9014 TIP3 H2   HT     0.417000        1.0080           0
   24182 WT1  9015 TIP3 OH2  OT    -0.834000       15.9994           0
   24183 WT1  9015 TIP3 H1   HT     0.417000        1.0080           0
   24184 WT1  9015 TIP3 H2   HT     0.417000        1.0080           0
   24185 WT1  9016 TIP3 OH2  OT    -0.834000       15.9994           0
   24186 WT1  9016 TIP3 H1   HT     0.417000        1.0080           0
   24187 WT1  9016 TIP3 H2   HT     0.417000        1.0080           0
   24188 WT1  9017 TIP3 OH2  OT    -0.834000       15.9994           0
   24189 WT1  9017 TIP3 H1   HT     0.417000        1.0080           0
   24190 WT1  9017 TIP3 H2   HT     0.417000        1.0080           0
   24191 WT1  9018 TIP3 OH2  OT    -0.834000       15.9994           0
   24192 WT1  9018 TIP3 H1   HT     0.417000        1.0080           0
   24193 WT1  9018 TIP3 H2   HT     0.417000        1.0080           0
   24194 WT1  9019 TIP3 OH2  OT    -0.834000       15.9994           0
   24195 WT1  9019 TIP3 H1   HT     0.417000        1.0080           0
   24196 WT1  9019 TIP3 H2   HT     0.417000        1.0080           0
   24197 WT1  9020 TIP3 OH2  OT    -0.834000       15.9994           0
   24198 WT1  9020 TIP3 H1   HT     0.417000        1.0080           0
   24199 WT1  9020 TIP3 H2   HT     0.417000        1.0080           0
   24200 WT1  9021 TIP3 OH2  OT    -0.834000       15.9994           0
   24201 WT1  9021 TIP3 H1   HT     0.417000        1.0080           0
   24202 WT1  9021 TIP3 H2   HT     0.417000        1.0080           0
   24203 WT1  9022 TIP3 OH2  OT    -0.834000       15.9994           0
   24204 WT1  9022 TIP3 H1   HT     0.417000        1.0080           0
   24205 WT1  9022 TIP3 H2   HT     0.417000        1.0080           0
   24206 WT1  9023 TIP3 OH2  OT    -0.834000       15.9994           0
   24207 WT1  9023 TIP3 H1   HT     0.417000        1.0080           0
   24208 WT1  9023 TIP3 H2   HT     0.417000        1.0080           0
   24209 WT1  9024 TIP3 OH2  OT    -0.834000       15.9994           0
   24210 WT1  9024 TIP3 H1   HT     0.417000        1.0080           0
   24211 WT1  9024 TIP3 H2   HT     0.417000        1.0080           0
   24212 WT1  9025 TIP3 OH2  OT    -0.834000       15.9994           0
   24213 WT1  9025 TIP3 H1   HT     0.417000        1.0080           0
   24214 WT1  9025 TIP3 H2   HT     0.417000        1.0080           0
   24215 WT1  9027 TIP3 OH2  OT    -0.834000       15.9994           0
   24216 WT1  9027 TIP3 H1   HT     0.417000        1.0080           0
   24217 WT1  9027 TIP3 H2   HT     0.417000        1.0080           0
   24218 WT1  9028 TIP3 OH2  OT    -0.834000       15.9994           0
   24219 WT1  9028 TIP3 H1   HT     0.417000        1.0080           0
   24220 WT1  9028 TIP3 H2   HT     0.417000        1.0080           0
   24221 WT1  9030 TIP3 OH2  OT    -0.834000       15.9994           0
   24222 WT1  9030 TIP3 H1   HT     0.417000        1.0080           0
   24223 WT1  9030 TIP3 H2   HT     0.417000        1.0080           0
   24224 WT1  9032 TIP3 OH2  OT    -0.834000       15.9994           0
   24225 WT1  9032 TIP3 H1   HT     0.417000        1.0080           0
   24226 WT1  9032 TIP3 H2   HT     0.417000        1.0080           0
   24227 WT1  9034 TIP3 OH2  OT    -0.834000       15.9994           0
   24228 WT1  9034 TIP3 H1   HT     0.417000        1.0080           0
   24229 WT1  9034 TIP3 H2   HT     0.417000        1.0080           0
   24230 WT1  9035 TIP3 OH2  OT    -0.834000       15.9994           0
   24231 WT1  9035 TIP3 H1   HT     0.417000        1.0080           0
   24232 WT1  9035 TIP3 H2   HT     0.417000        1.0080           0
   24233 WT1  9036 TIP3 OH2  OT    -0.834000       15.9994           0
   24234 WT1  9036 TIP3 H1   HT     0.417000        1.0080           0
   24235 WT1  9036 TIP3 H2   HT     0.417000        1.0080           0
   24236 WT1  9037 TIP3 OH2  OT    -0.834000       15.9994           0
   24237 WT1  9037 TIP3 H1   HT     0.417000        1.0080           0
   24238 WT1  9037 TIP3 H2   HT     0.417000        1.0080           0
   24239 WT1  9038 TIP3 OH2  OT    -0.834000       15.9994           0
   24240 WT1  9038 TIP3 H1   HT     0.417000        1.0080           0
   24241 WT1  9038 TIP3 H2   HT     0.417000        1.0080           0
   24242 WT1  9039 TIP3 OH2  OT    -0.834000       15.9994           0
   24243 WT1  9039 TIP3 H1   HT     0.417000        1.0080           0
   24244 WT1  9039 TIP3 H2   HT     0.417000        1.0080           0
   24245 WT1  9040 TIP3 OH2  OT    -0.834000       15.9994           0
   24246 WT1  9040 TIP3 H1   HT     0.417000        1.0080           0
   24247 WT1  9040 TIP3 H2   HT     0.417000        1.0080           0
   24248 WT1  9041 TIP3 OH2  OT    -0.834000       15.9994           0
   24249 WT1  9041 TIP3 H1   HT     0.417000        1.0080           0
   24250 WT1  9041 TIP3 H2   HT     0.417000        1.0080           0
   24251 WT1  9042 TIP3 OH2  OT    -0.834000       15.9994           0
   24252 WT1  9042 TIP3 H1   HT     0.417000        1.0080           0
   24253 WT1  9042 TIP3 H2   HT     0.417000        1.0080           0
   24254 WT1  9043 TIP3 OH2  OT    -0.834000       15.9994           0
   24255 WT1  9043 TIP3 H1   HT     0.417000        1.0080           0
   24256 WT1  9043 TIP3 H2   HT     0.417000        1.0080           0
   24257 WT1  9044 TIP3 OH2  OT    -0.834000       15.9994           0
   24258 WT1  9044 TIP3 H1   HT     0.417000        1.0080           0
   24259 WT1  9044 TIP3 H2   HT     0.417000        1.0080           0
   24260 WT1  9045 TIP3 OH2  OT    -0.834000       15.9994           0
   24261 WT1  9045 TIP3 H1   HT     0.417000        1.0080           0
   24262 WT1  9045 TIP3 H2   HT     0.417000        1.0080           0
   24263 WT1  9046 TIP3 OH2  OT    -0.834000       15.9994           0
   24264 WT1  9046 TIP3 H1   HT     0.417000        1.0080           0
   24265 WT1  9046 TIP3 H2   HT     0.417000        1.0080           0
   24266 WT1  9047 TIP3 OH2  OT    -0.834000       15.9994           0
   24267 WT1  9047 TIP3 H1   HT     0.417000        1.0080           0
   24268 WT1  9047 TIP3 H2   HT     0.417000        1.0080           0
   24269 WT1  9048 TIP3 OH2  OT    -0.834000       15.9994           0
   24270 WT1  9048 TIP3 H1   HT     0.417000        1.0080           0
   24271 WT1  9048 TIP3 H2   HT     0.417000        1.0080           0
   24272 WT1  9050 TIP3 OH2  OT    -0.834000       15.9994           0
   24273 WT1  9050 TIP3 H1   HT     0.417000        1.0080           0
   24274 WT1  9050 TIP3 H2   HT     0.417000        1.0080           0
   24275 WT1  9051 TIP3 OH2  OT    -0.834000       15.9994           0
   24276 WT1  9051 TIP3 H1   HT     0.417000        1.0080           0
   24277 WT1  9051 TIP3 H2   HT     0.417000        1.0080           0
   24278 WT1  9052 TIP3 OH2  OT    -0.834000       15.9994           0
   24279 WT1  9052 TIP3 H1   HT     0.417000        1.0080           0
   24280 WT1  9052 TIP3 H2   HT     0.417000        1.0080           0
   24281 WT1  9053 TIP3 OH2  OT    -0.834000       15.9994           0
   24282 WT1  9053 TIP3 H1   HT     0.417000        1.0080           0
   24283 WT1  9053 TIP3 H2   HT     0.417000        1.0080           0
   24284 WT1  9054 TIP3 OH2  OT    -0.834000       15.9994           0
   24285 WT1  9054 TIP3 H1   HT     0.417000        1.0080           0
   24286 WT1  9054 TIP3 H2   HT     0.417000        1.0080           0
   24287 WT1  9055 TIP3 OH2  OT    -0.834000       15.9994           0
   24288 WT1  9055 TIP3 H1   HT     0.417000        1.0080           0
   24289 WT1  9055 TIP3 H2   HT     0.417000        1.0080           0
   24290 WT1  9056 TIP3 OH2  OT    -0.834000       15.9994           0
   24291 WT1  9056 TIP3 H1   HT     0.417000        1.0080           0
   24292 WT1  9056 TIP3 H2   HT     0.417000        1.0080           0
   24293 WT1  9057 TIP3 OH2  OT    -0.834000       15.9994           0
   24294 WT1  9057 TIP3 H1   HT     0.417000        1.0080           0
   24295 WT1  9057 TIP3 H2   HT     0.417000        1.0080           0
   24296 WT1  9058 TIP3 OH2  OT    -0.834000       15.9994           0
   24297 WT1  9058 TIP3 H1   HT     0.417000        1.0080           0
   24298 WT1  9058 TIP3 H2   HT     0.417000        1.0080           0
   24299 WT1  9059 TIP3 OH2  OT    -0.834000       15.9994           0
   24300 WT1  9059 TIP3 H1   HT     0.417000        1.0080           0
   24301 WT1  9059 TIP3 H2   HT     0.417000        1.0080           0
   24302 WT1  9060 TIP3 OH2  OT    -0.834000       15.9994           0
   24303 WT1  9060 TIP3 H1   HT     0.417000        1.0080           0
   24304 WT1  9060 TIP3 H2   HT     0.417000        1.0080           0
   24305 WT1  9061 TIP3 OH2  OT    -0.834000       15.9994           0
   24306 WT1  9061 TIP3 H1   HT     0.417000        1.0080           0
   24307 WT1  9061 TIP3 H2   HT     0.417000        1.0080           0
   24308 WT1  9062 TIP3 OH2  OT    -0.834000       15.9994           0
   24309 WT1  9062 TIP3 H1   HT     0.417000        1.0080           0
   24310 WT1  9062 TIP3 H2   HT     0.417000        1.0080           0
   24311 WT1  9063 TIP3 OH2  OT    -0.834000       15.9994           0
   24312 WT1  9063 TIP3 H1   HT     0.417000        1.0080           0
   24313 WT1  9063 TIP3 H2   HT     0.417000        1.0080           0
   24314 WT1  9066 TIP3 OH2  OT    -0.834000       15.9994           0
   24315 WT1  9066 TIP3 H1   HT     0.417000        1.0080           0
   24316 WT1  9066 TIP3 H2   HT     0.417000        1.0080           0
   24317 WT1  9067 TIP3 OH2  OT    -0.834000       15.9994           0
   24318 WT1  9067 TIP3 H1   HT     0.417000        1.0080           0
   24319 WT1  9067 TIP3 H2   HT     0.417000        1.0080           0
   24320 WT1  9069 TIP3 OH2  OT    -0.834000       15.9994           0
   24321 WT1  9069 TIP3 H1   HT     0.417000        1.0080           0
   24322 WT1  9069 TIP3 H2   HT     0.417000        1.0080           0
   24323 WT1  9070 TIP3 OH2  OT    -0.834000       15.9994           0
   24324 WT1  9070 TIP3 H1   HT     0.417000        1.0080           0
   24325 WT1  9070 TIP3 H2   HT     0.417000        1.0080           0
   24326 WT1  9071 TIP3 OH2  OT    -0.834000       15.9994           0
   24327 WT1  9071 TIP3 H1   HT     0.417000        1.0080           0
   24328 WT1  9071 TIP3 H2   HT     0.417000        1.0080           0
   24329 WT1  9072 TIP3 OH2  OT    -0.834000       15.9994           0
   24330 WT1  9072 TIP3 H1   HT     0.417000        1.0080           0
   24331 WT1  9072 TIP3 H2   HT     0.417000        1.0080           0
   24332 WT1  9073 TIP3 OH2  OT    -0.834000       15.9994           0
   24333 WT1  9073 TIP3 H1   HT     0.417000        1.0080           0
   24334 WT1  9073 TIP3 H2   HT     0.417000        1.0080           0
   24335 WT1  9075 TIP3 OH2  OT    -0.834000       15.9994           0
   24336 WT1  9075 TIP3 H1   HT     0.417000        1.0080           0
   24337 WT1  9075 TIP3 H2   HT     0.417000        1.0080           0
   24338 WT1  9076 TIP3 OH2  OT    -0.834000       15.9994           0
   24339 WT1  9076 TIP3 H1   HT     0.417000        1.0080           0
   24340 WT1  9076 TIP3 H2   HT     0.417000        1.0080           0
   24341 WT1  9079 TIP3 OH2  OT    -0.834000       15.9994           0
   24342 WT1  9079 TIP3 H1   HT     0.417000        1.0080           0
   24343 WT1  9079 TIP3 H2   HT     0.417000        1.0080           0
   24344 WT1  9080 TIP3 OH2  OT    -0.834000       15.9994           0
   24345 WT1  9080 TIP3 H1   HT     0.417000        1.0080           0
   24346 WT1  9080 TIP3 H2   HT     0.417000        1.0080           0
   24347 WT1  9082 TIP3 OH2  OT    -0.834000       15.9994           0
   24348 WT1  9082 TIP3 H1   HT     0.417000        1.0080           0
   24349 WT1  9082 TIP3 H2   HT     0.417000        1.0080           0
   24350 WT1  9083 TIP3 OH2  OT    -0.834000       15.9994           0
   24351 WT1  9083 TIP3 H1   HT     0.417000        1.0080           0
   24352 WT1  9083 TIP3 H2   HT     0.417000        1.0080           0
   24353 WT1  9084 TIP3 OH2  OT    -0.834000       15.9994           0
   24354 WT1  9084 TIP3 H1   HT     0.417000        1.0080           0
   24355 WT1  9084 TIP3 H2   HT     0.417000        1.0080           0
   24356 WT1  9085 TIP3 OH2  OT    -0.834000       15.9994           0
   24357 WT1  9085 TIP3 H1   HT     0.417000        1.0080           0
   24358 WT1  9085 TIP3 H2   HT     0.417000        1.0080           0
   24359 WT1  9086 TIP3 OH2  OT    -0.834000       15.9994           0
   24360 WT1  9086 TIP3 H1   HT     0.417000        1.0080           0
   24361 WT1  9086 TIP3 H2   HT     0.417000        1.0080           0
   24362 WT1  9087 TIP3 OH2  OT    -0.834000       15.9994           0
   24363 WT1  9087 TIP3 H1   HT     0.417000        1.0080           0
   24364 WT1  9087 TIP3 H2   HT     0.417000        1.0080           0
   24365 WT1  9088 TIP3 OH2  OT    -0.834000       15.9994           0
   24366 WT1  9088 TIP3 H1   HT     0.417000        1.0080           0
   24367 WT1  9088 TIP3 H2   HT     0.417000        1.0080           0
   24368 WT1  9089 TIP3 OH2  OT    -0.834000       15.9994           0
   24369 WT1  9089 TIP3 H1   HT     0.417000        1.0080           0
   24370 WT1  9089 TIP3 H2   HT     0.417000        1.0080           0
   24371 WT1  9090 TIP3 OH2  OT    -0.834000       15.9994           0
   24372 WT1  9090 TIP3 H1   HT     0.417000        1.0080           0
   24373 WT1  9090 TIP3 H2   HT     0.417000        1.0080           0
   24374 WT1  9091 TIP3 OH2  OT    -0.834000       15.9994           0
   24375 WT1  9091 TIP3 H1   HT     0.417000        1.0080           0
   24376 WT1  9091 TIP3 H2   HT     0.417000        1.0080           0
   24377 WT1  9092 TIP3 OH2  OT    -0.834000       15.9994           0
   24378 WT1  9092 TIP3 H1   HT     0.417000        1.0080           0
   24379 WT1  9092 TIP3 H2   HT     0.417000        1.0080           0
   24380 WT1  9093 TIP3 OH2  OT    -0.834000       15.9994           0
   24381 WT1  9093 TIP3 H1   HT     0.417000        1.0080           0
   24382 WT1  9093 TIP3 H2   HT     0.417000        1.0080           0
   24383 WT1  9094 TIP3 OH2  OT    -0.834000       15.9994           0
   24384 WT1  9094 TIP3 H1   HT     0.417000        1.0080           0
   24385 WT1  9094 TIP3 H2   HT     0.417000        1.0080           0
   24386 WT1  9095 TIP3 OH2  OT    -0.834000       15.9994           0
   24387 WT1  9095 TIP3 H1   HT     0.417000        1.0080           0
   24388 WT1  9095 TIP3 H2   HT     0.417000        1.0080           0
   24389 WT1  9096 TIP3 OH2  OT    -0.834000       15.9994           0
   24390 WT1  9096 TIP3 H1   HT     0.417000        1.0080           0
   24391 WT1  9096 TIP3 H2   HT     0.417000        1.0080           0
   24392 WT1  9098 TIP3 OH2  OT    -0.834000       15.9994           0
   24393 WT1  9098 TIP3 H1   HT     0.417000        1.0080           0
   24394 WT1  9098 TIP3 H2   HT     0.417000        1.0080           0
   24395 WT1  9099 TIP3 OH2  OT    -0.834000       15.9994           0
   24396 WT1  9099 TIP3 H1   HT     0.417000        1.0080           0
   24397 WT1  9099 TIP3 H2   HT     0.417000        1.0080           0
   24398 WT1  9100 TIP3 OH2  OT    -0.834000       15.9994           0
   24399 WT1  9100 TIP3 H1   HT     0.417000        1.0080           0
   24400 WT1  9100 TIP3 H2   HT     0.417000        1.0080           0
   24401 WT1  9101 TIP3 OH2  OT    -0.834000       15.9994           0
   24402 WT1  9101 TIP3 H1   HT     0.417000        1.0080           0
   24403 WT1  9101 TIP3 H2   HT     0.417000        1.0080           0
   24404 WT1  9102 TIP3 OH2  OT    -0.834000       15.9994           0
   24405 WT1  9102 TIP3 H1   HT     0.417000        1.0080           0
   24406 WT1  9102 TIP3 H2   HT     0.417000        1.0080           0
   24407 WT1  9103 TIP3 OH2  OT    -0.834000       15.9994           0
   24408 WT1  9103 TIP3 H1   HT     0.417000        1.0080           0
   24409 WT1  9103 TIP3 H2   HT     0.417000        1.0080           0
   24410 WT1  9105 TIP3 OH2  OT    -0.834000       15.9994           0
   24411 WT1  9105 TIP3 H1   HT     0.417000        1.0080           0
   24412 WT1  9105 TIP3 H2   HT     0.417000        1.0080           0
   24413 WT1  9106 TIP3 OH2  OT    -0.834000       15.9994           0
   24414 WT1  9106 TIP3 H1   HT     0.417000        1.0080           0
   24415 WT1  9106 TIP3 H2   HT     0.417000        1.0080           0
   24416 WT1  9107 TIP3 OH2  OT    -0.834000       15.9994           0
   24417 WT1  9107 TIP3 H1   HT     0.417000        1.0080           0
   24418 WT1  9107 TIP3 H2   HT     0.417000        1.0080           0
   24419 WT1  9108 TIP3 OH2  OT    -0.834000       15.9994           0
   24420 WT1  9108 TIP3 H1   HT     0.417000        1.0080           0
   24421 WT1  9108 TIP3 H2   HT     0.417000        1.0080           0
   24422 WT1  9109 TIP3 OH2  OT    -0.834000       15.9994           0
   24423 WT1  9109 TIP3 H1   HT     0.417000        1.0080           0
   24424 WT1  9109 TIP3 H2   HT     0.417000        1.0080           0
   24425 WT1  9110 TIP3 OH2  OT    -0.834000       15.9994           0
   24426 WT1  9110 TIP3 H1   HT     0.417000        1.0080           0
   24427 WT1  9110 TIP3 H2   HT     0.417000        1.0080           0
   24428 WT1  9111 TIP3 OH2  OT    -0.834000       15.9994           0
   24429 WT1  9111 TIP3 H1   HT     0.417000        1.0080           0
   24430 WT1  9111 TIP3 H2   HT     0.417000        1.0080           0
   24431 WT1  9112 TIP3 OH2  OT    -0.834000       15.9994           0
   24432 WT1  9112 TIP3 H1   HT     0.417000        1.0080           0
   24433 WT1  9112 TIP3 H2   HT     0.417000        1.0080           0
   24434 WT1  9113 TIP3 OH2  OT    -0.834000       15.9994           0
   24435 WT1  9113 TIP3 H1   HT     0.417000        1.0080           0
   24436 WT1  9113 TIP3 H2   HT     0.417000        1.0080           0
   24437 WT1  9114 TIP3 OH2  OT    -0.834000       15.9994           0
   24438 WT1  9114 TIP3 H1   HT     0.417000        1.0080           0
   24439 WT1  9114 TIP3 H2   HT     0.417000        1.0080           0
   24440 WT1  9115 TIP3 OH2  OT    -0.834000       15.9994           0
   24441 WT1  9115 TIP3 H1   HT     0.417000        1.0080           0
   24442 WT1  9115 TIP3 H2   HT     0.417000        1.0080           0
   24443 WT1  9116 TIP3 OH2  OT    -0.834000       15.9994           0
   24444 WT1  9116 TIP3 H1   HT     0.417000        1.0080           0
   24445 WT1  9116 TIP3 H2   HT     0.417000        1.0080           0
   24446 WT1  9117 TIP3 OH2  OT    -0.834000       15.9994           0
   24447 WT1  9117 TIP3 H1   HT     0.417000        1.0080           0
   24448 WT1  9117 TIP3 H2   HT     0.417000        1.0080           0
   24449 WT1  9118 TIP3 OH2  OT    -0.834000       15.9994           0
   24450 WT1  9118 TIP3 H1   HT     0.417000        1.0080           0
   24451 WT1  9118 TIP3 H2   HT     0.417000        1.0080           0
   24452 WT1  9119 TIP3 OH2  OT    -0.834000       15.9994           0
   24453 WT1  9119 TIP3 H1   HT     0.417000        1.0080           0
   24454 WT1  9119 TIP3 H2   HT     0.417000        1.0080           0
   24455 WT1  9121 TIP3 OH2  OT    -0.834000       15.9994           0
   24456 WT1  9121 TIP3 H1   HT     0.417000        1.0080           0
   24457 WT1  9121 TIP3 H2   HT     0.417000        1.0080           0
   24458 WT1  9122 TIP3 OH2  OT    -0.834000       15.9994           0
   24459 WT1  9122 TIP3 H1   HT     0.417000        1.0080           0
   24460 WT1  9122 TIP3 H2   HT     0.417000        1.0080           0
   24461 WT1  9123 TIP3 OH2  OT    -0.834000       15.9994           0
   24462 WT1  9123 TIP3 H1   HT     0.417000        1.0080           0
   24463 WT1  9123 TIP3 H2   HT     0.417000        1.0080           0
   24464 WT1  9124 TIP3 OH2  OT    -0.834000       15.9994           0
   24465 WT1  9124 TIP3 H1   HT     0.417000        1.0080           0
   24466 WT1  9124 TIP3 H2   HT     0.417000        1.0080           0
   24467 WT1  9125 TIP3 OH2  OT    -0.834000       15.9994           0
   24468 WT1  9125 TIP3 H1   HT     0.417000        1.0080           0
   24469 WT1  9125 TIP3 H2   HT     0.417000        1.0080           0
   24470 WT1  9126 TIP3 OH2  OT    -0.834000       15.9994           0
   24471 WT1  9126 TIP3 H1   HT     0.417000        1.0080           0
   24472 WT1  9126 TIP3 H2   HT     0.417000        1.0080           0
   24473 WT1  9127 TIP3 OH2  OT    -0.834000       15.9994           0
   24474 WT1  9127 TIP3 H1   HT     0.417000        1.0080           0
   24475 WT1  9127 TIP3 H2   HT     0.417000        1.0080           0
   24476 WT1  9128 TIP3 OH2  OT    -0.834000       15.9994           0
   24477 WT1  9128 TIP3 H1   HT     0.417000        1.0080           0
   24478 WT1  9128 TIP3 H2   HT     0.417000        1.0080           0
   24479 WT1  9129 TIP3 OH2  OT    -0.834000       15.9994           0
   24480 WT1  9129 TIP3 H1   HT     0.417000        1.0080           0
   24481 WT1  9129 TIP3 H2   HT     0.417000        1.0080           0
   24482 WT1  9130 TIP3 OH2  OT    -0.834000       15.9994           0
   24483 WT1  9130 TIP3 H1   HT     0.417000        1.0080           0
   24484 WT1  9130 TIP3 H2   HT     0.417000        1.0080           0
   24485 WT1  9131 TIP3 OH2  OT    -0.834000       15.9994           0
   24486 WT1  9131 TIP3 H1   HT     0.417000        1.0080           0
   24487 WT1  9131 TIP3 H2   HT     0.417000        1.0080           0
   24488 WT1  9132 TIP3 OH2  OT    -0.834000       15.9994           0
   24489 WT1  9132 TIP3 H1   HT     0.417000        1.0080           0
   24490 WT1  9132 TIP3 H2   HT     0.417000        1.0080           0
   24491 WT1  9135 TIP3 OH2  OT    -0.834000       15.9994           0
   24492 WT1  9135 TIP3 H1   HT     0.417000        1.0080           0
   24493 WT1  9135 TIP3 H2   HT     0.417000        1.0080           0
   24494 WT1  9136 TIP3 OH2  OT    -0.834000       15.9994           0
   24495 WT1  9136 TIP3 H1   HT     0.417000        1.0080           0
   24496 WT1  9136 TIP3 H2   HT     0.417000        1.0080           0
   24497 WT1  9138 TIP3 OH2  OT    -0.834000       15.9994           0
   24498 WT1  9138 TIP3 H1   HT     0.417000        1.0080           0
   24499 WT1  9138 TIP3 H2   HT     0.417000        1.0080           0
   24500 WT1  9139 TIP3 OH2  OT    -0.834000       15.9994           0
   24501 WT1  9139 TIP3 H1   HT     0.417000        1.0080           0
   24502 WT1  9139 TIP3 H2   HT     0.417000        1.0080           0
   24503 WT1  9140 TIP3 OH2  OT    -0.834000       15.9994           0
   24504 WT1  9140 TIP3 H1   HT     0.417000        1.0080           0
   24505 WT1  9140 TIP3 H2   HT     0.417000        1.0080           0
   24506 WT1  9141 TIP3 OH2  OT    -0.834000       15.9994           0
   24507 WT1  9141 TIP3 H1   HT     0.417000        1.0080           0
   24508 WT1  9141 TIP3 H2   HT     0.417000        1.0080           0
   24509 WT1  9142 TIP3 OH2  OT    -0.834000       15.9994           0
   24510 WT1  9142 TIP3 H1   HT     0.417000        1.0080           0
   24511 WT1  9142 TIP3 H2   HT     0.417000        1.0080           0
   24512 WT1  9144 TIP3 OH2  OT    -0.834000       15.9994           0
   24513 WT1  9144 TIP3 H1   HT     0.417000        1.0080           0
   24514 WT1  9144 TIP3 H2   HT     0.417000        1.0080           0
   24515 WT1  9145 TIP3 OH2  OT    -0.834000       15.9994           0
   24516 WT1  9145 TIP3 H1   HT     0.417000        1.0080           0
   24517 WT1  9145 TIP3 H2   HT     0.417000        1.0080           0
   24518 WT1  9146 TIP3 OH2  OT    -0.834000       15.9994           0
   24519 WT1  9146 TIP3 H1   HT     0.417000        1.0080           0
   24520 WT1  9146 TIP3 H2   HT     0.417000        1.0080           0
   24521 WT1  9148 TIP3 OH2  OT    -0.834000       15.9994           0
   24522 WT1  9148 TIP3 H1   HT     0.417000        1.0080           0
   24523 WT1  9148 TIP3 H2   HT     0.417000        1.0080           0
   24524 WT1  9149 TIP3 OH2  OT    -0.834000       15.9994           0
   24525 WT1  9149 TIP3 H1   HT     0.417000        1.0080           0
   24526 WT1  9149 TIP3 H2   HT     0.417000        1.0080           0
   24527 WT1  9150 TIP3 OH2  OT    -0.834000       15.9994           0
   24528 WT1  9150 TIP3 H1   HT     0.417000        1.0080           0
   24529 WT1  9150 TIP3 H2   HT     0.417000        1.0080           0
   24530 WT1  9152 TIP3 OH2  OT    -0.834000       15.9994           0
   24531 WT1  9152 TIP3 H1   HT     0.417000        1.0080           0
   24532 WT1  9152 TIP3 H2   HT     0.417000        1.0080           0
   24533 WT1  9153 TIP3 OH2  OT    -0.834000       15.9994           0
   24534 WT1  9153 TIP3 H1   HT     0.417000        1.0080           0
   24535 WT1  9153 TIP3 H2   HT     0.417000        1.0080           0
   24536 WT1  9154 TIP3 OH2  OT    -0.834000       15.9994           0
   24537 WT1  9154 TIP3 H1   HT     0.417000        1.0080           0
   24538 WT1  9154 TIP3 H2   HT     0.417000        1.0080           0
   24539 WT1  9155 TIP3 OH2  OT    -0.834000       15.9994           0
   24540 WT1  9155 TIP3 H1   HT     0.417000        1.0080           0
   24541 WT1  9155 TIP3 H2   HT     0.417000        1.0080           0
   24542 WT1  9156 TIP3 OH2  OT    -0.834000       15.9994           0
   24543 WT1  9156 TIP3 H1   HT     0.417000        1.0080           0
   24544 WT1  9156 TIP3 H2   HT     0.417000        1.0080           0
   24545 WT1  9157 TIP3 OH2  OT    -0.834000       15.9994           0
   24546 WT1  9157 TIP3 H1   HT     0.417000        1.0080           0
   24547 WT1  9157 TIP3 H2   HT     0.417000        1.0080           0
   24548 WT1  9158 TIP3 OH2  OT    -0.834000       15.9994           0
   24549 WT1  9158 TIP3 H1   HT     0.417000        1.0080           0
   24550 WT1  9158 TIP3 H2   HT     0.417000        1.0080           0
   24551 WT1  9159 TIP3 OH2  OT    -0.834000       15.9994           0
   24552 WT1  9159 TIP3 H1   HT     0.417000        1.0080           0
   24553 WT1  9159 TIP3 H2   HT     0.417000        1.0080           0
   24554 WT1  9160 TIP3 OH2  OT    -0.834000       15.9994           0
   24555 WT1  9160 TIP3 H1   HT     0.417000        1.0080           0
   24556 WT1  9160 TIP3 H2   HT     0.417000        1.0080           0
   24557 WT1  9162 TIP3 OH2  OT    -0.834000       15.9994           0
   24558 WT1  9162 TIP3 H1   HT     0.417000        1.0080           0
   24559 WT1  9162 TIP3 H2   HT     0.417000        1.0080           0
   24560 WT1  9163 TIP3 OH2  OT    -0.834000       15.9994           0
   24561 WT1  9163 TIP3 H1   HT     0.417000        1.0080           0
   24562 WT1  9163 TIP3 H2   HT     0.417000        1.0080           0
   24563 WT1  9164 TIP3 OH2  OT    -0.834000       15.9994           0
   24564 WT1  9164 TIP3 H1   HT     0.417000        1.0080           0
   24565 WT1  9164 TIP3 H2   HT     0.417000        1.0080           0
   24566 WT1  9165 TIP3 OH2  OT    -0.834000       15.9994           0
   24567 WT1  9165 TIP3 H1   HT     0.417000        1.0080           0
   24568 WT1  9165 TIP3 H2   HT     0.417000        1.0080           0
   24569 WT1  9166 TIP3 OH2  OT    -0.834000       15.9994           0
   24570 WT1  9166 TIP3 H1   HT     0.417000        1.0080           0
   24571 WT1  9166 TIP3 H2   HT     0.417000        1.0080           0
   24572 WT1  9167 TIP3 OH2  OT    -0.834000       15.9994           0
   24573 WT1  9167 TIP3 H1   HT     0.417000        1.0080           0
   24574 WT1  9167 TIP3 H2   HT     0.417000        1.0080           0
   24575 WT1  9168 TIP3 OH2  OT    -0.834000       15.9994           0
   24576 WT1  9168 TIP3 H1   HT     0.417000        1.0080           0
   24577 WT1  9168 TIP3 H2   HT     0.417000        1.0080           0
   24578 WT1  9169 TIP3 OH2  OT    -0.834000       15.9994           0
   24579 WT1  9169 TIP3 H1   HT     0.417000        1.0080           0
   24580 WT1  9169 TIP3 H2   HT     0.417000        1.0080           0
   24581 WT1  9172 TIP3 OH2  OT    -0.834000       15.9994           0
   24582 WT1  9172 TIP3 H1   HT     0.417000        1.0080           0
   24583 WT1  9172 TIP3 H2   HT     0.417000        1.0080           0
   24584 WT1  9173 TIP3 OH2  OT    -0.834000       15.9994           0
   24585 WT1  9173 TIP3 H1   HT     0.417000        1.0080           0
   24586 WT1  9173 TIP3 H2   HT     0.417000        1.0080           0
   24587 WT1  9174 TIP3 OH2  OT    -0.834000       15.9994           0
   24588 WT1  9174 TIP3 H1   HT     0.417000        1.0080           0
   24589 WT1  9174 TIP3 H2   HT     0.417000        1.0080           0
   24590 WT1  9175 TIP3 OH2  OT    -0.834000       15.9994           0
   24591 WT1  9175 TIP3 H1   HT     0.417000        1.0080           0
   24592 WT1  9175 TIP3 H2   HT     0.417000        1.0080           0
   24593 WT1  9176 TIP3 OH2  OT    -0.834000       15.9994           0
   24594 WT1  9176 TIP3 H1   HT     0.417000        1.0080           0
   24595 WT1  9176 TIP3 H2   HT     0.417000        1.0080           0
   24596 WT1  9177 TIP3 OH2  OT    -0.834000       15.9994           0
   24597 WT1  9177 TIP3 H1   HT     0.417000        1.0080           0
   24598 WT1  9177 TIP3 H2   HT     0.417000        1.0080           0
   24599 WT1  9178 TIP3 OH2  OT    -0.834000       15.9994           0
   24600 WT1  9178 TIP3 H1   HT     0.417000        1.0080           0
   24601 WT1  9178 TIP3 H2   HT     0.417000        1.0080           0
   24602 WT1  9179 TIP3 OH2  OT    -0.834000       15.9994           0
   24603 WT1  9179 TIP3 H1   HT     0.417000        1.0080           0
   24604 WT1  9179 TIP3 H2   HT     0.417000        1.0080           0
   24605 WT1  9181 TIP3 OH2  OT    -0.834000       15.9994           0
   24606 WT1  9181 TIP3 H1   HT     0.417000        1.0080           0
   24607 WT1  9181 TIP3 H2   HT     0.417000        1.0080           0
   24608 WT1  9182 TIP3 OH2  OT    -0.834000       15.9994           0
   24609 WT1  9182 TIP3 H1   HT     0.417000        1.0080           0
   24610 WT1  9182 TIP3 H2   HT     0.417000        1.0080           0
   24611 WT1  9183 TIP3 OH2  OT    -0.834000       15.9994           0
   24612 WT1  9183 TIP3 H1   HT     0.417000        1.0080           0
   24613 WT1  9183 TIP3 H2   HT     0.417000        1.0080           0
   24614 WT1  9184 TIP3 OH2  OT    -0.834000       15.9994           0
   24615 WT1  9184 TIP3 H1   HT     0.417000        1.0080           0
   24616 WT1  9184 TIP3 H2   HT     0.417000        1.0080           0
   24617 WT1  9185 TIP3 OH2  OT    -0.834000       15.9994           0
   24618 WT1  9185 TIP3 H1   HT     0.417000        1.0080           0
   24619 WT1  9185 TIP3 H2   HT     0.417000        1.0080           0
   24620 WT1  9186 TIP3 OH2  OT    -0.834000       15.9994           0
   24621 WT1  9186 TIP3 H1   HT     0.417000        1.0080           0
   24622 WT1  9186 TIP3 H2   HT     0.417000        1.0080           0
   24623 WT1  9187 TIP3 OH2  OT    -0.834000       15.9994           0
   24624 WT1  9187 TIP3 H1   HT     0.417000        1.0080           0
   24625 WT1  9187 TIP3 H2   HT     0.417000        1.0080           0
   24626 WT1  9188 TIP3 OH2  OT    -0.834000       15.9994           0
   24627 WT1  9188 TIP3 H1   HT     0.417000        1.0080           0
   24628 WT1  9188 TIP3 H2   HT     0.417000        1.0080           0
   24629 WT1  9189 TIP3 OH2  OT    -0.834000       15.9994           0
   24630 WT1  9189 TIP3 H1   HT     0.417000        1.0080           0
   24631 WT1  9189 TIP3 H2   HT     0.417000        1.0080           0
   24632 WT1  9190 TIP3 OH2  OT    -0.834000       15.9994           0
   24633 WT1  9190 TIP3 H1   HT     0.417000        1.0080           0
   24634 WT1  9190 TIP3 H2   HT     0.417000        1.0080           0
   24635 WT1  9191 TIP3 OH2  OT    -0.834000       15.9994           0
   24636 WT1  9191 TIP3 H1   HT     0.417000        1.0080           0
   24637 WT1  9191 TIP3 H2   HT     0.417000        1.0080           0
   24638 WT1  9192 TIP3 OH2  OT    -0.834000       15.9994           0
   24639 WT1  9192 TIP3 H1   HT     0.417000        1.0080           0
   24640 WT1  9192 TIP3 H2   HT     0.417000        1.0080           0
   24641 WT1  9193 TIP3 OH2  OT    -0.834000       15.9994           0
   24642 WT1  9193 TIP3 H1   HT     0.417000        1.0080           0
   24643 WT1  9193 TIP3 H2   HT     0.417000        1.0080           0
   24644 WT1  9194 TIP3 OH2  OT    -0.834000       15.9994           0
   24645 WT1  9194 TIP3 H1   HT     0.417000        1.0080           0
   24646 WT1  9194 TIP3 H2   HT     0.417000        1.0080           0
   24647 WT1  9195 TIP3 OH2  OT    -0.834000       15.9994           0
   24648 WT1  9195 TIP3 H1   HT     0.417000        1.0080           0
   24649 WT1  9195 TIP3 H2   HT     0.417000        1.0080           0
   24650 WT1  9196 TIP3 OH2  OT    -0.834000       15.9994           0
   24651 WT1  9196 TIP3 H1   HT     0.417000        1.0080           0
   24652 WT1  9196 TIP3 H2   HT     0.417000        1.0080           0
   24653 WT1  9197 TIP3 OH2  OT    -0.834000       15.9994           0
   24654 WT1  9197 TIP3 H1   HT     0.417000        1.0080           0
   24655 WT1  9197 TIP3 H2   HT     0.417000        1.0080           0
   24656 WT1  9198 TIP3 OH2  OT    -0.834000       15.9994           0
   24657 WT1  9198 TIP3 H1   HT     0.417000        1.0080           0
   24658 WT1  9198 TIP3 H2   HT     0.417000        1.0080           0
   24659 WT1  9199 TIP3 OH2  OT    -0.834000       15.9994           0
   24660 WT1  9199 TIP3 H1   HT     0.417000        1.0080           0
   24661 WT1  9199 TIP3 H2   HT     0.417000        1.0080           0
   24662 WT1  9201 TIP3 OH2  OT    -0.834000       15.9994           0
   24663 WT1  9201 TIP3 H1   HT     0.417000        1.0080           0
   24664 WT1  9201 TIP3 H2   HT     0.417000        1.0080           0
   24665 WT1  9202 TIP3 OH2  OT    -0.834000       15.9994           0
   24666 WT1  9202 TIP3 H1   HT     0.417000        1.0080           0
   24667 WT1  9202 TIP3 H2   HT     0.417000        1.0080           0
   24668 WT1  9203 TIP3 OH2  OT    -0.834000       15.9994           0
   24669 WT1  9203 TIP3 H1   HT     0.417000        1.0080           0
   24670 WT1  9203 TIP3 H2   HT     0.417000        1.0080           0
   24671 WT1  9204 TIP3 OH2  OT    -0.834000       15.9994           0
   24672 WT1  9204 TIP3 H1   HT     0.417000        1.0080           0
   24673 WT1  9204 TIP3 H2   HT     0.417000        1.0080           0
   24674 WT1  9205 TIP3 OH2  OT    -0.834000       15.9994           0
   24675 WT1  9205 TIP3 H1   HT     0.417000        1.0080           0
   24676 WT1  9205 TIP3 H2   HT     0.417000        1.0080           0
   24677 WT1  9206 TIP3 OH2  OT    -0.834000       15.9994           0
   24678 WT1  9206 TIP3 H1   HT     0.417000        1.0080           0
   24679 WT1  9206 TIP3 H2   HT     0.417000        1.0080           0
   24680 WT1  9207 TIP3 OH2  OT    -0.834000       15.9994           0
   24681 WT1  9207 TIP3 H1   HT     0.417000        1.0080           0
   24682 WT1  9207 TIP3 H2   HT     0.417000        1.0080           0
   24683 WT1  9208 TIP3 OH2  OT    -0.834000       15.9994           0
   24684 WT1  9208 TIP3 H1   HT     0.417000        1.0080           0
   24685 WT1  9208 TIP3 H2   HT     0.417000        1.0080           0
   24686 WT1  9209 TIP3 OH2  OT    -0.834000       15.9994           0
   24687 WT1  9209 TIP3 H1   HT     0.417000        1.0080           0
   24688 WT1  9209 TIP3 H2   HT     0.417000        1.0080           0
   24689 WT1  9210 TIP3 OH2  OT    -0.834000       15.9994           0
   24690 WT1  9210 TIP3 H1   HT     0.417000        1.0080           0
   24691 WT1  9210 TIP3 H2   HT     0.417000        1.0080           0
   24692 WT1  9211 TIP3 OH2  OT    -0.834000       15.9994           0
   24693 WT1  9211 TIP3 H1   HT     0.417000        1.0080           0
   24694 WT1  9211 TIP3 H2   HT     0.417000        1.0080           0
   24695 WT1  9213 TIP3 OH2  OT    -0.834000       15.9994           0
   24696 WT1  9213 TIP3 H1   HT     0.417000        1.0080           0
   24697 WT1  9213 TIP3 H2   HT     0.417000        1.0080           0
   24698 WT1  9214 TIP3 OH2  OT    -0.834000       15.9994           0
   24699 WT1  9214 TIP3 H1   HT     0.417000        1.0080           0
   24700 WT1  9214 TIP3 H2   HT     0.417000        1.0080           0
   24701 WT1  9215 TIP3 OH2  OT    -0.834000       15.9994           0
   24702 WT1  9215 TIP3 H1   HT     0.417000        1.0080           0
   24703 WT1  9215 TIP3 H2   HT     0.417000        1.0080           0
   24704 WT1  9216 TIP3 OH2  OT    -0.834000       15.9994           0
   24705 WT1  9216 TIP3 H1   HT     0.417000        1.0080           0
   24706 WT1  9216 TIP3 H2   HT     0.417000        1.0080           0
   24707 WT1  9217 TIP3 OH2  OT    -0.834000       15.9994           0
   24708 WT1  9217 TIP3 H1   HT     0.417000        1.0080           0
   24709 WT1  9217 TIP3 H2   HT     0.417000        1.0080           0
   24710 WT1  9218 TIP3 OH2  OT    -0.834000       15.9994           0
   24711 WT1  9218 TIP3 H1   HT     0.417000        1.0080           0
   24712 WT1  9218 TIP3 H2   HT     0.417000        1.0080           0
   24713 WT1  9220 TIP3 OH2  OT    -0.834000       15.9994           0
   24714 WT1  9220 TIP3 H1   HT     0.417000        1.0080           0
   24715 WT1  9220 TIP3 H2   HT     0.417000        1.0080           0
   24716 WT1  9221 TIP3 OH2  OT    -0.834000       15.9994           0
   24717 WT1  9221 TIP3 H1   HT     0.417000        1.0080           0
   24718 WT1  9221 TIP3 H2   HT     0.417000        1.0080           0
   24719 WT1  9222 TIP3 OH2  OT    -0.834000       15.9994           0
   24720 WT1  9222 TIP3 H1   HT     0.417000        1.0080           0
   24721 WT1  9222 TIP3 H2   HT     0.417000        1.0080           0
   24722 WT1  9225 TIP3 OH2  OT    -0.834000       15.9994           0
   24723 WT1  9225 TIP3 H1   HT     0.417000        1.0080           0
   24724 WT1  9225 TIP3 H2   HT     0.417000        1.0080           0
   24725 WT1  9226 TIP3 OH2  OT    -0.834000       15.9994           0
   24726 WT1  9226 TIP3 H1   HT     0.417000        1.0080           0
   24727 WT1  9226 TIP3 H2   HT     0.417000        1.0080           0
   24728 WT1  9227 TIP3 OH2  OT    -0.834000       15.9994           0
   24729 WT1  9227 TIP3 H1   HT     0.417000        1.0080           0
   24730 WT1  9227 TIP3 H2   HT     0.417000        1.0080           0
   24731 WT1  9228 TIP3 OH2  OT    -0.834000       15.9994           0
   24732 WT1  9228 TIP3 H1   HT     0.417000        1.0080           0
   24733 WT1  9228 TIP3 H2   HT     0.417000        1.0080           0
   24734 WT1  9229 TIP3 OH2  OT    -0.834000       15.9994           0
   24735 WT1  9229 TIP3 H1   HT     0.417000        1.0080           0
   24736 WT1  9229 TIP3 H2   HT     0.417000        1.0080           0
   24737 WT1  9230 TIP3 OH2  OT    -0.834000       15.9994           0
   24738 WT1  9230 TIP3 H1   HT     0.417000        1.0080           0
   24739 WT1  9230 TIP3 H2   HT     0.417000        1.0080           0
   24740 WT1  9231 TIP3 OH2  OT    -0.834000       15.9994           0
   24741 WT1  9231 TIP3 H1   HT     0.417000        1.0080           0
   24742 WT1  9231 TIP3 H2   HT     0.417000        1.0080           0
   24743 WT1  9232 TIP3 OH2  OT    -0.834000       15.9994           0
   24744 WT1  9232 TIP3 H1   HT     0.417000        1.0080           0
   24745 WT1  9232 TIP3 H2   HT     0.417000        1.0080           0
   24746 WT1  9233 TIP3 OH2  OT    -0.834000       15.9994           0
   24747 WT1  9233 TIP3 H1   HT     0.417000        1.0080           0
   24748 WT1  9233 TIP3 H2   HT     0.417000        1.0080           0
   24749 WT1  9234 TIP3 OH2  OT    -0.834000       15.9994           0
   24750 WT1  9234 TIP3 H1   HT     0.417000        1.0080           0
   24751 WT1  9234 TIP3 H2   HT     0.417000        1.0080           0
   24752 WT1  9235 TIP3 OH2  OT    -0.834000       15.9994           0
   24753 WT1  9235 TIP3 H1   HT     0.417000        1.0080           0
   24754 WT1  9235 TIP3 H2   HT     0.417000        1.0080           0
   24755 WT1  9236 TIP3 OH2  OT    -0.834000       15.9994           0
   24756 WT1  9236 TIP3 H1   HT     0.417000        1.0080           0
   24757 WT1  9236 TIP3 H2   HT     0.417000        1.0080           0
   24758 WT1  9237 TIP3 OH2  OT    -0.834000       15.9994           0
   24759 WT1  9237 TIP3 H1   HT     0.417000        1.0080           0
   24760 WT1  9237 TIP3 H2   HT     0.417000        1.0080           0
   24761 WT1  9239 TIP3 OH2  OT    -0.834000       15.9994           0
   24762 WT1  9239 TIP3 H1   HT     0.417000        1.0080           0
   24763 WT1  9239 TIP3 H2   HT     0.417000        1.0080           0
   24764 WT1  9240 TIP3 OH2  OT    -0.834000       15.9994           0
   24765 WT1  9240 TIP3 H1   HT     0.417000        1.0080           0
   24766 WT1  9240 TIP3 H2   HT     0.417000        1.0080           0
   24767 WT1  9241 TIP3 OH2  OT    -0.834000       15.9994           0
   24768 WT1  9241 TIP3 H1   HT     0.417000        1.0080           0
   24769 WT1  9241 TIP3 H2   HT     0.417000        1.0080           0
   24770 WT1  9243 TIP3 OH2  OT    -0.834000       15.9994           0
   24771 WT1  9243 TIP3 H1   HT     0.417000        1.0080           0
   24772 WT1  9243 TIP3 H2   HT     0.417000        1.0080           0
   24773 WT1  9245 TIP3 OH2  OT    -0.834000       15.9994           0
   24774 WT1  9245 TIP3 H1   HT     0.417000        1.0080           0
   24775 WT1  9245 TIP3 H2   HT     0.417000        1.0080           0
   24776 WT1  9246 TIP3 OH2  OT    -0.834000       15.9994           0
   24777 WT1  9246 TIP3 H1   HT     0.417000        1.0080           0
   24778 WT1  9246 TIP3 H2   HT     0.417000        1.0080           0
   24779 WT1  9247 TIP3 OH2  OT    -0.834000       15.9994           0
   24780 WT1  9247 TIP3 H1   HT     0.417000        1.0080           0
   24781 WT1  9247 TIP3 H2   HT     0.417000        1.0080           0
   24782 WT1  9249 TIP3 OH2  OT    -0.834000       15.9994           0
   24783 WT1  9249 TIP3 H1   HT     0.417000        1.0080           0
   24784 WT1  9249 TIP3 H2   HT     0.417000        1.0080           0
   24785 WT1  9250 TIP3 OH2  OT    -0.834000       15.9994           0
   24786 WT1  9250 TIP3 H1   HT     0.417000        1.0080           0
   24787 WT1  9250 TIP3 H2   HT     0.417000        1.0080           0
   24788 WT1  9251 TIP3 OH2  OT    -0.834000       15.9994           0
   24789 WT1  9251 TIP3 H1   HT     0.417000        1.0080           0
   24790 WT1  9251 TIP3 H2   HT     0.417000        1.0080           0
   24791 WT1  9253 TIP3 OH2  OT    -0.834000       15.9994           0
   24792 WT1  9253 TIP3 H1   HT     0.417000        1.0080           0
   24793 WT1  9253 TIP3 H2   HT     0.417000        1.0080           0
   24794 WT1  9254 TIP3 OH2  OT    -0.834000       15.9994           0
   24795 WT1  9254 TIP3 H1   HT     0.417000        1.0080           0
   24796 WT1  9254 TIP3 H2   HT     0.417000        1.0080           0
   24797 WT1  9255 TIP3 OH2  OT    -0.834000       15.9994           0
   24798 WT1  9255 TIP3 H1   HT     0.417000        1.0080           0
   24799 WT1  9255 TIP3 H2   HT     0.417000        1.0080           0
   24800 WT1  9256 TIP3 OH2  OT    -0.834000       15.9994           0
   24801 WT1  9256 TIP3 H1   HT     0.417000        1.0080           0
   24802 WT1  9256 TIP3 H2   HT     0.417000        1.0080           0
   24803 WT1  9257 TIP3 OH2  OT    -0.834000       15.9994           0
   24804 WT1  9257 TIP3 H1   HT     0.417000        1.0080           0
   24805 WT1  9257 TIP3 H2   HT     0.417000        1.0080           0
   24806 WT1  9258 TIP3 OH2  OT    -0.834000       15.9994           0
   24807 WT1  9258 TIP3 H1   HT     0.417000        1.0080           0
   24808 WT1  9258 TIP3 H2   HT     0.417000        1.0080           0
   24809 WT1  9259 TIP3 OH2  OT    -0.834000       15.9994           0
   24810 WT1  9259 TIP3 H1   HT     0.417000        1.0080           0
   24811 WT1  9259 TIP3 H2   HT     0.417000        1.0080           0
   24812 WT1  9260 TIP3 OH2  OT    -0.834000       15.9994           0
   24813 WT1  9260 TIP3 H1   HT     0.417000        1.0080           0
   24814 WT1  9260 TIP3 H2   HT     0.417000        1.0080           0
   24815 WT1  9261 TIP3 OH2  OT    -0.834000       15.9994           0
   24816 WT1  9261 TIP3 H1   HT     0.417000        1.0080           0
   24817 WT1  9261 TIP3 H2   HT     0.417000        1.0080           0
   24818 WT2  1    TIP3 OH2  OT    -0.834000       15.9994           0
   24819 WT2  1    TIP3 H1   HT     0.417000        1.0080           0
   24820 WT2  1    TIP3 H2   HT     0.417000        1.0080           0
   24821 WT2  2    TIP3 OH2  OT    -0.834000       15.9994           0
   24822 WT2  2    TIP3 H1   HT     0.417000        1.0080           0
   24823 WT2  2    TIP3 H2   HT     0.417000        1.0080           0
   24824 WT2  3    TIP3 OH2  OT    -0.834000       15.9994           0
   24825 WT2  3    TIP3 H1   HT     0.417000        1.0080           0
   24826 WT2  3    TIP3 H2   HT     0.417000        1.0080           0
   24827 WT2  4    TIP3 OH2  OT    -0.834000       15.9994           0
   24828 WT2  4    TIP3 H1   HT     0.417000        1.0080           0
   24829 WT2  4    TIP3 H2   HT     0.417000        1.0080           0
   24830 WT2  5    TIP3 OH2  OT    -0.834000       15.9994           0
   24831 WT2  5    TIP3 H1   HT     0.417000        1.0080           0
   24832 WT2  5    TIP3 H2   HT     0.417000        1.0080           0
   24833 WT2  6    TIP3 OH2  OT    -0.834000       15.9994           0
   24834 WT2  6    TIP3 H1   HT     0.417000        1.0080           0
   24835 WT2  6    TIP3 H2   HT     0.417000        1.0080           0
   24836 WT2  7    TIP3 OH2  OT    -0.834000       15.9994           0
   24837 WT2  7    TIP3 H1   HT     0.417000        1.0080           0
   24838 WT2  7    TIP3 H2   HT     0.417000        1.0080           0
   24839 WT2  8    TIP3 OH2  OT    -0.834000       15.9994           0
   24840 WT2  8    TIP3 H1   HT     0.417000        1.0080           0
   24841 WT2  8    TIP3 H2   HT     0.417000        1.0080           0
   24842 WT2  9    TIP3 OH2  OT    -0.834000       15.9994           0
   24843 WT2  9    TIP3 H1   HT     0.417000        1.0080           0
   24844 WT2  9    TIP3 H2   HT     0.417000        1.0080           0
   24845 WT2  10   TIP3 OH2  OT    -0.834000       15.9994           0
   24846 WT2  10   TIP3 H1   HT     0.417000        1.0080           0
   24847 WT2  10   TIP3 H2   HT     0.417000        1.0080           0
   24848 WT2  11   TIP3 OH2  OT    -0.834000       15.9994           0
   24849 WT2  11   TIP3 H1   HT     0.417000        1.0080           0
   24850 WT2  11   TIP3 H2   HT     0.417000        1.0080           0
   24851 WT2  12   TIP3 OH2  OT    -0.834000       15.9994           0
   24852 WT2  12   TIP3 H1   HT     0.417000        1.0080           0
   24853 WT2  12   TIP3 H2   HT     0.417000        1.0080           0
   24854 WT2  14   TIP3 OH2  OT    -0.834000       15.9994           0
   24855 WT2  14   TIP3 H1   HT     0.417000        1.0080           0
   24856 WT2  14   TIP3 H2   HT     0.417000        1.0080           0
   24857 WT2  16   TIP3 OH2  OT    -0.834000       15.9994           0
   24858 WT2  16   TIP3 H1   HT     0.417000        1.0080           0
   24859 WT2  16   TIP3 H2   HT     0.417000        1.0080           0
   24860 WT2  17   TIP3 OH2  OT    -0.834000       15.9994           0
   24861 WT2  17   TIP3 H1   HT     0.417000        1.0080           0
   24862 WT2  17   TIP3 H2   HT     0.417000        1.0080           0
   24863 WT2  18   TIP3 OH2  OT    -0.834000       15.9994           0
   24864 WT2  18   TIP3 H1   HT     0.417000        1.0080           0
   24865 WT2  18   TIP3 H2   HT     0.417000        1.0080           0
   24866 WT2  20   TIP3 OH2  OT    -0.834000       15.9994           0
   24867 WT2  20   TIP3 H1   HT     0.417000        1.0080           0
   24868 WT2  20   TIP3 H2   HT     0.417000        1.0080           0
   24869 WT2  21   TIP3 OH2  OT    -0.834000       15.9994           0
   24870 WT2  21   TIP3 H1   HT     0.417000        1.0080           0
   24871 WT2  21   TIP3 H2   HT     0.417000        1.0080           0
   24872 WT2  22   TIP3 OH2  OT    -0.834000       15.9994           0
   24873 WT2  22   TIP3 H1   HT     0.417000        1.0080           0
   24874 WT2  22   TIP3 H2   HT     0.417000        1.0080           0
   24875 WT2  23   TIP3 OH2  OT    -0.834000       15.9994           0
   24876 WT2  23   TIP3 H1   HT     0.417000        1.0080           0
   24877 WT2  23   TIP3 H2   HT     0.417000        1.0080           0
   24878 WT2  24   TIP3 OH2  OT    -0.834000       15.9994           0
   24879 WT2  24   TIP3 H1   HT     0.417000        1.0080           0
   24880 WT2  24   TIP3 H2   HT     0.417000        1.0080           0
   24881 WT2  26   TIP3 OH2  OT    -0.834000       15.9994           0
   24882 WT2  26   TIP3 H1   HT     0.417000        1.0080           0
   24883 WT2  26   TIP3 H2   HT     0.417000        1.0080           0
   24884 WT2  27   TIP3 OH2  OT    -0.834000       15.9994           0
   24885 WT2  27   TIP3 H1   HT     0.417000        1.0080           0
   24886 WT2  27   TIP3 H2   HT     0.417000        1.0080           0
   24887 WT2  28   TIP3 OH2  OT    -0.834000       15.9994           0
   24888 WT2  28   TIP3 H1   HT     0.417000        1.0080           0
   24889 WT2  28   TIP3 H2   HT     0.417000        1.0080           0
   24890 WT2  29   TIP3 OH2  OT    -0.834000       15.9994           0
   24891 WT2  29   TIP3 H1   HT     0.417000        1.0080           0
   24892 WT2  29   TIP3 H2   HT     0.417000        1.0080           0
   24893 WT2  30   TIP3 OH2  OT    -0.834000       15.9994           0
   24894 WT2  30   TIP3 H1   HT     0.417000        1.0080           0
   24895 WT2  30   TIP3 H2   HT     0.417000        1.0080           0
   24896 WT2  31   TIP3 OH2  OT    -0.834000       15.9994           0
   24897 WT2  31   TIP3 H1   HT     0.417000        1.0080           0
   24898 WT2  31   TIP3 H2   HT     0.417000        1.0080           0
   24899 WT2  32   TIP3 OH2  OT    -0.834000       15.9994           0
   24900 WT2  32   TIP3 H1   HT     0.417000        1.0080           0
   24901 WT2  32   TIP3 H2   HT     0.417000        1.0080           0
   24902 WT2  33   TIP3 OH2  OT    -0.834000       15.9994           0
   24903 WT2  33   TIP3 H1   HT     0.417000        1.0080           0
   24904 WT2  33   TIP3 H2   HT     0.417000        1.0080           0
   24905 WT2  34   TIP3 OH2  OT    -0.834000       15.9994           0
   24906 WT2  34   TIP3 H1   HT     0.417000        1.0080           0
   24907 WT2  34   TIP3 H2   HT     0.417000        1.0080           0
   24908 WT2  35   TIP3 OH2  OT    -0.834000       15.9994           0
   24909 WT2  35   TIP3 H1   HT     0.417000        1.0080           0
   24910 WT2  35   TIP3 H2   HT     0.417000        1.0080           0
   24911 WT2  38   TIP3 OH2  OT    -0.834000       15.9994           0
   24912 WT2  38   TIP3 H1   HT     0.417000        1.0080           0
   24913 WT2  38   TIP3 H2   HT     0.417000        1.0080           0
   24914 WT2  39   TIP3 OH2  OT    -0.834000       15.9994           0
   24915 WT2  39   TIP3 H1   HT     0.417000        1.0080           0
   24916 WT2  39   TIP3 H2   HT     0.417000        1.0080           0
   24917 WT2  41   TIP3 OH2  OT    -0.834000       15.9994           0
   24918 WT2  41   TIP3 H1   HT     0.417000        1.0080           0
   24919 WT2  41   TIP3 H2   HT     0.417000        1.0080           0
   24920 WT2  42   TIP3 OH2  OT    -0.834000       15.9994           0
   24921 WT2  42   TIP3 H1   HT     0.417000        1.0080           0
   24922 WT2  42   TIP3 H2   HT     0.417000        1.0080           0
   24923 WT2  43   TIP3 OH2  OT    -0.834000       15.9994           0
   24924 WT2  43   TIP3 H1   HT     0.417000        1.0080           0
   24925 WT2  43   TIP3 H2   HT     0.417000        1.0080           0
   24926 WT2  44   TIP3 OH2  OT    -0.834000       15.9994           0
   24927 WT2  44   TIP3 H1   HT     0.417000        1.0080           0
   24928 WT2  44   TIP3 H2   HT     0.417000        1.0080           0
   24929 WT2  45   TIP3 OH2  OT    -0.834000       15.9994           0
   24930 WT2  45   TIP3 H1   HT     0.417000        1.0080           0
   24931 WT2  45   TIP3 H2   HT     0.417000        1.0080           0
   24932 WT2  46   TIP3 OH2  OT    -0.834000       15.9994           0
   24933 WT2  46   TIP3 H1   HT     0.417000        1.0080           0
   24934 WT2  46   TIP3 H2   HT     0.417000        1.0080           0
   24935 WT2  48   TIP3 OH2  OT    -0.834000       15.9994           0
   24936 WT2  48   TIP3 H1   HT     0.417000        1.0080           0
   24937 WT2  48   TIP3 H2   HT     0.417000        1.0080           0
   24938 WT2  50   TIP3 OH2  OT    -0.834000       15.9994           0
   24939 WT2  50   TIP3 H1   HT     0.417000        1.0080           0
   24940 WT2  50   TIP3 H2   HT     0.417000        1.0080           0
   24941 WT2  51   TIP3 OH2  OT    -0.834000       15.9994           0
   24942 WT2  51   TIP3 H1   HT     0.417000        1.0080           0
   24943 WT2  51   TIP3 H2   HT     0.417000        1.0080           0
   24944 WT2  52   TIP3 OH2  OT    -0.834000       15.9994           0
   24945 WT2  52   TIP3 H1   HT     0.417000        1.0080           0
   24946 WT2  52   TIP3 H2   HT     0.417000        1.0080           0
   24947 WT2  53   TIP3 OH2  OT    -0.834000       15.9994           0
   24948 WT2  53   TIP3 H1   HT     0.417000        1.0080           0
   24949 WT2  53   TIP3 H2   HT     0.417000        1.0080           0
   24950 WT2  54   TIP3 OH2  OT    -0.834000       15.9994           0
   24951 WT2  54   TIP3 H1   HT     0.417000        1.0080           0
   24952 WT2  54   TIP3 H2   HT     0.417000        1.0080           0
   24953 WT2  55   TIP3 OH2  OT    -0.834000       15.9994           0
   24954 WT2  55   TIP3 H1   HT     0.417000        1.0080           0
   24955 WT2  55   TIP3 H2   HT     0.417000        1.0080           0
   24956 WT2  56   TIP3 OH2  OT    -0.834000       15.9994           0
   24957 WT2  56   TIP3 H1   HT     0.417000        1.0080           0
   24958 WT2  56   TIP3 H2   HT     0.417000        1.0080           0
   24959 WT2  57   TIP3 OH2  OT    -0.834000       15.9994           0
   24960 WT2  57   TIP3 H1   HT     0.417000        1.0080           0
   24961 WT2  57   TIP3 H2   HT     0.417000        1.0080           0
   24962 WT2  58   TIP3 OH2  OT    -0.834000       15.9994           0
   24963 WT2  58   TIP3 H1   HT     0.417000        1.0080           0
   24964 WT2  58   TIP3 H2   HT     0.417000        1.0080           0
   24965 WT2  59   TIP3 OH2  OT    -0.834000       15.9994           0
   24966 WT2  59   TIP3 H1   HT     0.417000        1.0080           0
   24967 WT2  59   TIP3 H2   HT     0.417000        1.0080           0
   24968 WT2  61   TIP3 OH2  OT    -0.834000       15.9994           0
   24969 WT2  61   TIP3 H1   HT     0.417000        1.0080           0
   24970 WT2  61   TIP3 H2   HT     0.417000        1.0080           0
   24971 WT2  62   TIP3 OH2  OT    -0.834000       15.9994           0
   24972 WT2  62   TIP3 H1   HT     0.417000        1.0080           0
   24973 WT2  62   TIP3 H2   HT     0.417000        1.0080           0
   24974 WT2  64   TIP3 OH2  OT    -0.834000       15.9994           0
   24975 WT2  64   TIP3 H1   HT     0.417000        1.0080           0
   24976 WT2  64   TIP3 H2   HT     0.417000        1.0080           0
   24977 WT2  65   TIP3 OH2  OT    -0.834000       15.9994           0
   24978 WT2  65   TIP3 H1   HT     0.417000        1.0080           0
   24979 WT2  65   TIP3 H2   HT     0.417000        1.0080           0
   24980 WT2  66   TIP3 OH2  OT    -0.834000       15.9994           0
   24981 WT2  66   TIP3 H1   HT     0.417000        1.0080           0
   24982 WT2  66   TIP3 H2   HT     0.417000        1.0080           0
   24983 WT2  67   TIP3 OH2  OT    -0.834000       15.9994           0
   24984 WT2  67   TIP3 H1   HT     0.417000        1.0080           0
   24985 WT2  67   TIP3 H2   HT     0.417000        1.0080           0
   24986 WT2  68   TIP3 OH2  OT    -0.834000       15.9994           0
   24987 WT2  68   TIP3 H1   HT     0.417000        1.0080           0
   24988 WT2  68   TIP3 H2   HT     0.417000        1.0080           0
   24989 WT2  69   TIP3 OH2  OT    -0.834000       15.9994           0
   24990 WT2  69   TIP3 H1   HT     0.417000        1.0080           0
   24991 WT2  69   TIP3 H2   HT     0.417000        1.0080           0
   24992 WT2  70   TIP3 OH2  OT    -0.834000       15.9994           0
   24993 WT2  70   TIP3 H1   HT     0.417000        1.0080           0
   24994 WT2  70   TIP3 H2   HT     0.417000        1.0080           0
   24995 WT2  71   TIP3 OH2  OT    -0.834000       15.9994           0
   24996 WT2  71   TIP3 H1   HT     0.417000        1.0080           0
   24997 WT2  71   TIP3 H2   HT     0.417000        1.0080           0
   24998 WT2  72   TIP3 OH2  OT    -0.834000       15.9994           0
   24999 WT2  72   TIP3 H1   HT     0.417000        1.0080           0
   25000 WT2  72   TIP3 H2   HT     0.417000        1.0080           0
   25001 WT2  73   TIP3 OH2  OT    -0.834000       15.9994           0
   25002 WT2  73   TIP3 H1   HT     0.417000        1.0080           0
   25003 WT2  73   TIP3 H2   HT     0.417000        1.0080           0
   25004 WT2  74   TIP3 OH2  OT    -0.834000       15.9994           0
   25005 WT2  74   TIP3 H1   HT     0.417000        1.0080           0
   25006 WT2  74   TIP3 H2   HT     0.417000        1.0080           0
   25007 WT2  75   TIP3 OH2  OT    -0.834000       15.9994           0
   25008 WT2  75   TIP3 H1   HT     0.417000        1.0080           0
   25009 WT2  75   TIP3 H2   HT     0.417000        1.0080           0
   25010 WT2  77   TIP3 OH2  OT    -0.834000       15.9994           0
   25011 WT2  77   TIP3 H1   HT     0.417000        1.0080           0
   25012 WT2  77   TIP3 H2   HT     0.417000        1.0080           0
   25013 WT2  78   TIP3 OH2  OT    -0.834000       15.9994           0
   25014 WT2  78   TIP3 H1   HT     0.417000        1.0080           0
   25015 WT2  78   TIP3 H2   HT     0.417000        1.0080           0
   25016 WT2  80   TIP3 OH2  OT    -0.834000       15.9994           0
   25017 WT2  80   TIP3 H1   HT     0.417000        1.0080           0
   25018 WT2  80   TIP3 H2   HT     0.417000        1.0080           0
   25019 WT2  81   TIP3 OH2  OT    -0.834000       15.9994           0
   25020 WT2  81   TIP3 H1   HT     0.417000        1.0080           0
   25021 WT2  81   TIP3 H2   HT     0.417000        1.0080           0
   25022 WT2  82   TIP3 OH2  OT    -0.834000       15.9994           0
   25023 WT2  82   TIP3 H1   HT     0.417000        1.0080           0
   25024 WT2  82   TIP3 H2   HT     0.417000        1.0080           0
   25025 WT2  83   TIP3 OH2  OT    -0.834000       15.9994           0
   25026 WT2  83   TIP3 H1   HT     0.417000        1.0080           0
   25027 WT2  83   TIP3 H2   HT     0.417000        1.0080           0
   25028 WT2  84   TIP3 OH2  OT    -0.834000       15.9994           0
   25029 WT2  84   TIP3 H1   HT     0.417000        1.0080           0
   25030 WT2  84   TIP3 H2   HT     0.417000        1.0080           0
   25031 WT2  85   TIP3 OH2  OT    -0.834000       15.9994           0
   25032 WT2  85   TIP3 H1   HT     0.417000        1.0080           0
   25033 WT2  85   TIP3 H2   HT     0.417000        1.0080           0
   25034 WT2  86   TIP3 OH2  OT    -0.834000       15.9994           0
   25035 WT2  86   TIP3 H1   HT     0.417000        1.0080           0
   25036 WT2  86   TIP3 H2   HT     0.417000        1.0080           0
   25037 WT2  87   TIP3 OH2  OT    -0.834000       15.9994           0
   25038 WT2  87   TIP3 H1   HT     0.417000        1.0080           0
   25039 WT2  87   TIP3 H2   HT     0.417000        1.0080           0
   25040 WT2  89   TIP3 OH2  OT    -0.834000       15.9994           0
   25041 WT2  89   TIP3 H1   HT     0.417000        1.0080           0
   25042 WT2  89   TIP3 H2   HT     0.417000        1.0080           0
   25043 WT2  90   TIP3 OH2  OT    -0.834000       15.9994           0
   25044 WT2  90   TIP3 H1   HT     0.417000        1.0080           0
   25045 WT2  90   TIP3 H2   HT     0.417000        1.0080           0
   25046 WT2  91   TIP3 OH2  OT    -0.834000       15.9994           0
   25047 WT2  91   TIP3 H1   HT     0.417000        1.0080           0
   25048 WT2  91   TIP3 H2   HT     0.417000        1.0080           0
   25049 WT2  92   TIP3 OH2  OT    -0.834000       15.9994           0
   25050 WT2  92   TIP3 H1   HT     0.417000        1.0080           0
   25051 WT2  92   TIP3 H2   HT     0.417000        1.0080           0
   25052 WT2  93   TIP3 OH2  OT    -0.834000       15.9994           0
   25053 WT2  93   TIP3 H1   HT     0.417000        1.0080           0
   25054 WT2  93   TIP3 H2   HT     0.417000        1.0080           0
   25055 WT2  95   TIP3 OH2  OT    -0.834000       15.9994           0
   25056 WT2  95   TIP3 H1   HT     0.417000        1.0080           0
   25057 WT2  95   TIP3 H2   HT     0.417000        1.0080           0
   25058 WT2  96   TIP3 OH2  OT    -0.834000       15.9994           0
   25059 WT2  96   TIP3 H1   HT     0.417000        1.0080           0
   25060 WT2  96   TIP3 H2   HT     0.417000        1.0080           0
   25061 WT2  97   TIP3 OH2  OT    -0.834000       15.9994           0
   25062 WT2  97   TIP3 H1   HT     0.417000        1.0080           0
   25063 WT2  97   TIP3 H2   HT     0.417000        1.0080           0
   25064 WT2  98   TIP3 OH2  OT    -0.834000       15.9994           0
   25065 WT2  98   TIP3 H1   HT     0.417000        1.0080           0
   25066 WT2  98   TIP3 H2   HT     0.417000        1.0080           0
   25067 WT2  99   TIP3 OH2  OT    -0.834000       15.9994           0
   25068 WT2  99   TIP3 H1   HT     0.417000        1.0080           0
   25069 WT2  99   TIP3 H2   HT     0.417000        1.0080           0
   25070 WT2  100  TIP3 OH2  OT    -0.834000       15.9994           0
   25071 WT2  100  TIP3 H1   HT     0.417000        1.0080           0
   25072 WT2  100  TIP3 H2   HT     0.417000        1.0080           0
   25073 WT2  101  TIP3 OH2  OT    -0.834000       15.9994           0
   25074 WT2  101  TIP3 H1   HT     0.417000        1.0080           0
   25075 WT2  101  TIP3 H2   HT     0.417000        1.0080           0
   25076 WT2  102  TIP3 OH2  OT    -0.834000       15.9994           0
   25077 WT2  102  TIP3 H1   HT     0.417000        1.0080           0
   25078 WT2  102  TIP3 H2   HT     0.417000        1.0080           0
   25079 WT2  103  TIP3 OH2  OT    -0.834000       15.9994           0
   25080 WT2  103  TIP3 H1   HT     0.417000        1.0080           0
   25081 WT2  103  TIP3 H2   HT     0.417000        1.0080           0
   25082 WT2  105  TIP3 OH2  OT    -0.834000       15.9994           0
   25083 WT2  105  TIP3 H1   HT     0.417000        1.0080           0
   25084 WT2  105  TIP3 H2   HT     0.417000        1.0080           0
   25085 WT2  106  TIP3 OH2  OT    -0.834000       15.9994           0
   25086 WT2  106  TIP3 H1   HT     0.417000        1.0080           0
   25087 WT2  106  TIP3 H2   HT     0.417000        1.0080           0
   25088 WT2  107  TIP3 OH2  OT    -0.834000       15.9994           0
   25089 WT2  107  TIP3 H1   HT     0.417000        1.0080           0
   25090 WT2  107  TIP3 H2   HT     0.417000        1.0080           0
   25091 WT2  108  TIP3 OH2  OT    -0.834000       15.9994           0
   25092 WT2  108  TIP3 H1   HT     0.417000        1.0080           0
   25093 WT2  108  TIP3 H2   HT     0.417000        1.0080           0
   25094 WT2  109  TIP3 OH2  OT    -0.834000       15.9994           0
   25095 WT2  109  TIP3 H1   HT     0.417000        1.0080           0
   25096 WT2  109  TIP3 H2   HT     0.417000        1.0080           0
   25097 WT2  110  TIP3 OH2  OT    -0.834000       15.9994           0
   25098 WT2  110  TIP3 H1   HT     0.417000        1.0080           0
   25099 WT2  110  TIP3 H2   HT     0.417000        1.0080           0
   25100 WT2  111  TIP3 OH2  OT    -0.834000       15.9994           0
   25101 WT2  111  TIP3 H1   HT     0.417000        1.0080           0
   25102 WT2  111  TIP3 H2   HT     0.417000        1.0080           0
   25103 WT2  112  TIP3 OH2  OT    -0.834000       15.9994           0
   25104 WT2  112  TIP3 H1   HT     0.417000        1.0080           0
   25105 WT2  112  TIP3 H2   HT     0.417000        1.0080           0
   25106 WT2  113  TIP3 OH2  OT    -0.834000       15.9994           0
   25107 WT2  113  TIP3 H1   HT     0.417000        1.0080           0
   25108 WT2  113  TIP3 H2   HT     0.417000        1.0080           0
   25109 WT2  114  TIP3 OH2  OT    -0.834000       15.9994           0
   25110 WT2  114  TIP3 H1   HT     0.417000        1.0080           0
   25111 WT2  114  TIP3 H2   HT     0.417000        1.0080           0
   25112 WT2  115  TIP3 OH2  OT    -0.834000       15.9994           0
   25113 WT2  115  TIP3 H1   HT     0.417000        1.0080           0
   25114 WT2  115  TIP3 H2   HT     0.417000        1.0080           0
   25115 WT2  116  TIP3 OH2  OT    -0.834000       15.9994           0
   25116 WT2  116  TIP3 H1   HT     0.417000        1.0080           0
   25117 WT2  116  TIP3 H2   HT     0.417000        1.0080           0
   25118 WT2  117  TIP3 OH2  OT    -0.834000       15.9994           0
   25119 WT2  117  TIP3 H1   HT     0.417000        1.0080           0
   25120 WT2  117  TIP3 H2   HT     0.417000        1.0080           0
   25121 WT2  118  TIP3 OH2  OT    -0.834000       15.9994           0
   25122 WT2  118  TIP3 H1   HT     0.417000        1.0080           0
   25123 WT2  118  TIP3 H2   HT     0.417000        1.0080           0
   25124 WT2  119  TIP3 OH2  OT    -0.834000       15.9994           0
   25125 WT2  119  TIP3 H1   HT     0.417000        1.0080           0
   25126 WT2  119  TIP3 H2   HT     0.417000        1.0080           0
   25127 WT2  121  TIP3 OH2  OT    -0.834000       15.9994           0
   25128 WT2  121  TIP3 H1   HT     0.417000        1.0080           0
   25129 WT2  121  TIP3 H2   HT     0.417000        1.0080           0
   25130 WT2  122  TIP3 OH2  OT    -0.834000       15.9994           0
   25131 WT2  122  TIP3 H1   HT     0.417000        1.0080           0
   25132 WT2  122  TIP3 H2   HT     0.417000        1.0080           0
   25133 WT2  123  TIP3 OH2  OT    -0.834000       15.9994           0
   25134 WT2  123  TIP3 H1   HT     0.417000        1.0080           0
   25135 WT2  123  TIP3 H2   HT     0.417000        1.0080           0
   25136 WT2  124  TIP3 OH2  OT    -0.834000       15.9994           0
   25137 WT2  124  TIP3 H1   HT     0.417000        1.0080           0
   25138 WT2  124  TIP3 H2   HT     0.417000        1.0080           0
   25139 WT2  125  TIP3 OH2  OT    -0.834000       15.9994           0
   25140 WT2  125  TIP3 H1   HT     0.417000        1.0080           0
   25141 WT2  125  TIP3 H2   HT     0.417000        1.0080           0
   25142 WT2  127  TIP3 OH2  OT    -0.834000       15.9994           0
   25143 WT2  127  TIP3 H1   HT     0.417000        1.0080           0
   25144 WT2  127  TIP3 H2   HT     0.417000        1.0080           0
   25145 WT2  128  TIP3 OH2  OT    -0.834000       15.9994           0
   25146 WT2  128  TIP3 H1   HT     0.417000        1.0080           0
   25147 WT2  128  TIP3 H2   HT     0.417000        1.0080           0
   25148 WT2  129  TIP3 OH2  OT    -0.834000       15.9994           0
   25149 WT2  129  TIP3 H1   HT     0.417000        1.0080           0
   25150 WT2  129  TIP3 H2   HT     0.417000        1.0080           0
   25151 WT2  131  TIP3 OH2  OT    -0.834000       15.9994           0
   25152 WT2  131  TIP3 H1   HT     0.417000        1.0080           0
   25153 WT2  131  TIP3 H2   HT     0.417000        1.0080           0
   25154 WT2  133  TIP3 OH2  OT    -0.834000       15.9994           0
   25155 WT2  133  TIP3 H1   HT     0.417000        1.0080           0
   25156 WT2  133  TIP3 H2   HT     0.417000        1.0080           0
   25157 WT2  134  TIP3 OH2  OT    -0.834000       15.9994           0
   25158 WT2  134  TIP3 H1   HT     0.417000        1.0080           0
   25159 WT2  134  TIP3 H2   HT     0.417000        1.0080           0
   25160 WT2  136  TIP3 OH2  OT    -0.834000       15.9994           0
   25161 WT2  136  TIP3 H1   HT     0.417000        1.0080           0
   25162 WT2  136  TIP3 H2   HT     0.417000        1.0080           0
   25163 WT2  137  TIP3 OH2  OT    -0.834000       15.9994           0
   25164 WT2  137  TIP3 H1   HT     0.417000        1.0080           0
   25165 WT2  137  TIP3 H2   HT     0.417000        1.0080           0
   25166 WT2  138  TIP3 OH2  OT    -0.834000       15.9994           0
   25167 WT2  138  TIP3 H1   HT     0.417000        1.0080           0
   25168 WT2  138  TIP3 H2   HT     0.417000        1.0080           0
   25169 WT2  139  TIP3 OH2  OT    -0.834000       15.9994           0
   25170 WT2  139  TIP3 H1   HT     0.417000        1.0080           0
   25171 WT2  139  TIP3 H2   HT     0.417000        1.0080           0
   25172 WT2  140  TIP3 OH2  OT    -0.834000       15.9994           0
   25173 WT2  140  TIP3 H1   HT     0.417000        1.0080           0
   25174 WT2  140  TIP3 H2   HT     0.417000        1.0080           0
   25175 WT2  143  TIP3 OH2  OT    -0.834000       15.9994           0
   25176 WT2  143  TIP3 H1   HT     0.417000        1.0080           0
   25177 WT2  143  TIP3 H2   HT     0.417000        1.0080           0
   25178 WT2  144  TIP3 OH2  OT    -0.834000       15.9994           0
   25179 WT2  144  TIP3 H1   HT     0.417000        1.0080           0
   25180 WT2  144  TIP3 H2   HT     0.417000        1.0080           0
   25181 WT2  145  TIP3 OH2  OT    -0.834000       15.9994           0
   25182 WT2  145  TIP3 H1   HT     0.417000        1.0080           0
   25183 WT2  145  TIP3 H2   HT     0.417000        1.0080           0
   25184 WT2  146  TIP3 OH2  OT    -0.834000       15.9994           0
   25185 WT2  146  TIP3 H1   HT     0.417000        1.0080           0
   25186 WT2  146  TIP3 H2   HT     0.417000        1.0080           0
   25187 WT2  147  TIP3 OH2  OT    -0.834000       15.9994           0
   25188 WT2  147  TIP3 H1   HT     0.417000        1.0080           0
   25189 WT2  147  TIP3 H2   HT     0.417000        1.0080           0
   25190 WT2  148  TIP3 OH2  OT    -0.834000       15.9994           0
   25191 WT2  148  TIP3 H1   HT     0.417000        1.0080           0
   25192 WT2  148  TIP3 H2   HT     0.417000        1.0080           0
   25193 WT2  149  TIP3 OH2  OT    -0.834000       15.9994           0
   25194 WT2  149  TIP3 H1   HT     0.417000        1.0080           0
   25195 WT2  149  TIP3 H2   HT     0.417000        1.0080           0
   25196 WT2  150  TIP3 OH2  OT    -0.834000       15.9994           0
   25197 WT2  150  TIP3 H1   HT     0.417000        1.0080           0
   25198 WT2  150  TIP3 H2   HT     0.417000        1.0080           0
   25199 WT2  151  TIP3 OH2  OT    -0.834000       15.9994           0
   25200 WT2  151  TIP3 H1   HT     0.417000        1.0080           0
   25201 WT2  151  TIP3 H2   HT     0.417000        1.0080           0
   25202 WT2  152  TIP3 OH2  OT    -0.834000       15.9994           0
   25203 WT2  152  TIP3 H1   HT     0.417000        1.0080           0
   25204 WT2  152  TIP3 H2   HT     0.417000        1.0080           0
   25205 WT2  153  TIP3 OH2  OT    -0.834000       15.9994           0
   25206 WT2  153  TIP3 H1   HT     0.417000        1.0080           0
   25207 WT2  153  TIP3 H2   HT     0.417000        1.0080           0
   25208 WT2  154  TIP3 OH2  OT    -0.834000       15.9994           0
   25209 WT2  154  TIP3 H1   HT     0.417000        1.0080           0
   25210 WT2  154  TIP3 H2   HT     0.417000        1.0080           0
   25211 WT2  155  TIP3 OH2  OT    -0.834000       15.9994           0
   25212 WT2  155  TIP3 H1   HT     0.417000        1.0080           0
   25213 WT2  155  TIP3 H2   HT     0.417000        1.0080           0
   25214 WT2  156  TIP3 OH2  OT    -0.834000       15.9994           0
   25215 WT2  156  TIP3 H1   HT     0.417000        1.0080           0
   25216 WT2  156  TIP3 H2   HT     0.417000        1.0080           0
   25217 WT2  157  TIP3 OH2  OT    -0.834000       15.9994           0
   25218 WT2  157  TIP3 H1   HT     0.417000        1.0080           0
   25219 WT2  157  TIP3 H2   HT     0.417000        1.0080           0
   25220 WT2  160  TIP3 OH2  OT    -0.834000       15.9994           0
   25221 WT2  160  TIP3 H1   HT     0.417000        1.0080           0
   25222 WT2  160  TIP3 H2   HT     0.417000        1.0080           0
   25223 WT2  161  TIP3 OH2  OT    -0.834000       15.9994           0
   25224 WT2  161  TIP3 H1   HT     0.417000        1.0080           0
   25225 WT2  161  TIP3 H2   HT     0.417000        1.0080           0
   25226 WT2  162  TIP3 OH2  OT    -0.834000       15.9994           0
   25227 WT2  162  TIP3 H1   HT     0.417000        1.0080           0
   25228 WT2  162  TIP3 H2   HT     0.417000        1.0080           0
   25229 WT2  163  TIP3 OH2  OT    -0.834000       15.9994           0
   25230 WT2  163  TIP3 H1   HT     0.417000        1.0080           0
   25231 WT2  163  TIP3 H2   HT     0.417000        1.0080           0
   25232 WT2  164  TIP3 OH2  OT    -0.834000       15.9994           0
   25233 WT2  164  TIP3 H1   HT     0.417000        1.0080           0
   25234 WT2  164  TIP3 H2   HT     0.417000        1.0080           0
   25235 WT2  165  TIP3 OH2  OT    -0.834000       15.9994           0
   25236 WT2  165  TIP3 H1   HT     0.417000        1.0080           0
   25237 WT2  165  TIP3 H2   HT     0.417000        1.0080           0
   25238 WT2  168  TIP3 OH2  OT    -0.834000       15.9994           0
   25239 WT2  168  TIP3 H1   HT     0.417000        1.0080           0
   25240 WT2  168  TIP3 H2   HT     0.417000        1.0080           0
   25241 WT2  169  TIP3 OH2  OT    -0.834000       15.9994           0
   25242 WT2  169  TIP3 H1   HT     0.417000        1.0080           0
   25243 WT2  169  TIP3 H2   HT     0.417000        1.0080           0
   25244 WT2  170  TIP3 OH2  OT    -0.834000       15.9994           0
   25245 WT2  170  TIP3 H1   HT     0.417000        1.0080           0
   25246 WT2  170  TIP3 H2   HT     0.417000        1.0080           0
   25247 WT2  172  TIP3 OH2  OT    -0.834000       15.9994           0
   25248 WT2  172  TIP3 H1   HT     0.417000        1.0080           0
   25249 WT2  172  TIP3 H2   HT     0.417000        1.0080           0
   25250 WT2  173  TIP3 OH2  OT    -0.834000       15.9994           0
   25251 WT2  173  TIP3 H1   HT     0.417000        1.0080           0
   25252 WT2  173  TIP3 H2   HT     0.417000        1.0080           0
   25253 WT2  174  TIP3 OH2  OT    -0.834000       15.9994           0
   25254 WT2  174  TIP3 H1   HT     0.417000        1.0080           0
   25255 WT2  174  TIP3 H2   HT     0.417000        1.0080           0
   25256 WT2  177  TIP3 OH2  OT    -0.834000       15.9994           0
   25257 WT2  177  TIP3 H1   HT     0.417000        1.0080           0
   25258 WT2  177  TIP3 H2   HT     0.417000        1.0080           0
   25259 WT2  178  TIP3 OH2  OT    -0.834000       15.9994           0
   25260 WT2  178  TIP3 H1   HT     0.417000        1.0080           0
   25261 WT2  178  TIP3 H2   HT     0.417000        1.0080           0
   25262 WT2  180  TIP3 OH2  OT    -0.834000       15.9994           0
   25263 WT2  180  TIP3 H1   HT     0.417000        1.0080           0
   25264 WT2  180  TIP3 H2   HT     0.417000        1.0080           0
   25265 WT2  181  TIP3 OH2  OT    -0.834000       15.9994           0
   25266 WT2  181  TIP3 H1   HT     0.417000        1.0080           0
   25267 WT2  181  TIP3 H2   HT     0.417000        1.0080           0
   25268 WT2  183  TIP3 OH2  OT    -0.834000       15.9994           0
   25269 WT2  183  TIP3 H1   HT     0.417000        1.0080           0
   25270 WT2  183  TIP3 H2   HT     0.417000        1.0080           0
   25271 WT2  184  TIP3 OH2  OT    -0.834000       15.9994           0
   25272 WT2  184  TIP3 H1   HT     0.417000        1.0080           0
   25273 WT2  184  TIP3 H2   HT     0.417000        1.0080           0
   25274 WT2  185  TIP3 OH2  OT    -0.834000       15.9994           0
   25275 WT2  185  TIP3 H1   HT     0.417000        1.0080           0
   25276 WT2  185  TIP3 H2   HT     0.417000        1.0080           0
   25277 WT2  186  TIP3 OH2  OT    -0.834000       15.9994           0
   25278 WT2  186  TIP3 H1   HT     0.417000        1.0080           0
   25279 WT2  186  TIP3 H2   HT     0.417000        1.0080           0
   25280 WT2  187  TIP3 OH2  OT    -0.834000       15.9994           0
   25281 WT2  187  TIP3 H1   HT     0.417000        1.0080           0
   25282 WT2  187  TIP3 H2   HT     0.417000        1.0080           0
   25283 WT2  188  TIP3 OH2  OT    -0.834000       15.9994           0
   25284 WT2  188  TIP3 H1   HT     0.417000        1.0080           0
   25285 WT2  188  TIP3 H2   HT     0.417000        1.0080           0
   25286 WT2  189  TIP3 OH2  OT    -0.834000       15.9994           0
   25287 WT2  189  TIP3 H1   HT     0.417000        1.0080           0
   25288 WT2  189  TIP3 H2   HT     0.417000        1.0080           0
   25289 WT2  190  TIP3 OH2  OT    -0.834000       15.9994           0
   25290 WT2  190  TIP3 H1   HT     0.417000        1.0080           0
   25291 WT2  190  TIP3 H2   HT     0.417000        1.0080           0
   25292 WT2  191  TIP3 OH2  OT    -0.834000       15.9994           0
   25293 WT2  191  TIP3 H1   HT     0.417000        1.0080           0
   25294 WT2  191  TIP3 H2   HT     0.417000        1.0080           0
   25295 WT2  192  TIP3 OH2  OT    -0.834000       15.9994           0
   25296 WT2  192  TIP3 H1   HT     0.417000        1.0080           0
   25297 WT2  192  TIP3 H2   HT     0.417000        1.0080           0
   25298 WT2  193  TIP3 OH2  OT    -0.834000       15.9994           0
   25299 WT2  193  TIP3 H1   HT     0.417000        1.0080           0
   25300 WT2  193  TIP3 H2   HT     0.417000        1.0080           0
   25301 WT2  195  TIP3 OH2  OT    -0.834000       15.9994           0
   25302 WT2  195  TIP3 H1   HT     0.417000        1.0080           0
   25303 WT2  195  TIP3 H2   HT     0.417000        1.0080           0
   25304 WT2  196  TIP3 OH2  OT    -0.834000       15.9994           0
   25305 WT2  196  TIP3 H1   HT     0.417000        1.0080           0
   25306 WT2  196  TIP3 H2   HT     0.417000        1.0080           0
   25307 WT2  197  TIP3 OH2  OT    -0.834000       15.9994           0
   25308 WT2  197  TIP3 H1   HT     0.417000        1.0080           0
   25309 WT2  197  TIP3 H2   HT     0.417000        1.0080           0
   25310 WT2  198  TIP3 OH2  OT    -0.834000       15.9994           0
   25311 WT2  198  TIP3 H1   HT     0.417000        1.0080           0
   25312 WT2  198  TIP3 H2   HT     0.417000        1.0080           0
   25313 WT2  199  TIP3 OH2  OT    -0.834000       15.9994           0
   25314 WT2  199  TIP3 H1   HT     0.417000        1.0080           0
   25315 WT2  199  TIP3 H2   HT     0.417000        1.0080           0
   25316 WT2  200  TIP3 OH2  OT    -0.834000       15.9994           0
   25317 WT2  200  TIP3 H1   HT     0.417000        1.0080           0
   25318 WT2  200  TIP3 H2   HT     0.417000        1.0080           0
   25319 WT2  201  TIP3 OH2  OT    -0.834000       15.9994           0
   25320 WT2  201  TIP3 H1   HT     0.417000        1.0080           0
   25321 WT2  201  TIP3 H2   HT     0.417000        1.0080           0
   25322 WT2  202  TIP3 OH2  OT    -0.834000       15.9994           0
   25323 WT2  202  TIP3 H1   HT     0.417000        1.0080           0
   25324 WT2  202  TIP3 H2   HT     0.417000        1.0080           0
   25325 WT2  203  TIP3 OH2  OT    -0.834000       15.9994           0
   25326 WT2  203  TIP3 H1   HT     0.417000        1.0080           0
   25327 WT2  203  TIP3 H2   HT     0.417000        1.0080           0
   25328 WT2  204  TIP3 OH2  OT    -0.834000       15.9994           0
   25329 WT2  204  TIP3 H1   HT     0.417000        1.0080           0
   25330 WT2  204  TIP3 H2   HT     0.417000        1.0080           0
   25331 WT2  206  TIP3 OH2  OT    -0.834000       15.9994           0
   25332 WT2  206  TIP3 H1   HT     0.417000        1.0080           0
   25333 WT2  206  TIP3 H2   HT     0.417000        1.0080           0
   25334 WT2  207  TIP3 OH2  OT    -0.834000       15.9994           0
   25335 WT2  207  TIP3 H1   HT     0.417000        1.0080           0
   25336 WT2  207  TIP3 H2   HT     0.417000        1.0080           0
   25337 WT2  208  TIP3 OH2  OT    -0.834000       15.9994           0
   25338 WT2  208  TIP3 H1   HT     0.417000        1.0080           0
   25339 WT2  208  TIP3 H2   HT     0.417000        1.0080           0
   25340 WT2  209  TIP3 OH2  OT    -0.834000       15.9994           0
   25341 WT2  209  TIP3 H1   HT     0.417000        1.0080           0
   25342 WT2  209  TIP3 H2   HT     0.417000        1.0080           0
   25343 WT2  210  TIP3 OH2  OT    -0.834000       15.9994           0
   25344 WT2  210  TIP3 H1   HT     0.417000        1.0080           0
   25345 WT2  210  TIP3 H2   HT     0.417000        1.0080           0
   25346 WT2  211  TIP3 OH2  OT    -0.834000       15.9994           0
   25347 WT2  211  TIP3 H1   HT     0.417000        1.0080           0
   25348 WT2  211  TIP3 H2   HT     0.417000        1.0080           0
   25349 WT2  212  TIP3 OH2  OT    -0.834000       15.9994           0
   25350 WT2  212  TIP3 H1   HT     0.417000        1.0080           0
   25351 WT2  212  TIP3 H2   HT     0.417000        1.0080           0
   25352 WT2  214  TIP3 OH2  OT    -0.834000       15.9994           0
   25353 WT2  214  TIP3 H1   HT     0.417000        1.0080           0
   25354 WT2  214  TIP3 H2   HT     0.417000        1.0080           0
   25355 WT2  215  TIP3 OH2  OT    -0.834000       15.9994           0
   25356 WT2  215  TIP3 H1   HT     0.417000        1.0080           0
   25357 WT2  215  TIP3 H2   HT     0.417000        1.0080           0
   25358 WT2  216  TIP3 OH2  OT    -0.834000       15.9994           0
   25359 WT2  216  TIP3 H1   HT     0.417000        1.0080           0
   25360 WT2  216  TIP3 H2   HT     0.417000        1.0080           0
   25361 WT2  217  TIP3 OH2  OT    -0.834000       15.9994           0
   25362 WT2  217  TIP3 H1   HT     0.417000        1.0080           0
   25363 WT2  217  TIP3 H2   HT     0.417000        1.0080           0
   25364 WT2  218  TIP3 OH2  OT    -0.834000       15.9994           0
   25365 WT2  218  TIP3 H1   HT     0.417000        1.0080           0
   25366 WT2  218  TIP3 H2   HT     0.417000        1.0080           0
   25367 WT2  219  TIP3 OH2  OT    -0.834000       15.9994           0
   25368 WT2  219  TIP3 H1   HT     0.417000        1.0080           0
   25369 WT2  219  TIP3 H2   HT     0.417000        1.0080           0
   25370 WT2  220  TIP3 OH2  OT    -0.834000       15.9994           0
   25371 WT2  220  TIP3 H1   HT     0.417000        1.0080           0
   25372 WT2  220  TIP3 H2   HT     0.417000        1.0080           0
   25373 WT2  221  TIP3 OH2  OT    -0.834000       15.9994           0
   25374 WT2  221  TIP3 H1   HT     0.417000        1.0080           0
   25375 WT2  221  TIP3 H2   HT     0.417000        1.0080           0
   25376 WT2  222  TIP3 OH2  OT    -0.834000       15.9994           0
   25377 WT2  222  TIP3 H1   HT     0.417000        1.0080           0
   25378 WT2  222  TIP3 H2   HT     0.417000        1.0080           0
   25379 WT2  223  TIP3 OH2  OT    -0.834000       15.9994           0
   25380 WT2  223  TIP3 H1   HT     0.417000        1.0080           0
   25381 WT2  223  TIP3 H2   HT     0.417000        1.0080           0
   25382 WT2  224  TIP3 OH2  OT    -0.834000       15.9994           0
   25383 WT2  224  TIP3 H1   HT     0.417000        1.0080           0
   25384 WT2  224  TIP3 H2   HT     0.417000        1.0080           0
   25385 WT2  225  TIP3 OH2  OT    -0.834000       15.9994           0
   25386 WT2  225  TIP3 H1   HT     0.417000        1.0080           0
   25387 WT2  225  TIP3 H2   HT     0.417000        1.0080           0
   25388 WT2  226  TIP3 OH2  OT    -0.834000       15.9994           0
   25389 WT2  226  TIP3 H1   HT     0.417000        1.0080           0
   25390 WT2  226  TIP3 H2   HT     0.417000        1.0080           0
   25391 WT2  227  TIP3 OH2  OT    -0.834000       15.9994           0
   25392 WT2  227  TIP3 H1   HT     0.417000        1.0080           0
   25393 WT2  227  TIP3 H2   HT     0.417000        1.0080           0
   25394 WT2  228  TIP3 OH2  OT    -0.834000       15.9994           0
   25395 WT2  228  TIP3 H1   HT     0.417000        1.0080           0
   25396 WT2  228  TIP3 H2   HT     0.417000        1.0080           0
   25397 WT2  230  TIP3 OH2  OT    -0.834000       15.9994           0
   25398 WT2  230  TIP3 H1   HT     0.417000        1.0080           0
   25399 WT2  230  TIP3 H2   HT     0.417000        1.0080           0
   25400 WT2  231  TIP3 OH2  OT    -0.834000       15.9994           0
   25401 WT2  231  TIP3 H1   HT     0.417000        1.0080           0
   25402 WT2  231  TIP3 H2   HT     0.417000        1.0080           0
   25403 WT2  232  TIP3 OH2  OT    -0.834000       15.9994           0
   25404 WT2  232  TIP3 H1   HT     0.417000        1.0080           0
   25405 WT2  232  TIP3 H2   HT     0.417000        1.0080           0
   25406 WT2  233  TIP3 OH2  OT    -0.834000       15.9994           0
   25407 WT2  233  TIP3 H1   HT     0.417000        1.0080           0
   25408 WT2  233  TIP3 H2   HT     0.417000        1.0080           0
   25409 WT2  234  TIP3 OH2  OT    -0.834000       15.9994           0
   25410 WT2  234  TIP3 H1   HT     0.417000        1.0080           0
   25411 WT2  234  TIP3 H2   HT     0.417000        1.0080           0
   25412 WT2  235  TIP3 OH2  OT    -0.834000       15.9994           0
   25413 WT2  235  TIP3 H1   HT     0.417000        1.0080           0
   25414 WT2  235  TIP3 H2   HT     0.417000        1.0080           0
   25415 WT2  236  TIP3 OH2  OT    -0.834000       15.9994           0
   25416 WT2  236  TIP3 H1   HT     0.417000        1.0080           0
   25417 WT2  236  TIP3 H2   HT     0.417000        1.0080           0
   25418 WT2  237  TIP3 OH2  OT    -0.834000       15.9994           0
   25419 WT2  237  TIP3 H1   HT     0.417000        1.0080           0
   25420 WT2  237  TIP3 H2   HT     0.417000        1.0080           0
   25421 WT2  238  TIP3 OH2  OT    -0.834000       15.9994           0
   25422 WT2  238  TIP3 H1   HT     0.417000        1.0080           0
   25423 WT2  238  TIP3 H2   HT     0.417000        1.0080           0
   25424 WT2  239  TIP3 OH2  OT    -0.834000       15.9994           0
   25425 WT2  239  TIP3 H1   HT     0.417000        1.0080           0
   25426 WT2  239  TIP3 H2   HT     0.417000        1.0080           0
   25427 WT2  240  TIP3 OH2  OT    -0.834000       15.9994           0
   25428 WT2  240  TIP3 H1   HT     0.417000        1.0080           0
   25429 WT2  240  TIP3 H2   HT     0.417000        1.0080           0
   25430 WT2  241  TIP3 OH2  OT    -0.834000       15.9994           0
   25431 WT2  241  TIP3 H1   HT     0.417000        1.0080           0
   25432 WT2  241  TIP3 H2   HT     0.417000        1.0080           0
   25433 WT2  242  TIP3 OH2  OT    -0.834000       15.9994           0
   25434 WT2  242  TIP3 H1   HT     0.417000        1.0080           0
   25435 WT2  242  TIP3 H2   HT     0.417000        1.0080           0
   25436 WT2  243  TIP3 OH2  OT    -0.834000       15.9994           0
   25437 WT2  243  TIP3 H1   HT     0.417000        1.0080           0
   25438 WT2  243  TIP3 H2   HT     0.417000        1.0080           0
   25439 WT2  244  TIP3 OH2  OT    -0.834000       15.9994           0
   25440 WT2  244  TIP3 H1   HT     0.417000        1.0080           0
   25441 WT2  244  TIP3 H2   HT     0.417000        1.0080           0
   25442 WT2  245  TIP3 OH2  OT    -0.834000       15.9994           0
   25443 WT2  245  TIP3 H1   HT     0.417000        1.0080           0
   25444 WT2  245  TIP3 H2   HT     0.417000        1.0080           0
   25445 WT2  246  TIP3 OH2  OT    -0.834000       15.9994           0
   25446 WT2  246  TIP3 H1   HT     0.417000        1.0080           0
   25447 WT2  246  TIP3 H2   HT     0.417000        1.0080           0
   25448 WT2  247  TIP3 OH2  OT    -0.834000       15.9994           0
   25449 WT2  247  TIP3 H1   HT     0.417000        1.0080           0
   25450 WT2  247  TIP3 H2   HT     0.417000        1.0080           0
   25451 WT2  248  TIP3 OH2  OT    -0.834000       15.9994           0
   25452 WT2  248  TIP3 H1   HT     0.417000        1.0080           0
   25453 WT2  248  TIP3 H2   HT     0.417000        1.0080           0
   25454 WT2  249  TIP3 OH2  OT    -0.834000       15.9994           0
   25455 WT2  249  TIP3 H1   HT     0.417000        1.0080           0
   25456 WT2  249  TIP3 H2   HT     0.417000        1.0080           0
   25457 WT2  250  TIP3 OH2  OT    -0.834000       15.9994           0
   25458 WT2  250  TIP3 H1   HT     0.417000        1.0080           0
   25459 WT2  250  TIP3 H2   HT     0.417000        1.0080           0
   25460 WT2  251  TIP3 OH2  OT    -0.834000       15.9994           0
   25461 WT2  251  TIP3 H1   HT     0.417000        1.0080           0
   25462 WT2  251  TIP3 H2   HT     0.417000        1.0080           0
   25463 WT2  252  TIP3 OH2  OT    -0.834000       15.9994           0
   25464 WT2  252  TIP3 H1   HT     0.417000        1.0080           0
   25465 WT2  252  TIP3 H2   HT     0.417000        1.0080           0
   25466 WT2  253  TIP3 OH2  OT    -0.834000       15.9994           0
   25467 WT2  253  TIP3 H1   HT     0.417000        1.0080           0
   25468 WT2  253  TIP3 H2   HT     0.417000        1.0080           0
   25469 WT2  256  TIP3 OH2  OT    -0.834000       15.9994           0
   25470 WT2  256  TIP3 H1   HT     0.417000        1.0080           0
   25471 WT2  256  TIP3 H2   HT     0.417000        1.0080           0
   25472 WT2  257  TIP3 OH2  OT    -0.834000       15.9994           0
   25473 WT2  257  TIP3 H1   HT     0.417000        1.0080           0
   25474 WT2  257  TIP3 H2   HT     0.417000        1.0080           0
   25475 WT2  258  TIP3 OH2  OT    -0.834000       15.9994           0
   25476 WT2  258  TIP3 H1   HT     0.417000        1.0080           0
   25477 WT2  258  TIP3 H2   HT     0.417000        1.0080           0
   25478 WT2  259  TIP3 OH2  OT    -0.834000       15.9994           0
   25479 WT2  259  TIP3 H1   HT     0.417000        1.0080           0
   25480 WT2  259  TIP3 H2   HT     0.417000        1.0080           0
   25481 WT2  260  TIP3 OH2  OT    -0.834000       15.9994           0
   25482 WT2  260  TIP3 H1   HT     0.417000        1.0080           0
   25483 WT2  260  TIP3 H2   HT     0.417000        1.0080           0
   25484 WT2  261  TIP3 OH2  OT    -0.834000       15.9994           0
   25485 WT2  261  TIP3 H1   HT     0.417000        1.0080           0
   25486 WT2  261  TIP3 H2   HT     0.417000        1.0080           0
   25487 WT2  262  TIP3 OH2  OT    -0.834000       15.9994           0
   25488 WT2  262  TIP3 H1   HT     0.417000        1.0080           0
   25489 WT2  262  TIP3 H2   HT     0.417000        1.0080           0
   25490 WT2  263  TIP3 OH2  OT    -0.834000       15.9994           0
   25491 WT2  263  TIP3 H1   HT     0.417000        1.0080           0
   25492 WT2  263  TIP3 H2   HT     0.417000        1.0080           0
   25493 WT2  265  TIP3 OH2  OT    -0.834000       15.9994           0
   25494 WT2  265  TIP3 H1   HT     0.417000        1.0080           0
   25495 WT2  265  TIP3 H2   HT     0.417000        1.0080           0
   25496 WT2  266  TIP3 OH2  OT    -0.834000       15.9994           0
   25497 WT2  266  TIP3 H1   HT     0.417000        1.0080           0
   25498 WT2  266  TIP3 H2   HT     0.417000        1.0080           0
   25499 WT2  268  TIP3 OH2  OT    -0.834000       15.9994           0
   25500 WT2  268  TIP3 H1   HT     0.417000        1.0080           0
   25501 WT2  268  TIP3 H2   HT     0.417000        1.0080           0
   25502 WT2  269  TIP3 OH2  OT    -0.834000       15.9994           0
   25503 WT2  269  TIP3 H1   HT     0.417000        1.0080           0
   25504 WT2  269  TIP3 H2   HT     0.417000        1.0080           0
   25505 WT2  270  TIP3 OH2  OT    -0.834000       15.9994           0
   25506 WT2  270  TIP3 H1   HT     0.417000        1.0080           0
   25507 WT2  270  TIP3 H2   HT     0.417000        1.0080           0
   25508 WT2  271  TIP3 OH2  OT    -0.834000       15.9994           0
   25509 WT2  271  TIP3 H1   HT     0.417000        1.0080           0
   25510 WT2  271  TIP3 H2   HT     0.417000        1.0080           0
   25511 WT2  272  TIP3 OH2  OT    -0.834000       15.9994           0
   25512 WT2  272  TIP3 H1   HT     0.417000        1.0080           0
   25513 WT2  272  TIP3 H2   HT     0.417000        1.0080           0
   25514 WT2  273  TIP3 OH2  OT    -0.834000       15.9994           0
   25515 WT2  273  TIP3 H1   HT     0.417000        1.0080           0
   25516 WT2  273  TIP3 H2   HT     0.417000        1.0080           0
   25517 WT2  274  TIP3 OH2  OT    -0.834000       15.9994           0
   25518 WT2  274  TIP3 H1   HT     0.417000        1.0080           0
   25519 WT2  274  TIP3 H2   HT     0.417000        1.0080           0
   25520 WT2  275  TIP3 OH2  OT    -0.834000       15.9994           0
   25521 WT2  275  TIP3 H1   HT     0.417000        1.0080           0
   25522 WT2  275  TIP3 H2   HT     0.417000        1.0080           0
   25523 WT2  276  TIP3 OH2  OT    -0.834000       15.9994           0
   25524 WT2  276  TIP3 H1   HT     0.417000        1.0080           0
   25525 WT2  276  TIP3 H2   HT     0.417000        1.0080           0
   25526 WT2  277  TIP3 OH2  OT    -0.834000       15.9994           0
   25527 WT2  277  TIP3 H1   HT     0.417000        1.0080           0
   25528 WT2  277  TIP3 H2   HT     0.417000        1.0080           0
   25529 WT2  278  TIP3 OH2  OT    -0.834000       15.9994           0
   25530 WT2  278  TIP3 H1   HT     0.417000        1.0080           0
   25531 WT2  278  TIP3 H2   HT     0.417000        1.0080           0
   25532 WT2  279  TIP3 OH2  OT    -0.834000       15.9994           0
   25533 WT2  279  TIP3 H1   HT     0.417000        1.0080           0
   25534 WT2  279  TIP3 H2   HT     0.417000        1.0080           0
   25535 WT2  282  TIP3 OH2  OT    -0.834000       15.9994           0
   25536 WT2  282  TIP3 H1   HT     0.417000        1.0080           0
   25537 WT2  282  TIP3 H2   HT     0.417000        1.0080           0
   25538 WT2  283  TIP3 OH2  OT    -0.834000       15.9994           0
   25539 WT2  283  TIP3 H1   HT     0.417000        1.0080           0
   25540 WT2  283  TIP3 H2   HT     0.417000        1.0080           0
   25541 WT2  285  TIP3 OH2  OT    -0.834000       15.9994           0
   25542 WT2  285  TIP3 H1   HT     0.417000        1.0080           0
   25543 WT2  285  TIP3 H2   HT     0.417000        1.0080           0
   25544 WT2  286  TIP3 OH2  OT    -0.834000       15.9994           0
   25545 WT2  286  TIP3 H1   HT     0.417000        1.0080           0
   25546 WT2  286  TIP3 H2   HT     0.417000        1.0080           0
   25547 WT2  288  TIP3 OH2  OT    -0.834000       15.9994           0
   25548 WT2  288  TIP3 H1   HT     0.417000        1.0080           0
   25549 WT2  288  TIP3 H2   HT     0.417000        1.0080           0
   25550 WT2  289  TIP3 OH2  OT    -0.834000       15.9994           0
   25551 WT2  289  TIP3 H1   HT     0.417000        1.0080           0
   25552 WT2  289  TIP3 H2   HT     0.417000        1.0080           0
   25553 WT2  290  TIP3 OH2  OT    -0.834000       15.9994           0
   25554 WT2  290  TIP3 H1   HT     0.417000        1.0080           0
   25555 WT2  290  TIP3 H2   HT     0.417000        1.0080           0
   25556 WT2  291  TIP3 OH2  OT    -0.834000       15.9994           0
   25557 WT2  291  TIP3 H1   HT     0.417000        1.0080           0
   25558 WT2  291  TIP3 H2   HT     0.417000        1.0080           0
   25559 WT2  292  TIP3 OH2  OT    -0.834000       15.9994           0
   25560 WT2  292  TIP3 H1   HT     0.417000        1.0080           0
   25561 WT2  292  TIP3 H2   HT     0.417000        1.0080           0
   25562 WT2  293  TIP3 OH2  OT    -0.834000       15.9994           0
   25563 WT2  293  TIP3 H1   HT     0.417000        1.0080           0
   25564 WT2  293  TIP3 H2   HT     0.417000        1.0080           0
   25565 WT2  294  TIP3 OH2  OT    -0.834000       15.9994           0
   25566 WT2  294  TIP3 H1   HT     0.417000        1.0080           0
   25567 WT2  294  TIP3 H2   HT     0.417000        1.0080           0
   25568 WT2  295  TIP3 OH2  OT    -0.834000       15.9994           0
   25569 WT2  295  TIP3 H1   HT     0.417000        1.0080           0
   25570 WT2  295  TIP3 H2   HT     0.417000        1.0080           0
   25571 WT2  296  TIP3 OH2  OT    -0.834000       15.9994           0
   25572 WT2  296  TIP3 H1   HT     0.417000        1.0080           0
   25573 WT2  296  TIP3 H2   HT     0.417000        1.0080           0
   25574 WT2  297  TIP3 OH2  OT    -0.834000       15.9994           0
   25575 WT2  297  TIP3 H1   HT     0.417000        1.0080           0
   25576 WT2  297  TIP3 H2   HT     0.417000        1.0080           0
   25577 WT2  298  TIP3 OH2  OT    -0.834000       15.9994           0
   25578 WT2  298  TIP3 H1   HT     0.417000        1.0080           0
   25579 WT2  298  TIP3 H2   HT     0.417000        1.0080           0
   25580 WT2  299  TIP3 OH2  OT    -0.834000       15.9994           0
   25581 WT2  299  TIP3 H1   HT     0.417000        1.0080           0
   25582 WT2  299  TIP3 H2   HT     0.417000        1.0080           0
   25583 WT2  300  TIP3 OH2  OT    -0.834000       15.9994           0
   25584 WT2  300  TIP3 H1   HT     0.417000        1.0080           0
   25585 WT2  300  TIP3 H2   HT     0.417000        1.0080           0
   25586 WT2  301  TIP3 OH2  OT    -0.834000       15.9994           0
   25587 WT2  301  TIP3 H1   HT     0.417000        1.0080           0
   25588 WT2  301  TIP3 H2   HT     0.417000        1.0080           0
   25589 WT2  302  TIP3 OH2  OT    -0.834000       15.9994           0
   25590 WT2  302  TIP3 H1   HT     0.417000        1.0080           0
   25591 WT2  302  TIP3 H2   HT     0.417000        1.0080           0
   25592 WT2  303  TIP3 OH2  OT    -0.834000       15.9994           0
   25593 WT2  303  TIP3 H1   HT     0.417000        1.0080           0
   25594 WT2  303  TIP3 H2   HT     0.417000        1.0080           0
   25595 WT2  304  TIP3 OH2  OT    -0.834000       15.9994           0
   25596 WT2  304  TIP3 H1   HT     0.417000        1.0080           0
   25597 WT2  304  TIP3 H2   HT     0.417000        1.0080           0
   25598 WT2  305  TIP3 OH2  OT    -0.834000       15.9994           0
   25599 WT2  305  TIP3 H1   HT     0.417000        1.0080           0
   25600 WT2  305  TIP3 H2   HT     0.417000        1.0080           0
   25601 WT2  306  TIP3 OH2  OT    -0.834000       15.9994           0
   25602 WT2  306  TIP3 H1   HT     0.417000        1.0080           0
   25603 WT2  306  TIP3 H2   HT     0.417000        1.0080           0
   25604 WT2  308  TIP3 OH2  OT    -0.834000       15.9994           0
   25605 WT2  308  TIP3 H1   HT     0.417000        1.0080           0
   25606 WT2  308  TIP3 H2   HT     0.417000        1.0080           0
   25607 WT2  311  TIP3 OH2  OT    -0.834000       15.9994           0
   25608 WT2  311  TIP3 H1   HT     0.417000        1.0080           0
   25609 WT2  311  TIP3 H2   HT     0.417000        1.0080           0
   25610 WT2  312  TIP3 OH2  OT    -0.834000       15.9994           0
   25611 WT2  312  TIP3 H1   HT     0.417000        1.0080           0
   25612 WT2  312  TIP3 H2   HT     0.417000        1.0080           0
   25613 WT2  313  TIP3 OH2  OT    -0.834000       15.9994           0
   25614 WT2  313  TIP3 H1   HT     0.417000        1.0080           0
   25615 WT2  313  TIP3 H2   HT     0.417000        1.0080           0
   25616 WT2  314  TIP3 OH2  OT    -0.834000       15.9994           0
   25617 WT2  314  TIP3 H1   HT     0.417000        1.0080           0
   25618 WT2  314  TIP3 H2   HT     0.417000        1.0080           0
   25619 WT2  315  TIP3 OH2  OT    -0.834000       15.9994           0
   25620 WT2  315  TIP3 H1   HT     0.417000        1.0080           0
   25621 WT2  315  TIP3 H2   HT     0.417000        1.0080           0
   25622 WT2  316  TIP3 OH2  OT    -0.834000       15.9994           0
   25623 WT2  316  TIP3 H1   HT     0.417000        1.0080           0
   25624 WT2  316  TIP3 H2   HT     0.417000        1.0080           0
   25625 WT2  317  TIP3 OH2  OT    -0.834000       15.9994           0
   25626 WT2  317  TIP3 H1   HT     0.417000        1.0080           0
   25627 WT2  317  TIP3 H2   HT     0.417000        1.0080           0
   25628 WT2  318  TIP3 OH2  OT    -0.834000       15.9994           0
   25629 WT2  318  TIP3 H1   HT     0.417000        1.0080           0
   25630 WT2  318  TIP3 H2   HT     0.417000        1.0080           0
   25631 WT2  319  TIP3 OH2  OT    -0.834000       15.9994           0
   25632 WT2  319  TIP3 H1   HT     0.417000        1.0080           0
   25633 WT2  319  TIP3 H2   HT     0.417000        1.0080           0
   25634 WT2  320  TIP3 OH2  OT    -0.834000       15.9994           0
   25635 WT2  320  TIP3 H1   HT     0.417000        1.0080           0
   25636 WT2  320  TIP3 H2   HT     0.417000        1.0080           0
   25637 WT2  321  TIP3 OH2  OT    -0.834000       15.9994           0
   25638 WT2  321  TIP3 H1   HT     0.417000        1.0080           0
   25639 WT2  321  TIP3 H2   HT     0.417000        1.0080           0
   25640 WT2  322  TIP3 OH2  OT    -0.834000       15.9994           0
   25641 WT2  322  TIP3 H1   HT     0.417000        1.0080           0
   25642 WT2  322  TIP3 H2   HT     0.417000        1.0080           0
   25643 WT2  324  TIP3 OH2  OT    -0.834000       15.9994           0
   25644 WT2  324  TIP3 H1   HT     0.417000        1.0080           0
   25645 WT2  324  TIP3 H2   HT     0.417000        1.0080           0
   25646 WT2  325  TIP3 OH2  OT    -0.834000       15.9994           0
   25647 WT2  325  TIP3 H1   HT     0.417000        1.0080           0
   25648 WT2  325  TIP3 H2   HT     0.417000        1.0080           0
   25649 WT2  326  TIP3 OH2  OT    -0.834000       15.9994           0
   25650 WT2  326  TIP3 H1   HT     0.417000        1.0080           0
   25651 WT2  326  TIP3 H2   HT     0.417000        1.0080           0
   25652 WT2  327  TIP3 OH2  OT    -0.834000       15.9994           0
   25653 WT2  327  TIP3 H1   HT     0.417000        1.0080           0
   25654 WT2  327  TIP3 H2   HT     0.417000        1.0080           0
   25655 WT2  328  TIP3 OH2  OT    -0.834000       15.9994           0
   25656 WT2  328  TIP3 H1   HT     0.417000        1.0080           0
   25657 WT2  328  TIP3 H2   HT     0.417000        1.0080           0
   25658 WT2  329  TIP3 OH2  OT    -0.834000       15.9994           0
   25659 WT2  329  TIP3 H1   HT     0.417000        1.0080           0
   25660 WT2  329  TIP3 H2   HT     0.417000        1.0080           0
   25661 WT2  330  TIP3 OH2  OT    -0.834000       15.9994           0
   25662 WT2  330  TIP3 H1   HT     0.417000        1.0080           0
   25663 WT2  330  TIP3 H2   HT     0.417000        1.0080           0
   25664 WT2  332  TIP3 OH2  OT    -0.834000       15.9994           0
   25665 WT2  332  TIP3 H1   HT     0.417000        1.0080           0
   25666 WT2  332  TIP3 H2   HT     0.417000        1.0080           0
   25667 WT2  333  TIP3 OH2  OT    -0.834000       15.9994           0
   25668 WT2  333  TIP3 H1   HT     0.417000        1.0080           0
   25669 WT2  333  TIP3 H2   HT     0.417000        1.0080           0
   25670 WT2  335  TIP3 OH2  OT    -0.834000       15.9994           0
   25671 WT2  335  TIP3 H1   HT     0.417000        1.0080           0
   25672 WT2  335  TIP3 H2   HT     0.417000        1.0080           0
   25673 WT2  336  TIP3 OH2  OT    -0.834000       15.9994           0
   25674 WT2  336  TIP3 H1   HT     0.417000        1.0080           0
   25675 WT2  336  TIP3 H2   HT     0.417000        1.0080           0
   25676 WT2  337  TIP3 OH2  OT    -0.834000       15.9994           0
   25677 WT2  337  TIP3 H1   HT     0.417000        1.0080           0
   25678 WT2  337  TIP3 H2   HT     0.417000        1.0080           0
   25679 WT2  338  TIP3 OH2  OT    -0.834000       15.9994           0
   25680 WT2  338  TIP3 H1   HT     0.417000        1.0080           0
   25681 WT2  338  TIP3 H2   HT     0.417000        1.0080           0
   25682 WT2  339  TIP3 OH2  OT    -0.834000       15.9994           0
   25683 WT2  339  TIP3 H1   HT     0.417000        1.0080           0
   25684 WT2  339  TIP3 H2   HT     0.417000        1.0080           0
   25685 WT2  340  TIP3 OH2  OT    -0.834000       15.9994           0
   25686 WT2  340  TIP3 H1   HT     0.417000        1.0080           0
   25687 WT2  340  TIP3 H2   HT     0.417000        1.0080           0
   25688 WT2  341  TIP3 OH2  OT    -0.834000       15.9994           0
   25689 WT2  341  TIP3 H1   HT     0.417000        1.0080           0
   25690 WT2  341  TIP3 H2   HT     0.417000        1.0080           0
   25691 WT2  342  TIP3 OH2  OT    -0.834000       15.9994           0
   25692 WT2  342  TIP3 H1   HT     0.417000        1.0080           0
   25693 WT2  342  TIP3 H2   HT     0.417000        1.0080           0
   25694 WT2  343  TIP3 OH2  OT    -0.834000       15.9994           0
   25695 WT2  343  TIP3 H1   HT     0.417000        1.0080           0
   25696 WT2  343  TIP3 H2   HT     0.417000        1.0080           0
   25697 WT2  344  TIP3 OH2  OT    -0.834000       15.9994           0
   25698 WT2  344  TIP3 H1   HT     0.417000        1.0080           0
   25699 WT2  344  TIP3 H2   HT     0.417000        1.0080           0
   25700 WT2  345  TIP3 OH2  OT    -0.834000       15.9994           0
   25701 WT2  345  TIP3 H1   HT     0.417000        1.0080           0
   25702 WT2  345  TIP3 H2   HT     0.417000        1.0080           0
   25703 WT2  346  TIP3 OH2  OT    -0.834000       15.9994           0
   25704 WT2  346  TIP3 H1   HT     0.417000        1.0080           0
   25705 WT2  346  TIP3 H2   HT     0.417000        1.0080           0
   25706 WT2  348  TIP3 OH2  OT    -0.834000       15.9994           0
   25707 WT2  348  TIP3 H1   HT     0.417000        1.0080           0
   25708 WT2  348  TIP3 H2   HT     0.417000        1.0080           0
   25709 WT2  349  TIP3 OH2  OT    -0.834000       15.9994           0
   25710 WT2  349  TIP3 H1   HT     0.417000        1.0080           0
   25711 WT2  349  TIP3 H2   HT     0.417000        1.0080           0
   25712 WT2  350  TIP3 OH2  OT    -0.834000       15.9994           0
   25713 WT2  350  TIP3 H1   HT     0.417000        1.0080           0
   25714 WT2  350  TIP3 H2   HT     0.417000        1.0080           0
   25715 WT2  351  TIP3 OH2  OT    -0.834000       15.9994           0
   25716 WT2  351  TIP3 H1   HT     0.417000        1.0080           0
   25717 WT2  351  TIP3 H2   HT     0.417000        1.0080           0
   25718 WT2  352  TIP3 OH2  OT    -0.834000       15.9994           0
   25719 WT2  352  TIP3 H1   HT     0.417000        1.0080           0
   25720 WT2  352  TIP3 H2   HT     0.417000        1.0080           0
   25721 WT2  353  TIP3 OH2  OT    -0.834000       15.9994           0
   25722 WT2  353  TIP3 H1   HT     0.417000        1.0080           0
   25723 WT2  353  TIP3 H2   HT     0.417000        1.0080           0
   25724 WT2  354  TIP3 OH2  OT    -0.834000       15.9994           0
   25725 WT2  354  TIP3 H1   HT     0.417000        1.0080           0
   25726 WT2  354  TIP3 H2   HT     0.417000        1.0080           0
   25727 WT2  355  TIP3 OH2  OT    -0.834000       15.9994           0
   25728 WT2  355  TIP3 H1   HT     0.417000        1.0080           0
   25729 WT2  355  TIP3 H2   HT     0.417000        1.0080           0
   25730 WT2  357  TIP3 OH2  OT    -0.834000       15.9994           0
   25731 WT2  357  TIP3 H1   HT     0.417000        1.0080           0
   25732 WT2  357  TIP3 H2   HT     0.417000        1.0080           0
   25733 WT2  358  TIP3 OH2  OT    -0.834000       15.9994           0
   25734 WT2  358  TIP3 H1   HT     0.417000        1.0080           0
   25735 WT2  358  TIP3 H2   HT     0.417000        1.0080           0
   25736 WT2  360  TIP3 OH2  OT    -0.834000       15.9994           0
   25737 WT2  360  TIP3 H1   HT     0.417000        1.0080           0
   25738 WT2  360  TIP3 H2   HT     0.417000        1.0080           0
   25739 WT2  361  TIP3 OH2  OT    -0.834000       15.9994           0
   25740 WT2  361  TIP3 H1   HT     0.417000        1.0080           0
   25741 WT2  361  TIP3 H2   HT     0.417000        1.0080           0
   25742 WT2  362  TIP3 OH2  OT    -0.834000       15.9994           0
   25743 WT2  362  TIP3 H1   HT     0.417000        1.0080           0
   25744 WT2  362  TIP3 H2   HT     0.417000        1.0080           0
   25745 WT2  363  TIP3 OH2  OT    -0.834000       15.9994           0
   25746 WT2  363  TIP3 H1   HT     0.417000        1.0080           0
   25747 WT2  363  TIP3 H2   HT     0.417000        1.0080           0
   25748 WT2  364  TIP3 OH2  OT    -0.834000       15.9994           0
   25749 WT2  364  TIP3 H1   HT     0.417000        1.0080           0
   25750 WT2  364  TIP3 H2   HT     0.417000        1.0080           0
   25751 WT2  365  TIP3 OH2  OT    -0.834000       15.9994           0
   25752 WT2  365  TIP3 H1   HT     0.417000        1.0080           0
   25753 WT2  365  TIP3 H2   HT     0.417000        1.0080           0
   25754 WT2  366  TIP3 OH2  OT    -0.834000       15.9994           0
   25755 WT2  366  TIP3 H1   HT     0.417000        1.0080           0
   25756 WT2  366  TIP3 H2   HT     0.417000        1.0080           0
   25757 WT2  367  TIP3 OH2  OT    -0.834000       15.9994           0
   25758 WT2  367  TIP3 H1   HT     0.417000        1.0080           0
   25759 WT2  367  TIP3 H2   HT     0.417000        1.0080           0
   25760 WT2  368  TIP3 OH2  OT    -0.834000       15.9994           0
   25761 WT2  368  TIP3 H1   HT     0.417000        1.0080           0
   25762 WT2  368  TIP3 H2   HT     0.417000        1.0080           0
   25763 WT2  369  TIP3 OH2  OT    -0.834000       15.9994           0
   25764 WT2  369  TIP3 H1   HT     0.417000        1.0080           0
   25765 WT2  369  TIP3 H2   HT     0.417000        1.0080           0
   25766 WT2  370  TIP3 OH2  OT    -0.834000       15.9994           0
   25767 WT2  370  TIP3 H1   HT     0.417000        1.0080           0
   25768 WT2  370  TIP3 H2   HT     0.417000        1.0080           0
   25769 WT2  371  TIP3 OH2  OT    -0.834000       15.9994           0
   25770 WT2  371  TIP3 H1   HT     0.417000        1.0080           0
   25771 WT2  371  TIP3 H2   HT     0.417000        1.0080           0
   25772 WT2  372  TIP3 OH2  OT    -0.834000       15.9994           0
   25773 WT2  372  TIP3 H1   HT     0.417000        1.0080           0
   25774 WT2  372  TIP3 H2   HT     0.417000        1.0080           0
   25775 WT2  373  TIP3 OH2  OT    -0.834000       15.9994           0
   25776 WT2  373  TIP3 H1   HT     0.417000        1.0080           0
   25777 WT2  373  TIP3 H2   HT     0.417000        1.0080           0
   25778 WT2  374  TIP3 OH2  OT    -0.834000       15.9994           0
   25779 WT2  374  TIP3 H1   HT     0.417000        1.0080           0
   25780 WT2  374  TIP3 H2   HT     0.417000        1.0080           0
   25781 WT2  375  TIP3 OH2  OT    -0.834000       15.9994           0
   25782 WT2  375  TIP3 H1   HT     0.417000        1.0080           0
   25783 WT2  375  TIP3 H2   HT     0.417000        1.0080           0
   25784 WT2  376  TIP3 OH2  OT    -0.834000       15.9994           0
   25785 WT2  376  TIP3 H1   HT     0.417000        1.0080           0
   25786 WT2  376  TIP3 H2   HT     0.417000        1.0080           0
   25787 WT2  377  TIP3 OH2  OT    -0.834000       15.9994           0
   25788 WT2  377  TIP3 H1   HT     0.417000        1.0080           0
   25789 WT2  377  TIP3 H2   HT     0.417000        1.0080           0
   25790 WT2  378  TIP3 OH2  OT    -0.834000       15.9994           0
   25791 WT2  378  TIP3 H1   HT     0.417000        1.0080           0
   25792 WT2  378  TIP3 H2   HT     0.417000        1.0080           0
   25793 WT2  379  TIP3 OH2  OT    -0.834000       15.9994           0
   25794 WT2  379  TIP3 H1   HT     0.417000        1.0080           0
   25795 WT2  379  TIP3 H2   HT     0.417000        1.0080           0
   25796 WT2  380  TIP3 OH2  OT    -0.834000       15.9994           0
   25797 WT2  380  TIP3 H1   HT     0.417000        1.0080           0
   25798 WT2  380  TIP3 H2   HT     0.417000        1.0080           0
   25799 WT2  381  TIP3 OH2  OT    -0.834000       15.9994           0
   25800 WT2  381  TIP3 H1   HT     0.417000        1.0080           0
   25801 WT2  381  TIP3 H2   HT     0.417000        1.0080           0
   25802 WT2  382  TIP3 OH2  OT    -0.834000       15.9994           0
   25803 WT2  382  TIP3 H1   HT     0.417000        1.0080           0
   25804 WT2  382  TIP3 H2   HT     0.417000        1.0080           0
   25805 WT2  383  TIP3 OH2  OT    -0.834000       15.9994           0
   25806 WT2  383  TIP3 H1   HT     0.417000        1.0080           0
   25807 WT2  383  TIP3 H2   HT     0.417000        1.0080           0
   25808 WT2  384  TIP3 OH2  OT    -0.834000       15.9994           0
   25809 WT2  384  TIP3 H1   HT     0.417000        1.0080           0
   25810 WT2  384  TIP3 H2   HT     0.417000        1.0080           0
   25811 WT2  385  TIP3 OH2  OT    -0.834000       15.9994           0
   25812 WT2  385  TIP3 H1   HT     0.417000        1.0080           0
   25813 WT2  385  TIP3 H2   HT     0.417000        1.0080           0
   25814 WT2  386  TIP3 OH2  OT    -0.834000       15.9994           0
   25815 WT2  386  TIP3 H1   HT     0.417000        1.0080           0
   25816 WT2  386  TIP3 H2   HT     0.417000        1.0080           0
   25817 WT2  387  TIP3 OH2  OT    -0.834000       15.9994           0
   25818 WT2  387  TIP3 H1   HT     0.417000        1.0080           0
   25819 WT2  387  TIP3 H2   HT     0.417000        1.0080           0
   25820 WT2  388  TIP3 OH2  OT    -0.834000       15.9994           0
   25821 WT2  388  TIP3 H1   HT     0.417000        1.0080           0
   25822 WT2  388  TIP3 H2   HT     0.417000        1.0080           0
   25823 WT2  390  TIP3 OH2  OT    -0.834000       15.9994           0
   25824 WT2  390  TIP3 H1   HT     0.417000        1.0080           0
   25825 WT2  390  TIP3 H2   HT     0.417000        1.0080           0
   25826 WT2  391  TIP3 OH2  OT    -0.834000       15.9994           0
   25827 WT2  391  TIP3 H1   HT     0.417000        1.0080           0
   25828 WT2  391  TIP3 H2   HT     0.417000        1.0080           0
   25829 WT2  392  TIP3 OH2  OT    -0.834000       15.9994           0
   25830 WT2  392  TIP3 H1   HT     0.417000        1.0080           0
   25831 WT2  392  TIP3 H2   HT     0.417000        1.0080           0
   25832 WT2  393  TIP3 OH2  OT    -0.834000       15.9994           0
   25833 WT2  393  TIP3 H1   HT     0.417000        1.0080           0
   25834 WT2  393  TIP3 H2   HT     0.417000        1.0080           0
   25835 WT2  394  TIP3 OH2  OT    -0.834000       15.9994           0
   25836 WT2  394  TIP3 H1   HT     0.417000        1.0080           0
   25837 WT2  394  TIP3 H2   HT     0.417000        1.0080           0
   25838 WT2  395  TIP3 OH2  OT    -0.834000       15.9994           0
   25839 WT2  395  TIP3 H1   HT     0.417000        1.0080           0
   25840 WT2  395  TIP3 H2   HT     0.417000        1.0080           0
   25841 WT2  397  TIP3 OH2  OT    -0.834000       15.9994           0
   25842 WT2  397  TIP3 H1   HT     0.417000        1.0080           0
   25843 WT2  397  TIP3 H2   HT     0.417000        1.0080           0
   25844 WT2  398  TIP3 OH2  OT    -0.834000       15.9994           0
   25845 WT2  398  TIP3 H1   HT     0.417000        1.0080           0
   25846 WT2  398  TIP3 H2   HT     0.417000        1.0080           0
   25847 WT2  399  TIP3 OH2  OT    -0.834000       15.9994           0
   25848 WT2  399  TIP3 H1   HT     0.417000        1.0080           0
   25849 WT2  399  TIP3 H2   HT     0.417000        1.0080           0
   25850 WT2  400  TIP3 OH2  OT    -0.834000       15.9994           0
   25851 WT2  400  TIP3 H1   HT     0.417000        1.0080           0
   25852 WT2  400  TIP3 H2   HT     0.417000        1.0080           0
   25853 WT2  401  TIP3 OH2  OT    -0.834000       15.9994           0
   25854 WT2  401  TIP3 H1   HT     0.417000        1.0080           0
   25855 WT2  401  TIP3 H2   HT     0.417000        1.0080           0
   25856 WT2  402  TIP3 OH2  OT    -0.834000       15.9994           0
   25857 WT2  402  TIP3 H1   HT     0.417000        1.0080           0
   25858 WT2  402  TIP3 H2   HT     0.417000        1.0080           0
   25859 WT2  403  TIP3 OH2  OT    -0.834000       15.9994           0
   25860 WT2  403  TIP3 H1   HT     0.417000        1.0080           0
   25861 WT2  403  TIP3 H2   HT     0.417000        1.0080           0
   25862 WT2  404  TIP3 OH2  OT    -0.834000       15.9994           0
   25863 WT2  404  TIP3 H1   HT     0.417000        1.0080           0
   25864 WT2  404  TIP3 H2   HT     0.417000        1.0080           0
   25865 WT2  405  TIP3 OH2  OT    -0.834000       15.9994           0
   25866 WT2  405  TIP3 H1   HT     0.417000        1.0080           0
   25867 WT2  405  TIP3 H2   HT     0.417000        1.0080           0
   25868 WT2  406  TIP3 OH2  OT    -0.834000       15.9994           0
   25869 WT2  406  TIP3 H1   HT     0.417000        1.0080           0
   25870 WT2  406  TIP3 H2   HT     0.417000        1.0080           0
   25871 WT2  407  TIP3 OH2  OT    -0.834000       15.9994           0
   25872 WT2  407  TIP3 H1   HT     0.417000        1.0080           0
   25873 WT2  407  TIP3 H2   HT     0.417000        1.0080           0
   25874 WT2  408  TIP3 OH2  OT    -0.834000       15.9994           0
   25875 WT2  408  TIP3 H1   HT     0.417000        1.0080           0
   25876 WT2  408  TIP3 H2   HT     0.417000        1.0080           0
   25877 WT2  409  TIP3 OH2  OT    -0.834000       15.9994           0
   25878 WT2  409  TIP3 H1   HT     0.417000        1.0080           0
   25879 WT2  409  TIP3 H2   HT     0.417000        1.0080           0
   25880 WT2  410  TIP3 OH2  OT    -0.834000       15.9994           0
   25881 WT2  410  TIP3 H1   HT     0.417000        1.0080           0
   25882 WT2  410  TIP3 H2   HT     0.417000        1.0080           0
   25883 WT2  411  TIP3 OH2  OT    -0.834000       15.9994           0
   25884 WT2  411  TIP3 H1   HT     0.417000        1.0080           0
   25885 WT2  411  TIP3 H2   HT     0.417000        1.0080           0
   25886 WT2  412  TIP3 OH2  OT    -0.834000       15.9994           0
   25887 WT2  412  TIP3 H1   HT     0.417000        1.0080           0
   25888 WT2  412  TIP3 H2   HT     0.417000        1.0080           0
   25889 WT2  413  TIP3 OH2  OT    -0.834000       15.9994           0
   25890 WT2  413  TIP3 H1   HT     0.417000        1.0080           0
   25891 WT2  413  TIP3 H2   HT     0.417000        1.0080           0
   25892 WT2  414  TIP3 OH2  OT    -0.834000       15.9994           0
   25893 WT2  414  TIP3 H1   HT     0.417000        1.0080           0
   25894 WT2  414  TIP3 H2   HT     0.417000        1.0080           0
   25895 WT2  415  TIP3 OH2  OT    -0.834000       15.9994           0
   25896 WT2  415  TIP3 H1   HT     0.417000        1.0080           0
   25897 WT2  415  TIP3 H2   HT     0.417000        1.0080           0
   25898 WT2  416  TIP3 OH2  OT    -0.834000       15.9994           0
   25899 WT2  416  TIP3 H1   HT     0.417000        1.0080           0
   25900 WT2  416  TIP3 H2   HT     0.417000        1.0080           0
   25901 WT2  417  TIP3 OH2  OT    -0.834000       15.9994           0
   25902 WT2  417  TIP3 H1   HT     0.417000        1.0080           0
   25903 WT2  417  TIP3 H2   HT     0.417000        1.0080           0
   25904 WT2  419  TIP3 OH2  OT    -0.834000       15.9994           0
   25905 WT2  419  TIP3 H1   HT     0.417000        1.0080           0
   25906 WT2  419  TIP3 H2   HT     0.417000        1.0080           0
   25907 WT2  420  TIP3 OH2  OT    -0.834000       15.9994           0
   25908 WT2  420  TIP3 H1   HT     0.417000        1.0080           0
   25909 WT2  420  TIP3 H2   HT     0.417000        1.0080           0
   25910 WT2  421  TIP3 OH2  OT    -0.834000       15.9994           0
   25911 WT2  421  TIP3 H1   HT     0.417000        1.0080           0
   25912 WT2  421  TIP3 H2   HT     0.417000        1.0080           0
   25913 WT2  422  TIP3 OH2  OT    -0.834000       15.9994           0
   25914 WT2  422  TIP3 H1   HT     0.417000        1.0080           0
   25915 WT2  422  TIP3 H2   HT     0.417000        1.0080           0
   25916 WT2  423  TIP3 OH2  OT    -0.834000       15.9994           0
   25917 WT2  423  TIP3 H1   HT     0.417000        1.0080           0
   25918 WT2  423  TIP3 H2   HT     0.417000        1.0080           0
   25919 WT2  424  TIP3 OH2  OT    -0.834000       15.9994           0
   25920 WT2  424  TIP3 H1   HT     0.417000        1.0080           0
   25921 WT2  424  TIP3 H2   HT     0.417000        1.0080           0
   25922 WT2  425  TIP3 OH2  OT    -0.834000       15.9994           0
   25923 WT2  425  TIP3 H1   HT     0.417000        1.0080           0
   25924 WT2  425  TIP3 H2   HT     0.417000        1.0080           0
   25925 WT2  427  TIP3 OH2  OT    -0.834000       15.9994           0
   25926 WT2  427  TIP3 H1   HT     0.417000        1.0080           0
   25927 WT2  427  TIP3 H2   HT     0.417000        1.0080           0
   25928 WT2  428  TIP3 OH2  OT    -0.834000       15.9994           0
   25929 WT2  428  TIP3 H1   HT     0.417000        1.0080           0
   25930 WT2  428  TIP3 H2   HT     0.417000        1.0080           0
   25931 WT2  429  TIP3 OH2  OT    -0.834000       15.9994           0
   25932 WT2  429  TIP3 H1   HT     0.417000        1.0080           0
   25933 WT2  429  TIP3 H2   HT     0.417000        1.0080           0
   25934 WT2  430  TIP3 OH2  OT    -0.834000       15.9994           0
   25935 WT2  430  TIP3 H1   HT     0.417000        1.0080           0
   25936 WT2  430  TIP3 H2   HT     0.417000        1.0080           0
   25937 WT2  432  TIP3 OH2  OT    -0.834000       15.9994           0
   25938 WT2  432  TIP3 H1   HT     0.417000        1.0080           0
   25939 WT2  432  TIP3 H2   HT     0.417000        1.0080           0
   25940 WT2  433  TIP3 OH2  OT    -0.834000       15.9994           0
   25941 WT2  433  TIP3 H1   HT     0.417000        1.0080           0
   25942 WT2  433  TIP3 H2   HT     0.417000        1.0080           0
   25943 WT2  434  TIP3 OH2  OT    -0.834000       15.9994           0
   25944 WT2  434  TIP3 H1   HT     0.417000        1.0080           0
   25945 WT2  434  TIP3 H2   HT     0.417000        1.0080           0
   25946 WT2  435  TIP3 OH2  OT    -0.834000       15.9994           0
   25947 WT2  435  TIP3 H1   HT     0.417000        1.0080           0
   25948 WT2  435  TIP3 H2   HT     0.417000        1.0080           0
   25949 WT2  436  TIP3 OH2  OT    -0.834000       15.9994           0
   25950 WT2  436  TIP3 H1   HT     0.417000        1.0080           0
   25951 WT2  436  TIP3 H2   HT     0.417000        1.0080           0
   25952 WT2  437  TIP3 OH2  OT    -0.834000       15.9994           0
   25953 WT2  437  TIP3 H1   HT     0.417000        1.0080           0
   25954 WT2  437  TIP3 H2   HT     0.417000        1.0080           0
   25955 WT2  438  TIP3 OH2  OT    -0.834000       15.9994           0
   25956 WT2  438  TIP3 H1   HT     0.417000        1.0080           0
   25957 WT2  438  TIP3 H2   HT     0.417000        1.0080           0
   25958 WT2  439  TIP3 OH2  OT    -0.834000       15.9994           0
   25959 WT2  439  TIP3 H1   HT     0.417000        1.0080           0
   25960 WT2  439  TIP3 H2   HT     0.417000        1.0080           0
   25961 WT2  440  TIP3 OH2  OT    -0.834000       15.9994           0
   25962 WT2  440  TIP3 H1   HT     0.417000        1.0080           0
   25963 WT2  440  TIP3 H2   HT     0.417000        1.0080           0
   25964 WT2  441  TIP3 OH2  OT    -0.834000       15.9994           0
   25965 WT2  441  TIP3 H1   HT     0.417000        1.0080           0
   25966 WT2  441  TIP3 H2   HT     0.417000        1.0080           0
   25967 WT2  442  TIP3 OH2  OT    -0.834000       15.9994           0
   25968 WT2  442  TIP3 H1   HT     0.417000        1.0080           0
   25969 WT2  442  TIP3 H2   HT     0.417000        1.0080           0
   25970 WT2  444  TIP3 OH2  OT    -0.834000       15.9994           0
   25971 WT2  444  TIP3 H1   HT     0.417000        1.0080           0
   25972 WT2  444  TIP3 H2   HT     0.417000        1.0080           0
   25973 WT2  445  TIP3 OH2  OT    -0.834000       15.9994           0
   25974 WT2  445  TIP3 H1   HT     0.417000        1.0080           0
   25975 WT2  445  TIP3 H2   HT     0.417000        1.0080           0
   25976 WT2  446  TIP3 OH2  OT    -0.834000       15.9994           0
   25977 WT2  446  TIP3 H1   HT     0.417000        1.0080           0
   25978 WT2  446  TIP3 H2   HT     0.417000        1.0080           0
   25979 WT2  447  TIP3 OH2  OT    -0.834000       15.9994           0
   25980 WT2  447  TIP3 H1   HT     0.417000        1.0080           0
   25981 WT2  447  TIP3 H2   HT     0.417000        1.0080           0
   25982 WT2  448  TIP3 OH2  OT    -0.834000       15.9994           0
   25983 WT2  448  TIP3 H1   HT     0.417000        1.0080           0
   25984 WT2  448  TIP3 H2   HT     0.417000        1.0080           0
   25985 WT2  450  TIP3 OH2  OT    -0.834000       15.9994           0
   25986 WT2  450  TIP3 H1   HT     0.417000        1.0080           0
   25987 WT2  450  TIP3 H2   HT     0.417000        1.0080           0
   25988 WT2  451  TIP3 OH2  OT    -0.834000       15.9994           0
   25989 WT2  451  TIP3 H1   HT     0.417000        1.0080           0
   25990 WT2  451  TIP3 H2   HT     0.417000        1.0080           0
   25991 WT2  453  TIP3 OH2  OT    -0.834000       15.9994           0
   25992 WT2  453  TIP3 H1   HT     0.417000        1.0080           0
   25993 WT2  453  TIP3 H2   HT     0.417000        1.0080           0
   25994 WT2  454  TIP3 OH2  OT    -0.834000       15.9994           0
   25995 WT2  454  TIP3 H1   HT     0.417000        1.0080           0
   25996 WT2  454  TIP3 H2   HT     0.417000        1.0080           0
   25997 WT2  455  TIP3 OH2  OT    -0.834000       15.9994           0
   25998 WT2  455  TIP3 H1   HT     0.417000        1.0080           0
   25999 WT2  455  TIP3 H2   HT     0.417000        1.0080           0
   26000 WT2  456  TIP3 OH2  OT    -0.834000       15.9994           0
   26001 WT2  456  TIP3 H1   HT     0.417000        1.0080           0
   26002 WT2  456  TIP3 H2   HT     0.417000        1.0080           0
   26003 WT2  458  TIP3 OH2  OT    -0.834000       15.9994           0
   26004 WT2  458  TIP3 H1   HT     0.417000        1.0080           0
   26005 WT2  458  TIP3 H2   HT     0.417000        1.0080           0
   26006 WT2  459  TIP3 OH2  OT    -0.834000       15.9994           0
   26007 WT2  459  TIP3 H1   HT     0.417000        1.0080           0
   26008 WT2  459  TIP3 H2   HT     0.417000        1.0080           0
   26009 WT2  460  TIP3 OH2  OT    -0.834000       15.9994           0
   26010 WT2  460  TIP3 H1   HT     0.417000        1.0080           0
   26011 WT2  460  TIP3 H2   HT     0.417000        1.0080           0
   26012 WT2  461  TIP3 OH2  OT    -0.834000       15.9994           0
   26013 WT2  461  TIP3 H1   HT     0.417000        1.0080           0
   26014 WT2  461  TIP3 H2   HT     0.417000        1.0080           0
   26015 WT2  462  TIP3 OH2  OT    -0.834000       15.9994           0
   26016 WT2  462  TIP3 H1   HT     0.417000        1.0080           0
   26017 WT2  462  TIP3 H2   HT     0.417000        1.0080           0
   26018 WT2  464  TIP3 OH2  OT    -0.834000       15.9994           0
   26019 WT2  464  TIP3 H1   HT     0.417000        1.0080           0
   26020 WT2  464  TIP3 H2   HT     0.417000        1.0080           0
   26021 WT2  465  TIP3 OH2  OT    -0.834000       15.9994           0
   26022 WT2  465  TIP3 H1   HT     0.417000        1.0080           0
   26023 WT2  465  TIP3 H2   HT     0.417000        1.0080           0
   26024 WT2  466  TIP3 OH2  OT    -0.834000       15.9994           0
   26025 WT2  466  TIP3 H1   HT     0.417000        1.0080           0
   26026 WT2  466  TIP3 H2   HT     0.417000        1.0080           0
   26027 WT2  468  TIP3 OH2  OT    -0.834000       15.9994           0
   26028 WT2  468  TIP3 H1   HT     0.417000        1.0080           0
   26029 WT2  468  TIP3 H2   HT     0.417000        1.0080           0
   26030 WT2  469  TIP3 OH2  OT    -0.834000       15.9994           0
   26031 WT2  469  TIP3 H1   HT     0.417000        1.0080           0
   26032 WT2  469  TIP3 H2   HT     0.417000        1.0080           0
   26033 WT2  470  TIP3 OH2  OT    -0.834000       15.9994           0
   26034 WT2  470  TIP3 H1   HT     0.417000        1.0080           0
   26035 WT2  470  TIP3 H2   HT     0.417000        1.0080           0
   26036 WT2  471  TIP3 OH2  OT    -0.834000       15.9994           0
   26037 WT2  471  TIP3 H1   HT     0.417000        1.0080           0
   26038 WT2  471  TIP3 H2   HT     0.417000        1.0080           0
   26039 WT2  472  TIP3 OH2  OT    -0.834000       15.9994           0
   26040 WT2  472  TIP3 H1   HT     0.417000        1.0080           0
   26041 WT2  472  TIP3 H2   HT     0.417000        1.0080           0
   26042 WT2  473  TIP3 OH2  OT    -0.834000       15.9994           0
   26043 WT2  473  TIP3 H1   HT     0.417000        1.0080           0
   26044 WT2  473  TIP3 H2   HT     0.417000        1.0080           0
   26045 WT2  474  TIP3 OH2  OT    -0.834000       15.9994           0
   26046 WT2  474  TIP3 H1   HT     0.417000        1.0080           0
   26047 WT2  474  TIP3 H2   HT     0.417000        1.0080           0
   26048 WT2  475  TIP3 OH2  OT    -0.834000       15.9994           0
   26049 WT2  475  TIP3 H1   HT     0.417000        1.0080           0
   26050 WT2  475  TIP3 H2   HT     0.417000        1.0080           0
   26051 WT2  476  TIP3 OH2  OT    -0.834000       15.9994           0
   26052 WT2  476  TIP3 H1   HT     0.417000        1.0080           0
   26053 WT2  476  TIP3 H2   HT     0.417000        1.0080           0
   26054 WT2  477  TIP3 OH2  OT    -0.834000       15.9994           0
   26055 WT2  477  TIP3 H1   HT     0.417000        1.0080           0
   26056 WT2  477  TIP3 H2   HT     0.417000        1.0080           0
   26057 WT2  478  TIP3 OH2  OT    -0.834000       15.9994           0
   26058 WT2  478  TIP3 H1   HT     0.417000        1.0080           0
   26059 WT2  478  TIP3 H2   HT     0.417000        1.0080           0
   26060 WT2  479  TIP3 OH2  OT    -0.834000       15.9994           0
   26061 WT2  479  TIP3 H1   HT     0.417000        1.0080           0
   26062 WT2  479  TIP3 H2   HT     0.417000        1.0080           0
   26063 WT2  480  TIP3 OH2  OT    -0.834000       15.9994           0
   26064 WT2  480  TIP3 H1   HT     0.417000        1.0080           0
   26065 WT2  480  TIP3 H2   HT     0.417000        1.0080           0
   26066 WT2  482  TIP3 OH2  OT    -0.834000       15.9994           0
   26067 WT2  482  TIP3 H1   HT     0.417000        1.0080           0
   26068 WT2  482  TIP3 H2   HT     0.417000        1.0080           0
   26069 WT2  484  TIP3 OH2  OT    -0.834000       15.9994           0
   26070 WT2  484  TIP3 H1   HT     0.417000        1.0080           0
   26071 WT2  484  TIP3 H2   HT     0.417000        1.0080           0
   26072 WT2  485  TIP3 OH2  OT    -0.834000       15.9994           0
   26073 WT2  485  TIP3 H1   HT     0.417000        1.0080           0
   26074 WT2  485  TIP3 H2   HT     0.417000        1.0080           0
   26075 WT2  487  TIP3 OH2  OT    -0.834000       15.9994           0
   26076 WT2  487  TIP3 H1   HT     0.417000        1.0080           0
   26077 WT2  487  TIP3 H2   HT     0.417000        1.0080           0
   26078 WT2  489  TIP3 OH2  OT    -0.834000       15.9994           0
   26079 WT2  489  TIP3 H1   HT     0.417000        1.0080           0
   26080 WT2  489  TIP3 H2   HT     0.417000        1.0080           0
   26081 WT2  490  TIP3 OH2  OT    -0.834000       15.9994           0
   26082 WT2  490  TIP3 H1   HT     0.417000        1.0080           0
   26083 WT2  490  TIP3 H2   HT     0.417000        1.0080           0
   26084 WT2  491  TIP3 OH2  OT    -0.834000       15.9994           0
   26085 WT2  491  TIP3 H1   HT     0.417000        1.0080           0
   26086 WT2  491  TIP3 H2   HT     0.417000        1.0080           0
   26087 WT2  492  TIP3 OH2  OT    -0.834000       15.9994           0
   26088 WT2  492  TIP3 H1   HT     0.417000        1.0080           0
   26089 WT2  492  TIP3 H2   HT     0.417000        1.0080           0
   26090 WT2  493  TIP3 OH2  OT    -0.834000       15.9994           0
   26091 WT2  493  TIP3 H1   HT     0.417000        1.0080           0
   26092 WT2  493  TIP3 H2   HT     0.417000        1.0080           0
   26093 WT2  494  TIP3 OH2  OT    -0.834000       15.9994           0
   26094 WT2  494  TIP3 H1   HT     0.417000        1.0080           0
   26095 WT2  494  TIP3 H2   HT     0.417000        1.0080           0
   26096 WT2  495  TIP3 OH2  OT    -0.834000       15.9994           0
   26097 WT2  495  TIP3 H1   HT     0.417000        1.0080           0
   26098 WT2  495  TIP3 H2   HT     0.417000        1.0080           0
   26099 WT2  496  TIP3 OH2  OT    -0.834000       15.9994           0
   26100 WT2  496  TIP3 H1   HT     0.417000        1.0080           0
   26101 WT2  496  TIP3 H2   HT     0.417000        1.0080           0
   26102 WT2  497  TIP3 OH2  OT    -0.834000       15.9994           0
   26103 WT2  497  TIP3 H1   HT     0.417000        1.0080           0
   26104 WT2  497  TIP3 H2   HT     0.417000        1.0080           0
   26105 WT2  498  TIP3 OH2  OT    -0.834000       15.9994           0
   26106 WT2  498  TIP3 H1   HT     0.417000        1.0080           0
   26107 WT2  498  TIP3 H2   HT     0.417000        1.0080           0
   26108 WT2  499  TIP3 OH2  OT    -0.834000       15.9994           0
   26109 WT2  499  TIP3 H1   HT     0.417000        1.0080           0
   26110 WT2  499  TIP3 H2   HT     0.417000        1.0080           0
   26111 WT2  500  TIP3 OH2  OT    -0.834000       15.9994           0
   26112 WT2  500  TIP3 H1   HT     0.417000        1.0080           0
   26113 WT2  500  TIP3 H2   HT     0.417000        1.0080           0
   26114 WT2  501  TIP3 OH2  OT    -0.834000       15.9994           0
   26115 WT2  501  TIP3 H1   HT     0.417000        1.0080           0
   26116 WT2  501  TIP3 H2   HT     0.417000        1.0080           0
   26117 WT2  502  TIP3 OH2  OT    -0.834000       15.9994           0
   26118 WT2  502  TIP3 H1   HT     0.417000        1.0080           0
   26119 WT2  502  TIP3 H2   HT     0.417000        1.0080           0
   26120 WT2  503  TIP3 OH2  OT    -0.834000       15.9994           0
   26121 WT2  503  TIP3 H1   HT     0.417000        1.0080           0
   26122 WT2  503  TIP3 H2   HT     0.417000        1.0080           0
   26123 WT2  504  TIP3 OH2  OT    -0.834000       15.9994           0
   26124 WT2  504  TIP3 H1   HT     0.417000        1.0080           0
   26125 WT2  504  TIP3 H2   HT     0.417000        1.0080           0
   26126 WT2  505  TIP3 OH2  OT    -0.834000       15.9994           0
   26127 WT2  505  TIP3 H1   HT     0.417000        1.0080           0
   26128 WT2  505  TIP3 H2   HT     0.417000        1.0080           0
   26129 WT2  506  TIP3 OH2  OT    -0.834000       15.9994           0
   26130 WT2  506  TIP3 H1   HT     0.417000        1.0080           0
   26131 WT2  506  TIP3 H2   HT     0.417000        1.0080           0
   26132 WT2  507  TIP3 OH2  OT    -0.834000       15.9994           0
   26133 WT2  507  TIP3 H1   HT     0.417000        1.0080           0
   26134 WT2  507  TIP3 H2   HT     0.417000        1.0080           0
   26135 WT2  508  TIP3 OH2  OT    -0.834000       15.9994           0
   26136 WT2  508  TIP3 H1   HT     0.417000        1.0080           0
   26137 WT2  508  TIP3 H2   HT     0.417000        1.0080           0
   26138 WT2  509  TIP3 OH2  OT    -0.834000       15.9994           0
   26139 WT2  509  TIP3 H1   HT     0.417000        1.0080           0
   26140 WT2  509  TIP3 H2   HT     0.417000        1.0080           0
   26141 WT2  513  TIP3 OH2  OT    -0.834000       15.9994           0
   26142 WT2  513  TIP3 H1   HT     0.417000        1.0080           0
   26143 WT2  513  TIP3 H2   HT     0.417000        1.0080           0
   26144 WT2  514  TIP3 OH2  OT    -0.834000       15.9994           0
   26145 WT2  514  TIP3 H1   HT     0.417000        1.0080           0
   26146 WT2  514  TIP3 H2   HT     0.417000        1.0080           0
   26147 WT2  515  TIP3 OH2  OT    -0.834000       15.9994           0
   26148 WT2  515  TIP3 H1   HT     0.417000        1.0080           0
   26149 WT2  515  TIP3 H2   HT     0.417000        1.0080           0
   26150 WT2  516  TIP3 OH2  OT    -0.834000       15.9994           0
   26151 WT2  516  TIP3 H1   HT     0.417000        1.0080           0
   26152 WT2  516  TIP3 H2   HT     0.417000        1.0080           0
   26153 WT2  517  TIP3 OH2  OT    -0.834000       15.9994           0
   26154 WT2  517  TIP3 H1   HT     0.417000        1.0080           0
   26155 WT2  517  TIP3 H2   HT     0.417000        1.0080           0
   26156 WT2  518  TIP3 OH2  OT    -0.834000       15.9994           0
   26157 WT2  518  TIP3 H1   HT     0.417000        1.0080           0
   26158 WT2  518  TIP3 H2   HT     0.417000        1.0080           0
   26159 WT2  519  TIP3 OH2  OT    -0.834000       15.9994           0
   26160 WT2  519  TIP3 H1   HT     0.417000        1.0080           0
   26161 WT2  519  TIP3 H2   HT     0.417000        1.0080           0
   26162 WT2  521  TIP3 OH2  OT    -0.834000       15.9994           0
   26163 WT2  521  TIP3 H1   HT     0.417000        1.0080           0
   26164 WT2  521  TIP3 H2   HT     0.417000        1.0080           0
   26165 WT2  522  TIP3 OH2  OT    -0.834000       15.9994           0
   26166 WT2  522  TIP3 H1   HT     0.417000        1.0080           0
   26167 WT2  522  TIP3 H2   HT     0.417000        1.0080           0
   26168 WT2  523  TIP3 OH2  OT    -0.834000       15.9994           0
   26169 WT2  523  TIP3 H1   HT     0.417000        1.0080           0
   26170 WT2  523  TIP3 H2   HT     0.417000        1.0080           0
   26171 WT2  524  TIP3 OH2  OT    -0.834000       15.9994           0
   26172 WT2  524  TIP3 H1   HT     0.417000        1.0080           0
   26173 WT2  524  TIP3 H2   HT     0.417000        1.0080           0
   26174 WT2  525  TIP3 OH2  OT    -0.834000       15.9994           0
   26175 WT2  525  TIP3 H1   HT     0.417000        1.0080           0
   26176 WT2  525  TIP3 H2   HT     0.417000        1.0080           0
   26177 WT2  526  TIP3 OH2  OT    -0.834000       15.9994           0
   26178 WT2  526  TIP3 H1   HT     0.417000        1.0080           0
   26179 WT2  526  TIP3 H2   HT     0.417000        1.0080           0
   26180 WT2  527  TIP3 OH2  OT    -0.834000       15.9994           0
   26181 WT2  527  TIP3 H1   HT     0.417000        1.0080           0
   26182 WT2  527  TIP3 H2   HT     0.417000        1.0080           0
   26183 WT2  529  TIP3 OH2  OT    -0.834000       15.9994           0
   26184 WT2  529  TIP3 H1   HT     0.417000        1.0080           0
   26185 WT2  529  TIP3 H2   HT     0.417000        1.0080           0
   26186 WT2  530  TIP3 OH2  OT    -0.834000       15.9994           0
   26187 WT2  530  TIP3 H1   HT     0.417000        1.0080           0
   26188 WT2  530  TIP3 H2   HT     0.417000        1.0080           0
   26189 WT2  531  TIP3 OH2  OT    -0.834000       15.9994           0
   26190 WT2  531  TIP3 H1   HT     0.417000        1.0080           0
   26191 WT2  531  TIP3 H2   HT     0.417000        1.0080           0
   26192 WT2  532  TIP3 OH2  OT    -0.834000       15.9994           0
   26193 WT2  532  TIP3 H1   HT     0.417000        1.0080           0
   26194 WT2  532  TIP3 H2   HT     0.417000        1.0080           0
   26195 WT2  533  TIP3 OH2  OT    -0.834000       15.9994           0
   26196 WT2  533  TIP3 H1   HT     0.417000        1.0080           0
   26197 WT2  533  TIP3 H2   HT     0.417000        1.0080           0
   26198 WT2  534  TIP3 OH2  OT    -0.834000       15.9994           0
   26199 WT2  534  TIP3 H1   HT     0.417000        1.0080           0
   26200 WT2  534  TIP3 H2   HT     0.417000        1.0080           0
   26201 WT2  535  TIP3 OH2  OT    -0.834000       15.9994           0
   26202 WT2  535  TIP3 H1   HT     0.417000        1.0080           0
   26203 WT2  535  TIP3 H2   HT     0.417000        1.0080           0
   26204 WT2  536  TIP3 OH2  OT    -0.834000       15.9994           0
   26205 WT2  536  TIP3 H1   HT     0.417000        1.0080           0
   26206 WT2  536  TIP3 H2   HT     0.417000        1.0080           0
   26207 WT2  537  TIP3 OH2  OT    -0.834000       15.9994           0
   26208 WT2  537  TIP3 H1   HT     0.417000        1.0080           0
   26209 WT2  537  TIP3 H2   HT     0.417000        1.0080           0
   26210 WT2  538  TIP3 OH2  OT    -0.834000       15.9994           0
   26211 WT2  538  TIP3 H1   HT     0.417000        1.0080           0
   26212 WT2  538  TIP3 H2   HT     0.417000        1.0080           0
   26213 WT2  539  TIP3 OH2  OT    -0.834000       15.9994           0
   26214 WT2  539  TIP3 H1   HT     0.417000        1.0080           0
   26215 WT2  539  TIP3 H2   HT     0.417000        1.0080           0
   26216 WT2  541  TIP3 OH2  OT    -0.834000       15.9994           0
   26217 WT2  541  TIP3 H1   HT     0.417000        1.0080           0
   26218 WT2  541  TIP3 H2   HT     0.417000        1.0080           0
   26219 WT2  542  TIP3 OH2  OT    -0.834000       15.9994           0
   26220 WT2  542  TIP3 H1   HT     0.417000        1.0080           0
   26221 WT2  542  TIP3 H2   HT     0.417000        1.0080           0
   26222 WT2  543  TIP3 OH2  OT    -0.834000       15.9994           0
   26223 WT2  543  TIP3 H1   HT     0.417000        1.0080           0
   26224 WT2  543  TIP3 H2   HT     0.417000        1.0080           0
   26225 WT2  544  TIP3 OH2  OT    -0.834000       15.9994           0
   26226 WT2  544  TIP3 H1   HT     0.417000        1.0080           0
   26227 WT2  544  TIP3 H2   HT     0.417000        1.0080           0
   26228 WT2  547  TIP3 OH2  OT    -0.834000       15.9994           0
   26229 WT2  547  TIP3 H1   HT     0.417000        1.0080           0
   26230 WT2  547  TIP3 H2   HT     0.417000        1.0080           0
   26231 WT2  549  TIP3 OH2  OT    -0.834000       15.9994           0
   26232 WT2  549  TIP3 H1   HT     0.417000        1.0080           0
   26233 WT2  549  TIP3 H2   HT     0.417000        1.0080           0
   26234 WT2  550  TIP3 OH2  OT    -0.834000       15.9994           0
   26235 WT2  550  TIP3 H1   HT     0.417000        1.0080           0
   26236 WT2  550  TIP3 H2   HT     0.417000        1.0080           0
   26237 WT2  554  TIP3 OH2  OT    -0.834000       15.9994           0
   26238 WT2  554  TIP3 H1   HT     0.417000        1.0080           0
   26239 WT2  554  TIP3 H2   HT     0.417000        1.0080           0
   26240 WT2  555  TIP3 OH2  OT    -0.834000       15.9994           0
   26241 WT2  555  TIP3 H1   HT     0.417000        1.0080           0
   26242 WT2  555  TIP3 H2   HT     0.417000        1.0080           0
   26243 WT2  557  TIP3 OH2  OT    -0.834000       15.9994           0
   26244 WT2  557  TIP3 H1   HT     0.417000        1.0080           0
   26245 WT2  557  TIP3 H2   HT     0.417000        1.0080           0
   26246 WT2  558  TIP3 OH2  OT    -0.834000       15.9994           0
   26247 WT2  558  TIP3 H1   HT     0.417000        1.0080           0
   26248 WT2  558  TIP3 H2   HT     0.417000        1.0080           0
   26249 WT2  559  TIP3 OH2  OT    -0.834000       15.9994           0
   26250 WT2  559  TIP3 H1   HT     0.417000        1.0080           0
   26251 WT2  559  TIP3 H2   HT     0.417000        1.0080           0
   26252 WT2  560  TIP3 OH2  OT    -0.834000       15.9994           0
   26253 WT2  560  TIP3 H1   HT     0.417000        1.0080           0
   26254 WT2  560  TIP3 H2   HT     0.417000        1.0080           0
   26255 WT2  561  TIP3 OH2  OT    -0.834000       15.9994           0
   26256 WT2  561  TIP3 H1   HT     0.417000        1.0080           0
   26257 WT2  561  TIP3 H2   HT     0.417000        1.0080           0
   26258 WT2  563  TIP3 OH2  OT    -0.834000       15.9994           0
   26259 WT2  563  TIP3 H1   HT     0.417000        1.0080           0
   26260 WT2  563  TIP3 H2   HT     0.417000        1.0080           0
   26261 WT2  565  TIP3 OH2  OT    -0.834000       15.9994           0
   26262 WT2  565  TIP3 H1   HT     0.417000        1.0080           0
   26263 WT2  565  TIP3 H2   HT     0.417000        1.0080           0
   26264 WT2  567  TIP3 OH2  OT    -0.834000       15.9994           0
   26265 WT2  567  TIP3 H1   HT     0.417000        1.0080           0
   26266 WT2  567  TIP3 H2   HT     0.417000        1.0080           0
   26267 WT2  568  TIP3 OH2  OT    -0.834000       15.9994           0
   26268 WT2  568  TIP3 H1   HT     0.417000        1.0080           0
   26269 WT2  568  TIP3 H2   HT     0.417000        1.0080           0
   26270 WT2  569  TIP3 OH2  OT    -0.834000       15.9994           0
   26271 WT2  569  TIP3 H1   HT     0.417000        1.0080           0
   26272 WT2  569  TIP3 H2   HT     0.417000        1.0080           0
   26273 WT2  570  TIP3 OH2  OT    -0.834000       15.9994           0
   26274 WT2  570  TIP3 H1   HT     0.417000        1.0080           0
   26275 WT2  570  TIP3 H2   HT     0.417000        1.0080           0
   26276 WT2  571  TIP3 OH2  OT    -0.834000       15.9994           0
   26277 WT2  571  TIP3 H1   HT     0.417000        1.0080           0
   26278 WT2  571  TIP3 H2   HT     0.417000        1.0080           0
   26279 WT2  572  TIP3 OH2  OT    -0.834000       15.9994           0
   26280 WT2  572  TIP3 H1   HT     0.417000        1.0080           0
   26281 WT2  572  TIP3 H2   HT     0.417000        1.0080           0
   26282 WT2  573  TIP3 OH2  OT    -0.834000       15.9994           0
   26283 WT2  573  TIP3 H1   HT     0.417000        1.0080           0
   26284 WT2  573  TIP3 H2   HT     0.417000        1.0080           0
   26285 WT2  574  TIP3 OH2  OT    -0.834000       15.9994           0
   26286 WT2  574  TIP3 H1   HT     0.417000        1.0080           0
   26287 WT2  574  TIP3 H2   HT     0.417000        1.0080           0
   26288 WT2  575  TIP3 OH2  OT    -0.834000       15.9994           0
   26289 WT2  575  TIP3 H1   HT     0.417000        1.0080           0
   26290 WT2  575  TIP3 H2   HT     0.417000        1.0080           0
   26291 WT2  576  TIP3 OH2  OT    -0.834000       15.9994           0
   26292 WT2  576  TIP3 H1   HT     0.417000        1.0080           0
   26293 WT2  576  TIP3 H2   HT     0.417000        1.0080           0
   26294 WT2  577  TIP3 OH2  OT    -0.834000       15.9994           0
   26295 WT2  577  TIP3 H1   HT     0.417000        1.0080           0
   26296 WT2  577  TIP3 H2   HT     0.417000        1.0080           0
   26297 WT2  578  TIP3 OH2  OT    -0.834000       15.9994           0
   26298 WT2  578  TIP3 H1   HT     0.417000        1.0080           0
   26299 WT2  578  TIP3 H2   HT     0.417000        1.0080           0
   26300 WT2  579  TIP3 OH2  OT    -0.834000       15.9994           0
   26301 WT2  579  TIP3 H1   HT     0.417000        1.0080           0
   26302 WT2  579  TIP3 H2   HT     0.417000        1.0080           0
   26303 WT2  580  TIP3 OH2  OT    -0.834000       15.9994           0
   26304 WT2  580  TIP3 H1   HT     0.417000        1.0080           0
   26305 WT2  580  TIP3 H2   HT     0.417000        1.0080           0
   26306 WT2  581  TIP3 OH2  OT    -0.834000       15.9994           0
   26307 WT2  581  TIP3 H1   HT     0.417000        1.0080           0
   26308 WT2  581  TIP3 H2   HT     0.417000        1.0080           0
   26309 WT2  582  TIP3 OH2  OT    -0.834000       15.9994           0
   26310 WT2  582  TIP3 H1   HT     0.417000        1.0080           0
   26311 WT2  582  TIP3 H2   HT     0.417000        1.0080           0
   26312 WT2  583  TIP3 OH2  OT    -0.834000       15.9994           0
   26313 WT2  583  TIP3 H1   HT     0.417000        1.0080           0
   26314 WT2  583  TIP3 H2   HT     0.417000        1.0080           0
   26315 WT2  584  TIP3 OH2  OT    -0.834000       15.9994           0
   26316 WT2  584  TIP3 H1   HT     0.417000        1.0080           0
   26317 WT2  584  TIP3 H2   HT     0.417000        1.0080           0
   26318 WT2  585  TIP3 OH2  OT    -0.834000       15.9994           0
   26319 WT2  585  TIP3 H1   HT     0.417000        1.0080           0
   26320 WT2  585  TIP3 H2   HT     0.417000        1.0080           0
   26321 WT2  586  TIP3 OH2  OT    -0.834000       15.9994           0
   26322 WT2  586  TIP3 H1   HT     0.417000        1.0080           0
   26323 WT2  586  TIP3 H2   HT     0.417000        1.0080           0
   26324 WT2  587  TIP3 OH2  OT    -0.834000       15.9994           0
   26325 WT2  587  TIP3 H1   HT     0.417000        1.0080           0
   26326 WT2  587  TIP3 H2   HT     0.417000        1.0080           0
   26327 WT2  588  TIP3 OH2  OT    -0.834000       15.9994           0
   26328 WT2  588  TIP3 H1   HT     0.417000        1.0080           0
   26329 WT2  588  TIP3 H2   HT     0.417000        1.0080           0
   26330 WT2  589  TIP3 OH2  OT    -0.834000       15.9994           0
   26331 WT2  589  TIP3 H1   HT     0.417000        1.0080           0
   26332 WT2  589  TIP3 H2   HT     0.417000        1.0080           0
   26333 WT2  590  TIP3 OH2  OT    -0.834000       15.9994           0
   26334 WT2  590  TIP3 H1   HT     0.417000        1.0080           0
   26335 WT2  590  TIP3 H2   HT     0.417000        1.0080           0
   26336 WT2  592  TIP3 OH2  OT    -0.834000       15.9994           0
   26337 WT2  592  TIP3 H1   HT     0.417000        1.0080           0
   26338 WT2  592  TIP3 H2   HT     0.417000        1.0080           0
   26339 WT2  593  TIP3 OH2  OT    -0.834000       15.9994           0
   26340 WT2  593  TIP3 H1   HT     0.417000        1.0080           0
   26341 WT2  593  TIP3 H2   HT     0.417000        1.0080           0
   26342 WT2  594  TIP3 OH2  OT    -0.834000       15.9994           0
   26343 WT2  594  TIP3 H1   HT     0.417000        1.0080           0
   26344 WT2  594  TIP3 H2   HT     0.417000        1.0080           0
   26345 WT2  595  TIP3 OH2  OT    -0.834000       15.9994           0
   26346 WT2  595  TIP3 H1   HT     0.417000        1.0080           0
   26347 WT2  595  TIP3 H2   HT     0.417000        1.0080           0
   26348 WT2  596  TIP3 OH2  OT    -0.834000       15.9994           0
   26349 WT2  596  TIP3 H1   HT     0.417000        1.0080           0
   26350 WT2  596  TIP3 H2   HT     0.417000        1.0080           0
   26351 WT2  597  TIP3 OH2  OT    -0.834000       15.9994           0
   26352 WT2  597  TIP3 H1   HT     0.417000        1.0080           0
   26353 WT2  597  TIP3 H2   HT     0.417000        1.0080           0
   26354 WT2  598  TIP3 OH2  OT    -0.834000       15.9994           0
   26355 WT2  598  TIP3 H1   HT     0.417000        1.0080           0
   26356 WT2  598  TIP3 H2   HT     0.417000        1.0080           0
   26357 WT2  599  TIP3 OH2  OT    -0.834000       15.9994           0
   26358 WT2  599  TIP3 H1   HT     0.417000        1.0080           0
   26359 WT2  599  TIP3 H2   HT     0.417000        1.0080           0
   26360 WT2  600  TIP3 OH2  OT    -0.834000       15.9994           0
   26361 WT2  600  TIP3 H1   HT     0.417000        1.0080           0
   26362 WT2  600  TIP3 H2   HT     0.417000        1.0080           0
   26363 WT2  601  TIP3 OH2  OT    -0.834000       15.9994           0
   26364 WT2  601  TIP3 H1   HT     0.417000        1.0080           0
   26365 WT2  601  TIP3 H2   HT     0.417000        1.0080           0
   26366 WT2  602  TIP3 OH2  OT    -0.834000       15.9994           0
   26367 WT2  602  TIP3 H1   HT     0.417000        1.0080           0
   26368 WT2  602  TIP3 H2   HT     0.417000        1.0080           0
   26369 WT2  604  TIP3 OH2  OT    -0.834000       15.9994           0
   26370 WT2  604  TIP3 H1   HT     0.417000        1.0080           0
   26371 WT2  604  TIP3 H2   HT     0.417000        1.0080           0
   26372 WT2  605  TIP3 OH2  OT    -0.834000       15.9994           0
   26373 WT2  605  TIP3 H1   HT     0.417000        1.0080           0
   26374 WT2  605  TIP3 H2   HT     0.417000        1.0080           0
   26375 WT2  606  TIP3 OH2  OT    -0.834000       15.9994           0
   26376 WT2  606  TIP3 H1   HT     0.417000        1.0080           0
   26377 WT2  606  TIP3 H2   HT     0.417000        1.0080           0
   26378 WT2  607  TIP3 OH2  OT    -0.834000       15.9994           0
   26379 WT2  607  TIP3 H1   HT     0.417000        1.0080           0
   26380 WT2  607  TIP3 H2   HT     0.417000        1.0080           0
   26381 WT2  610  TIP3 OH2  OT    -0.834000       15.9994           0
   26382 WT2  610  TIP3 H1   HT     0.417000        1.0080           0
   26383 WT2  610  TIP3 H2   HT     0.417000        1.0080           0
   26384 WT2  611  TIP3 OH2  OT    -0.834000       15.9994           0
   26385 WT2  611  TIP3 H1   HT     0.417000        1.0080           0
   26386 WT2  611  TIP3 H2   HT     0.417000        1.0080           0
   26387 WT2  612  TIP3 OH2  OT    -0.834000       15.9994           0
   26388 WT2  612  TIP3 H1   HT     0.417000        1.0080           0
   26389 WT2  612  TIP3 H2   HT     0.417000        1.0080           0
   26390 WT2  613  TIP3 OH2  OT    -0.834000       15.9994           0
   26391 WT2  613  TIP3 H1   HT     0.417000        1.0080           0
   26392 WT2  613  TIP3 H2   HT     0.417000        1.0080           0
   26393 WT2  614  TIP3 OH2  OT    -0.834000       15.9994           0
   26394 WT2  614  TIP3 H1   HT     0.417000        1.0080           0
   26395 WT2  614  TIP3 H2   HT     0.417000        1.0080           0
   26396 WT2  615  TIP3 OH2  OT    -0.834000       15.9994           0
   26397 WT2  615  TIP3 H1   HT     0.417000        1.0080           0
   26398 WT2  615  TIP3 H2   HT     0.417000        1.0080           0
   26399 WT2  616  TIP3 OH2  OT    -0.834000       15.9994           0
   26400 WT2  616  TIP3 H1   HT     0.417000        1.0080           0
   26401 WT2  616  TIP3 H2   HT     0.417000        1.0080           0
   26402 WT2  617  TIP3 OH2  OT    -0.834000       15.9994           0
   26403 WT2  617  TIP3 H1   HT     0.417000        1.0080           0
   26404 WT2  617  TIP3 H2   HT     0.417000        1.0080           0
   26405 WT2  618  TIP3 OH2  OT    -0.834000       15.9994           0
   26406 WT2  618  TIP3 H1   HT     0.417000        1.0080           0
   26407 WT2  618  TIP3 H2   HT     0.417000        1.0080           0
   26408 WT2  619  TIP3 OH2  OT    -0.834000       15.9994           0
   26409 WT2  619  TIP3 H1   HT     0.417000        1.0080           0
   26410 WT2  619  TIP3 H2   HT     0.417000        1.0080           0
   26411 WT2  620  TIP3 OH2  OT    -0.834000       15.9994           0
   26412 WT2  620  TIP3 H1   HT     0.417000        1.0080           0
   26413 WT2  620  TIP3 H2   HT     0.417000        1.0080           0
   26414 WT2  621  TIP3 OH2  OT    -0.834000       15.9994           0
   26415 WT2  621  TIP3 H1   HT     0.417000        1.0080           0
   26416 WT2  621  TIP3 H2   HT     0.417000        1.0080           0
   26417 WT2  622  TIP3 OH2  OT    -0.834000       15.9994           0
   26418 WT2  622  TIP3 H1   HT     0.417000        1.0080           0
   26419 WT2  622  TIP3 H2   HT     0.417000        1.0080           0
   26420 WT2  623  TIP3 OH2  OT    -0.834000       15.9994           0
   26421 WT2  623  TIP3 H1   HT     0.417000        1.0080           0
   26422 WT2  623  TIP3 H2   HT     0.417000        1.0080           0
   26423 WT2  624  TIP3 OH2  OT    -0.834000       15.9994           0
   26424 WT2  624  TIP3 H1   HT     0.417000        1.0080           0
   26425 WT2  624  TIP3 H2   HT     0.417000        1.0080           0
   26426 WT2  625  TIP3 OH2  OT    -0.834000       15.9994           0
   26427 WT2  625  TIP3 H1   HT     0.417000        1.0080           0
   26428 WT2  625  TIP3 H2   HT     0.417000        1.0080           0
   26429 WT2  626  TIP3 OH2  OT    -0.834000       15.9994           0
   26430 WT2  626  TIP3 H1   HT     0.417000        1.0080           0
   26431 WT2  626  TIP3 H2   HT     0.417000        1.0080           0
   26432 WT2  627  TIP3 OH2  OT    -0.834000       15.9994           0
   26433 WT2  627  TIP3 H1   HT     0.417000        1.0080           0
   26434 WT2  627  TIP3 H2   HT     0.417000        1.0080           0
   26435 WT2  628  TIP3 OH2  OT    -0.834000       15.9994           0
   26436 WT2  628  TIP3 H1   HT     0.417000        1.0080           0
   26437 WT2  628  TIP3 H2   HT     0.417000        1.0080           0
   26438 WT2  630  TIP3 OH2  OT    -0.834000       15.9994           0
   26439 WT2  630  TIP3 H1   HT     0.417000        1.0080           0
   26440 WT2  630  TIP3 H2   HT     0.417000        1.0080           0
   26441 WT2  631  TIP3 OH2  OT    -0.834000       15.9994           0
   26442 WT2  631  TIP3 H1   HT     0.417000        1.0080           0
   26443 WT2  631  TIP3 H2   HT     0.417000        1.0080           0
   26444 WT2  633  TIP3 OH2  OT    -0.834000       15.9994           0
   26445 WT2  633  TIP3 H1   HT     0.417000        1.0080           0
   26446 WT2  633  TIP3 H2   HT     0.417000        1.0080           0
   26447 WT2  635  TIP3 OH2  OT    -0.834000       15.9994           0
   26448 WT2  635  TIP3 H1   HT     0.417000        1.0080           0
   26449 WT2  635  TIP3 H2   HT     0.417000        1.0080           0
   26450 WT2  636  TIP3 OH2  OT    -0.834000       15.9994           0
   26451 WT2  636  TIP3 H1   HT     0.417000        1.0080           0
   26452 WT2  636  TIP3 H2   HT     0.417000        1.0080           0
   26453 WT2  637  TIP3 OH2  OT    -0.834000       15.9994           0
   26454 WT2  637  TIP3 H1   HT     0.417000        1.0080           0
   26455 WT2  637  TIP3 H2   HT     0.417000        1.0080           0
   26456 WT2  638  TIP3 OH2  OT    -0.834000       15.9994           0
   26457 WT2  638  TIP3 H1   HT     0.417000        1.0080           0
   26458 WT2  638  TIP3 H2   HT     0.417000        1.0080           0
   26459 WT2  639  TIP3 OH2  OT    -0.834000       15.9994           0
   26460 WT2  639  TIP3 H1   HT     0.417000        1.0080           0
   26461 WT2  639  TIP3 H2   HT     0.417000        1.0080           0
   26462 WT2  640  TIP3 OH2  OT    -0.834000       15.9994           0
   26463 WT2  640  TIP3 H1   HT     0.417000        1.0080           0
   26464 WT2  640  TIP3 H2   HT     0.417000        1.0080           0
   26465 WT2  642  TIP3 OH2  OT    -0.834000       15.9994           0
   26466 WT2  642  TIP3 H1   HT     0.417000        1.0080           0
   26467 WT2  642  TIP3 H2   HT     0.417000        1.0080           0
   26468 WT2  643  TIP3 OH2  OT    -0.834000       15.9994           0
   26469 WT2  643  TIP3 H1   HT     0.417000        1.0080           0
   26470 WT2  643  TIP3 H2   HT     0.417000        1.0080           0
   26471 WT2  644  TIP3 OH2  OT    -0.834000       15.9994           0
   26472 WT2  644  TIP3 H1   HT     0.417000        1.0080           0
   26473 WT2  644  TIP3 H2   HT     0.417000        1.0080           0
   26474 WT2  645  TIP3 OH2  OT    -0.834000       15.9994           0
   26475 WT2  645  TIP3 H1   HT     0.417000        1.0080           0
   26476 WT2  645  TIP3 H2   HT     0.417000        1.0080           0
   26477 WT2  646  TIP3 OH2  OT    -0.834000       15.9994           0
   26478 WT2  646  TIP3 H1   HT     0.417000        1.0080           0
   26479 WT2  646  TIP3 H2   HT     0.417000        1.0080           0
   26480 WT2  647  TIP3 OH2  OT    -0.834000       15.9994           0
   26481 WT2  647  TIP3 H1   HT     0.417000        1.0080           0
   26482 WT2  647  TIP3 H2   HT     0.417000        1.0080           0
   26483 WT2  648  TIP3 OH2  OT    -0.834000       15.9994           0
   26484 WT2  648  TIP3 H1   HT     0.417000        1.0080           0
   26485 WT2  648  TIP3 H2   HT     0.417000        1.0080           0
   26486 WT2  649  TIP3 OH2  OT    -0.834000       15.9994           0
   26487 WT2  649  TIP3 H1   HT     0.417000        1.0080           0
   26488 WT2  649  TIP3 H2   HT     0.417000        1.0080           0
   26489 WT2  650  TIP3 OH2  OT    -0.834000       15.9994           0
   26490 WT2  650  TIP3 H1   HT     0.417000        1.0080           0
   26491 WT2  650  TIP3 H2   HT     0.417000        1.0080           0
   26492 WT2  651  TIP3 OH2  OT    -0.834000       15.9994           0
   26493 WT2  651  TIP3 H1   HT     0.417000        1.0080           0
   26494 WT2  651  TIP3 H2   HT     0.417000        1.0080           0
   26495 WT2  652  TIP3 OH2  OT    -0.834000       15.9994           0
   26496 WT2  652  TIP3 H1   HT     0.417000        1.0080           0
   26497 WT2  652  TIP3 H2   HT     0.417000        1.0080           0
   26498 WT2  653  TIP3 OH2  OT    -0.834000       15.9994           0
   26499 WT2  653  TIP3 H1   HT     0.417000        1.0080           0
   26500 WT2  653  TIP3 H2   HT     0.417000        1.0080           0
   26501 WT2  654  TIP3 OH2  OT    -0.834000       15.9994           0
   26502 WT2  654  TIP3 H1   HT     0.417000        1.0080           0
   26503 WT2  654  TIP3 H2   HT     0.417000        1.0080           0
   26504 WT2  655  TIP3 OH2  OT    -0.834000       15.9994           0
   26505 WT2  655  TIP3 H1   HT     0.417000        1.0080           0
   26506 WT2  655  TIP3 H2   HT     0.417000        1.0080           0
   26507 WT2  657  TIP3 OH2  OT    -0.834000       15.9994           0
   26508 WT2  657  TIP3 H1   HT     0.417000        1.0080           0
   26509 WT2  657  TIP3 H2   HT     0.417000        1.0080           0
   26510 WT2  659  TIP3 OH2  OT    -0.834000       15.9994           0
   26511 WT2  659  TIP3 H1   HT     0.417000        1.0080           0
   26512 WT2  659  TIP3 H2   HT     0.417000        1.0080           0
   26513 WT2  660  TIP3 OH2  OT    -0.834000       15.9994           0
   26514 WT2  660  TIP3 H1   HT     0.417000        1.0080           0
   26515 WT2  660  TIP3 H2   HT     0.417000        1.0080           0
   26516 WT2  661  TIP3 OH2  OT    -0.834000       15.9994           0
   26517 WT2  661  TIP3 H1   HT     0.417000        1.0080           0
   26518 WT2  661  TIP3 H2   HT     0.417000        1.0080           0
   26519 WT2  662  TIP3 OH2  OT    -0.834000       15.9994           0
   26520 WT2  662  TIP3 H1   HT     0.417000        1.0080           0
   26521 WT2  662  TIP3 H2   HT     0.417000        1.0080           0
   26522 WT2  663  TIP3 OH2  OT    -0.834000       15.9994           0
   26523 WT2  663  TIP3 H1   HT     0.417000        1.0080           0
   26524 WT2  663  TIP3 H2   HT     0.417000        1.0080           0
   26525 WT2  664  TIP3 OH2  OT    -0.834000       15.9994           0
   26526 WT2  664  TIP3 H1   HT     0.417000        1.0080           0
   26527 WT2  664  TIP3 H2   HT     0.417000        1.0080           0
   26528 WT2  665  TIP3 OH2  OT    -0.834000       15.9994           0
   26529 WT2  665  TIP3 H1   HT     0.417000        1.0080           0
   26530 WT2  665  TIP3 H2   HT     0.417000        1.0080           0
   26531 WT2  666  TIP3 OH2  OT    -0.834000       15.9994           0
   26532 WT2  666  TIP3 H1   HT     0.417000        1.0080           0
   26533 WT2  666  TIP3 H2   HT     0.417000        1.0080           0
   26534 WT2  669  TIP3 OH2  OT    -0.834000       15.9994           0
   26535 WT2  669  TIP3 H1   HT     0.417000        1.0080           0
   26536 WT2  669  TIP3 H2   HT     0.417000        1.0080           0
   26537 WT2  670  TIP3 OH2  OT    -0.834000       15.9994           0
   26538 WT2  670  TIP3 H1   HT     0.417000        1.0080           0
   26539 WT2  670  TIP3 H2   HT     0.417000        1.0080           0
   26540 WT2  671  TIP3 OH2  OT    -0.834000       15.9994           0
   26541 WT2  671  TIP3 H1   HT     0.417000        1.0080           0
   26542 WT2  671  TIP3 H2   HT     0.417000        1.0080           0
   26543 WT2  672  TIP3 OH2  OT    -0.834000       15.9994           0
   26544 WT2  672  TIP3 H1   HT     0.417000        1.0080           0
   26545 WT2  672  TIP3 H2   HT     0.417000        1.0080           0
   26546 WT2  673  TIP3 OH2  OT    -0.834000       15.9994           0
   26547 WT2  673  TIP3 H1   HT     0.417000        1.0080           0
   26548 WT2  673  TIP3 H2   HT     0.417000        1.0080           0
   26549 WT2  674  TIP3 OH2  OT    -0.834000       15.9994           0
   26550 WT2  674  TIP3 H1   HT     0.417000        1.0080           0
   26551 WT2  674  TIP3 H2   HT     0.417000        1.0080           0
   26552 WT2  675  TIP3 OH2  OT    -0.834000       15.9994           0
   26553 WT2  675  TIP3 H1   HT     0.417000        1.0080           0
   26554 WT2  675  TIP3 H2   HT     0.417000        1.0080           0
   26555 WT2  676  TIP3 OH2  OT    -0.834000       15.9994           0
   26556 WT2  676  TIP3 H1   HT     0.417000        1.0080           0
   26557 WT2  676  TIP3 H2   HT     0.417000        1.0080           0
   26558 WT2  679  TIP3 OH2  OT    -0.834000       15.9994           0
   26559 WT2  679  TIP3 H1   HT     0.417000        1.0080           0
   26560 WT2  679  TIP3 H2   HT     0.417000        1.0080           0
   26561 WT2  680  TIP3 OH2  OT    -0.834000       15.9994           0
   26562 WT2  680  TIP3 H1   HT     0.417000        1.0080           0
   26563 WT2  680  TIP3 H2   HT     0.417000        1.0080           0
   26564 WT2  681  TIP3 OH2  OT    -0.834000       15.9994           0
   26565 WT2  681  TIP3 H1   HT     0.417000        1.0080           0
   26566 WT2  681  TIP3 H2   HT     0.417000        1.0080           0
   26567 WT2  682  TIP3 OH2  OT    -0.834000       15.9994           0
   26568 WT2  682  TIP3 H1   HT     0.417000        1.0080           0
   26569 WT2  682  TIP3 H2   HT     0.417000        1.0080           0
   26570 WT2  683  TIP3 OH2  OT    -0.834000       15.9994           0
   26571 WT2  683  TIP3 H1   HT     0.417000        1.0080           0
   26572 WT2  683  TIP3 H2   HT     0.417000        1.0080           0
   26573 WT2  684  TIP3 OH2  OT    -0.834000       15.9994           0
   26574 WT2  684  TIP3 H1   HT     0.417000        1.0080           0
   26575 WT2  684  TIP3 H2   HT     0.417000        1.0080           0
   26576 WT2  685  TIP3 OH2  OT    -0.834000       15.9994           0
   26577 WT2  685  TIP3 H1   HT     0.417000        1.0080           0
   26578 WT2  685  TIP3 H2   HT     0.417000        1.0080           0
   26579 WT2  686  TIP3 OH2  OT    -0.834000       15.9994           0
   26580 WT2  686  TIP3 H1   HT     0.417000        1.0080           0
   26581 WT2  686  TIP3 H2   HT     0.417000        1.0080           0
   26582 WT2  687  TIP3 OH2  OT    -0.834000       15.9994           0
   26583 WT2  687  TIP3 H1   HT     0.417000        1.0080           0
   26584 WT2  687  TIP3 H2   HT     0.417000        1.0080           0
   26585 WT2  689  TIP3 OH2  OT    -0.834000       15.9994           0
   26586 WT2  689  TIP3 H1   HT     0.417000        1.0080           0
   26587 WT2  689  TIP3 H2   HT     0.417000        1.0080           0
   26588 WT2  690  TIP3 OH2  OT    -0.834000       15.9994           0
   26589 WT2  690  TIP3 H1   HT     0.417000        1.0080           0
   26590 WT2  690  TIP3 H2   HT     0.417000        1.0080           0
   26591 WT2  692  TIP3 OH2  OT    -0.834000       15.9994           0
   26592 WT2  692  TIP3 H1   HT     0.417000        1.0080           0
   26593 WT2  692  TIP3 H2   HT     0.417000        1.0080           0
   26594 WT2  693  TIP3 OH2  OT    -0.834000       15.9994           0
   26595 WT2  693  TIP3 H1   HT     0.417000        1.0080           0
   26596 WT2  693  TIP3 H2   HT     0.417000        1.0080           0
   26597 WT2  695  TIP3 OH2  OT    -0.834000       15.9994           0
   26598 WT2  695  TIP3 H1   HT     0.417000        1.0080           0
   26599 WT2  695  TIP3 H2   HT     0.417000        1.0080           0
   26600 WT2  696  TIP3 OH2  OT    -0.834000       15.9994           0
   26601 WT2  696  TIP3 H1   HT     0.417000        1.0080           0
   26602 WT2  696  TIP3 H2   HT     0.417000        1.0080           0
   26603 WT2  697  TIP3 OH2  OT    -0.834000       15.9994           0
   26604 WT2  697  TIP3 H1   HT     0.417000        1.0080           0
   26605 WT2  697  TIP3 H2   HT     0.417000        1.0080           0
   26606 WT2  698  TIP3 OH2  OT    -0.834000       15.9994           0
   26607 WT2  698  TIP3 H1   HT     0.417000        1.0080           0
   26608 WT2  698  TIP3 H2   HT     0.417000        1.0080           0
   26609 WT2  699  TIP3 OH2  OT    -0.834000       15.9994           0
   26610 WT2  699  TIP3 H1   HT     0.417000        1.0080           0
   26611 WT2  699  TIP3 H2   HT     0.417000        1.0080           0
   26612 WT2  700  TIP3 OH2  OT    -0.834000       15.9994           0
   26613 WT2  700  TIP3 H1   HT     0.417000        1.0080           0
   26614 WT2  700  TIP3 H2   HT     0.417000        1.0080           0
   26615 WT2  702  TIP3 OH2  OT    -0.834000       15.9994           0
   26616 WT2  702  TIP3 H1   HT     0.417000        1.0080           0
   26617 WT2  702  TIP3 H2   HT     0.417000        1.0080           0
   26618 WT2  703  TIP3 OH2  OT    -0.834000       15.9994           0
   26619 WT2  703  TIP3 H1   HT     0.417000        1.0080           0
   26620 WT2  703  TIP3 H2   HT     0.417000        1.0080           0
   26621 WT2  704  TIP3 OH2  OT    -0.834000       15.9994           0
   26622 WT2  704  TIP3 H1   HT     0.417000        1.0080           0
   26623 WT2  704  TIP3 H2   HT     0.417000        1.0080           0
   26624 WT2  705  TIP3 OH2  OT    -0.834000       15.9994           0
   26625 WT2  705  TIP3 H1   HT     0.417000        1.0080           0
   26626 WT2  705  TIP3 H2   HT     0.417000        1.0080           0
   26627 WT2  706  TIP3 OH2  OT    -0.834000       15.9994           0
   26628 WT2  706  TIP3 H1   HT     0.417000        1.0080           0
   26629 WT2  706  TIP3 H2   HT     0.417000        1.0080           0
   26630 WT2  707  TIP3 OH2  OT    -0.834000       15.9994           0
   26631 WT2  707  TIP3 H1   HT     0.417000        1.0080           0
   26632 WT2  707  TIP3 H2   HT     0.417000        1.0080           0
   26633 WT2  709  TIP3 OH2  OT    -0.834000       15.9994           0
   26634 WT2  709  TIP3 H1   HT     0.417000        1.0080           0
   26635 WT2  709  TIP3 H2   HT     0.417000        1.0080           0
   26636 WT2  710  TIP3 OH2  OT    -0.834000       15.9994           0
   26637 WT2  710  TIP3 H1   HT     0.417000        1.0080           0
   26638 WT2  710  TIP3 H2   HT     0.417000        1.0080           0
   26639 WT2  711  TIP3 OH2  OT    -0.834000       15.9994           0
   26640 WT2  711  TIP3 H1   HT     0.417000        1.0080           0
   26641 WT2  711  TIP3 H2   HT     0.417000        1.0080           0
   26642 WT2  712  TIP3 OH2  OT    -0.834000       15.9994           0
   26643 WT2  712  TIP3 H1   HT     0.417000        1.0080           0
   26644 WT2  712  TIP3 H2   HT     0.417000        1.0080           0
   26645 WT2  713  TIP3 OH2  OT    -0.834000       15.9994           0
   26646 WT2  713  TIP3 H1   HT     0.417000        1.0080           0
   26647 WT2  713  TIP3 H2   HT     0.417000        1.0080           0
   26648 WT2  714  TIP3 OH2  OT    -0.834000       15.9994           0
   26649 WT2  714  TIP3 H1   HT     0.417000        1.0080           0
   26650 WT2  714  TIP3 H2   HT     0.417000        1.0080           0
   26651 WT2  715  TIP3 OH2  OT    -0.834000       15.9994           0
   26652 WT2  715  TIP3 H1   HT     0.417000        1.0080           0
   26653 WT2  715  TIP3 H2   HT     0.417000        1.0080           0
   26654 WT2  716  TIP3 OH2  OT    -0.834000       15.9994           0
   26655 WT2  716  TIP3 H1   HT     0.417000        1.0080           0
   26656 WT2  716  TIP3 H2   HT     0.417000        1.0080           0
   26657 WT2  717  TIP3 OH2  OT    -0.834000       15.9994           0
   26658 WT2  717  TIP3 H1   HT     0.417000        1.0080           0
   26659 WT2  717  TIP3 H2   HT     0.417000        1.0080           0
   26660 WT2  718  TIP3 OH2  OT    -0.834000       15.9994           0
   26661 WT2  718  TIP3 H1   HT     0.417000        1.0080           0
   26662 WT2  718  TIP3 H2   HT     0.417000        1.0080           0
   26663 WT2  719  TIP3 OH2  OT    -0.834000       15.9994           0
   26664 WT2  719  TIP3 H1   HT     0.417000        1.0080           0
   26665 WT2  719  TIP3 H2   HT     0.417000        1.0080           0
   26666 WT2  724  TIP3 OH2  OT    -0.834000       15.9994           0
   26667 WT2  724  TIP3 H1   HT     0.417000        1.0080           0
   26668 WT2  724  TIP3 H2   HT     0.417000        1.0080           0
   26669 WT2  725  TIP3 OH2  OT    -0.834000       15.9994           0
   26670 WT2  725  TIP3 H1   HT     0.417000        1.0080           0
   26671 WT2  725  TIP3 H2   HT     0.417000        1.0080           0
   26672 WT2  726  TIP3 OH2  OT    -0.834000       15.9994           0
   26673 WT2  726  TIP3 H1   HT     0.417000        1.0080           0
   26674 WT2  726  TIP3 H2   HT     0.417000        1.0080           0
   26675 WT2  727  TIP3 OH2  OT    -0.834000       15.9994           0
   26676 WT2  727  TIP3 H1   HT     0.417000        1.0080           0
   26677 WT2  727  TIP3 H2   HT     0.417000        1.0080           0
   26678 WT2  728  TIP3 OH2  OT    -0.834000       15.9994           0
   26679 WT2  728  TIP3 H1   HT     0.417000        1.0080           0
   26680 WT2  728  TIP3 H2   HT     0.417000        1.0080           0
   26681 WT2  729  TIP3 OH2  OT    -0.834000       15.9994           0
   26682 WT2  729  TIP3 H1   HT     0.417000        1.0080           0
   26683 WT2  729  TIP3 H2   HT     0.417000        1.0080           0
   26684 WT2  730  TIP3 OH2  OT    -0.834000       15.9994           0
   26685 WT2  730  TIP3 H1   HT     0.417000        1.0080           0
   26686 WT2  730  TIP3 H2   HT     0.417000        1.0080           0
   26687 WT2  731  TIP3 OH2  OT    -0.834000       15.9994           0
   26688 WT2  731  TIP3 H1   HT     0.417000        1.0080           0
   26689 WT2  731  TIP3 H2   HT     0.417000        1.0080           0
   26690 WT2  732  TIP3 OH2  OT    -0.834000       15.9994           0
   26691 WT2  732  TIP3 H1   HT     0.417000        1.0080           0
   26692 WT2  732  TIP3 H2   HT     0.417000        1.0080           0
   26693 WT2  733  TIP3 OH2  OT    -0.834000       15.9994           0
   26694 WT2  733  TIP3 H1   HT     0.417000        1.0080           0
   26695 WT2  733  TIP3 H2   HT     0.417000        1.0080           0
   26696 WT2  734  TIP3 OH2  OT    -0.834000       15.9994           0
   26697 WT2  734  TIP3 H1   HT     0.417000        1.0080           0
   26698 WT2  734  TIP3 H2   HT     0.417000        1.0080           0
   26699 WT2  735  TIP3 OH2  OT    -0.834000       15.9994           0
   26700 WT2  735  TIP3 H1   HT     0.417000        1.0080           0
   26701 WT2  735  TIP3 H2   HT     0.417000        1.0080           0
   26702 WT2  736  TIP3 OH2  OT    -0.834000       15.9994           0
   26703 WT2  736  TIP3 H1   HT     0.417000        1.0080           0
   26704 WT2  736  TIP3 H2   HT     0.417000        1.0080           0
   26705 WT2  737  TIP3 OH2  OT    -0.834000       15.9994           0
   26706 WT2  737  TIP3 H1   HT     0.417000        1.0080           0
   26707 WT2  737  TIP3 H2   HT     0.417000        1.0080           0
   26708 WT2  738  TIP3 OH2  OT    -0.834000       15.9994           0
   26709 WT2  738  TIP3 H1   HT     0.417000        1.0080           0
   26710 WT2  738  TIP3 H2   HT     0.417000        1.0080           0
   26711 WT2  740  TIP3 OH2  OT    -0.834000       15.9994           0
   26712 WT2  740  TIP3 H1   HT     0.417000        1.0080           0
   26713 WT2  740  TIP3 H2   HT     0.417000        1.0080           0
   26714 WT2  741  TIP3 OH2  OT    -0.834000       15.9994           0
   26715 WT2  741  TIP3 H1   HT     0.417000        1.0080           0
   26716 WT2  741  TIP3 H2   HT     0.417000        1.0080           0
   26717 WT2  742  TIP3 OH2  OT    -0.834000       15.9994           0
   26718 WT2  742  TIP3 H1   HT     0.417000        1.0080           0
   26719 WT2  742  TIP3 H2   HT     0.417000        1.0080           0
   26720 WT2  743  TIP3 OH2  OT    -0.834000       15.9994           0
   26721 WT2  743  TIP3 H1   HT     0.417000        1.0080           0
   26722 WT2  743  TIP3 H2   HT     0.417000        1.0080           0
   26723 WT2  744  TIP3 OH2  OT    -0.834000       15.9994           0
   26724 WT2  744  TIP3 H1   HT     0.417000        1.0080           0
   26725 WT2  744  TIP3 H2   HT     0.417000        1.0080           0
   26726 WT2  745  TIP3 OH2  OT    -0.834000       15.9994           0
   26727 WT2  745  TIP3 H1   HT     0.417000        1.0080           0
   26728 WT2  745  TIP3 H2   HT     0.417000        1.0080           0
   26729 WT2  746  TIP3 OH2  OT    -0.834000       15.9994           0
   26730 WT2  746  TIP3 H1   HT     0.417000        1.0080           0
   26731 WT2  746  TIP3 H2   HT     0.417000        1.0080           0
   26732 WT2  748  TIP3 OH2  OT    -0.834000       15.9994           0
   26733 WT2  748  TIP3 H1   HT     0.417000        1.0080           0
   26734 WT2  748  TIP3 H2   HT     0.417000        1.0080           0
   26735 WT2  749  TIP3 OH2  OT    -0.834000       15.9994           0
   26736 WT2  749  TIP3 H1   HT     0.417000        1.0080           0
   26737 WT2  749  TIP3 H2   HT     0.417000        1.0080           0
   26738 WT2  751  TIP3 OH2  OT    -0.834000       15.9994           0
   26739 WT2  751  TIP3 H1   HT     0.417000        1.0080           0
   26740 WT2  751  TIP3 H2   HT     0.417000        1.0080           0
   26741 WT2  752  TIP3 OH2  OT    -0.834000       15.9994           0
   26742 WT2  752  TIP3 H1   HT     0.417000        1.0080           0
   26743 WT2  752  TIP3 H2   HT     0.417000        1.0080           0
   26744 WT2  753  TIP3 OH2  OT    -0.834000       15.9994           0
   26745 WT2  753  TIP3 H1   HT     0.417000        1.0080           0
   26746 WT2  753  TIP3 H2   HT     0.417000        1.0080           0
   26747 WT2  754  TIP3 OH2  OT    -0.834000       15.9994           0
   26748 WT2  754  TIP3 H1   HT     0.417000        1.0080           0
   26749 WT2  754  TIP3 H2   HT     0.417000        1.0080           0
   26750 WT2  755  TIP3 OH2  OT    -0.834000       15.9994           0
   26751 WT2  755  TIP3 H1   HT     0.417000        1.0080           0
   26752 WT2  755  TIP3 H2   HT     0.417000        1.0080           0
   26753 WT2  756  TIP3 OH2  OT    -0.834000       15.9994           0
   26754 WT2  756  TIP3 H1   HT     0.417000        1.0080           0
   26755 WT2  756  TIP3 H2   HT     0.417000        1.0080           0
   26756 WT2  757  TIP3 OH2  OT    -0.834000       15.9994           0
   26757 WT2  757  TIP3 H1   HT     0.417000        1.0080           0
   26758 WT2  757  TIP3 H2   HT     0.417000        1.0080           0
   26759 WT2  758  TIP3 OH2  OT    -0.834000       15.9994           0
   26760 WT2  758  TIP3 H1   HT     0.417000        1.0080           0
   26761 WT2  758  TIP3 H2   HT     0.417000        1.0080           0
   26762 WT2  759  TIP3 OH2  OT    -0.834000       15.9994           0
   26763 WT2  759  TIP3 H1   HT     0.417000        1.0080           0
   26764 WT2  759  TIP3 H2   HT     0.417000        1.0080           0
   26765 WT2  760  TIP3 OH2  OT    -0.834000       15.9994           0
   26766 WT2  760  TIP3 H1   HT     0.417000        1.0080           0
   26767 WT2  760  TIP3 H2   HT     0.417000        1.0080           0
   26768 WT2  761  TIP3 OH2  OT    -0.834000       15.9994           0
   26769 WT2  761  TIP3 H1   HT     0.417000        1.0080           0
   26770 WT2  761  TIP3 H2   HT     0.417000        1.0080           0
   26771 WT2  762  TIP3 OH2  OT    -0.834000       15.9994           0
   26772 WT2  762  TIP3 H1   HT     0.417000        1.0080           0
   26773 WT2  762  TIP3 H2   HT     0.417000        1.0080           0
   26774 WT2  763  TIP3 OH2  OT    -0.834000       15.9994           0
   26775 WT2  763  TIP3 H1   HT     0.417000        1.0080           0
   26776 WT2  763  TIP3 H2   HT     0.417000        1.0080           0
   26777 WT2  764  TIP3 OH2  OT    -0.834000       15.9994           0
   26778 WT2  764  TIP3 H1   HT     0.417000        1.0080           0
   26779 WT2  764  TIP3 H2   HT     0.417000        1.0080           0
   26780 WT2  765  TIP3 OH2  OT    -0.834000       15.9994           0
   26781 WT2  765  TIP3 H1   HT     0.417000        1.0080           0
   26782 WT2  765  TIP3 H2   HT     0.417000        1.0080           0
   26783 WT2  766  TIP3 OH2  OT    -0.834000       15.9994           0
   26784 WT2  766  TIP3 H1   HT     0.417000        1.0080           0
   26785 WT2  766  TIP3 H2   HT     0.417000        1.0080           0
   26786 WT2  767  TIP3 OH2  OT    -0.834000       15.9994           0
   26787 WT2  767  TIP3 H1   HT     0.417000        1.0080           0
   26788 WT2  767  TIP3 H2   HT     0.417000        1.0080           0
   26789 WT2  768  TIP3 OH2  OT    -0.834000       15.9994           0
   26790 WT2  768  TIP3 H1   HT     0.417000        1.0080           0
   26791 WT2  768  TIP3 H2   HT     0.417000        1.0080           0
   26792 WT2  769  TIP3 OH2  OT    -0.834000       15.9994           0
   26793 WT2  769  TIP3 H1   HT     0.417000        1.0080           0
   26794 WT2  769  TIP3 H2   HT     0.417000        1.0080           0
   26795 WT2  770  TIP3 OH2  OT    -0.834000       15.9994           0
   26796 WT2  770  TIP3 H1   HT     0.417000        1.0080           0
   26797 WT2  770  TIP3 H2   HT     0.417000        1.0080           0
   26798 WT2  771  TIP3 OH2  OT    -0.834000       15.9994           0
   26799 WT2  771  TIP3 H1   HT     0.417000        1.0080           0
   26800 WT2  771  TIP3 H2   HT     0.417000        1.0080           0
   26801 WT2  772  TIP3 OH2  OT    -0.834000       15.9994           0
   26802 WT2  772  TIP3 H1   HT     0.417000        1.0080           0
   26803 WT2  772  TIP3 H2   HT     0.417000        1.0080           0
   26804 WT2  774  TIP3 OH2  OT    -0.834000       15.9994           0
   26805 WT2  774  TIP3 H1   HT     0.417000        1.0080           0
   26806 WT2  774  TIP3 H2   HT     0.417000        1.0080           0
   26807 WT2  775  TIP3 OH2  OT    -0.834000       15.9994           0
   26808 WT2  775  TIP3 H1   HT     0.417000        1.0080           0
   26809 WT2  775  TIP3 H2   HT     0.417000        1.0080           0
   26810 WT2  776  TIP3 OH2  OT    -0.834000       15.9994           0
   26811 WT2  776  TIP3 H1   HT     0.417000        1.0080           0
   26812 WT2  776  TIP3 H2   HT     0.417000        1.0080           0
   26813 WT2  777  TIP3 OH2  OT    -0.834000       15.9994           0
   26814 WT2  777  TIP3 H1   HT     0.417000        1.0080           0
   26815 WT2  777  TIP3 H2   HT     0.417000        1.0080           0
   26816 WT2  778  TIP3 OH2  OT    -0.834000       15.9994           0
   26817 WT2  778  TIP3 H1   HT     0.417000        1.0080           0
   26818 WT2  778  TIP3 H2   HT     0.417000        1.0080           0
   26819 WT2  780  TIP3 OH2  OT    -0.834000       15.9994           0
   26820 WT2  780  TIP3 H1   HT     0.417000        1.0080           0
   26821 WT2  780  TIP3 H2   HT     0.417000        1.0080           0
   26822 WT2  781  TIP3 OH2  OT    -0.834000       15.9994           0
   26823 WT2  781  TIP3 H1   HT     0.417000        1.0080           0
   26824 WT2  781  TIP3 H2   HT     0.417000        1.0080           0
   26825 WT2  782  TIP3 OH2  OT    -0.834000       15.9994           0
   26826 WT2  782  TIP3 H1   HT     0.417000        1.0080           0
   26827 WT2  782  TIP3 H2   HT     0.417000        1.0080           0
   26828 WT2  783  TIP3 OH2  OT    -0.834000       15.9994           0
   26829 WT2  783  TIP3 H1   HT     0.417000        1.0080           0
   26830 WT2  783  TIP3 H2   HT     0.417000        1.0080           0
   26831 WT2  784  TIP3 OH2  OT    -0.834000       15.9994           0
   26832 WT2  784  TIP3 H1   HT     0.417000        1.0080           0
   26833 WT2  784  TIP3 H2   HT     0.417000        1.0080           0
   26834 WT2  785  TIP3 OH2  OT    -0.834000       15.9994           0
   26835 WT2  785  TIP3 H1   HT     0.417000        1.0080           0
   26836 WT2  785  TIP3 H2   HT     0.417000        1.0080           0
   26837 WT2  786  TIP3 OH2  OT    -0.834000       15.9994           0
   26838 WT2  786  TIP3 H1   HT     0.417000        1.0080           0
   26839 WT2  786  TIP3 H2   HT     0.417000        1.0080           0
   26840 WT2  787  TIP3 OH2  OT    -0.834000       15.9994           0
   26841 WT2  787  TIP3 H1   HT     0.417000        1.0080           0
   26842 WT2  787  TIP3 H2   HT     0.417000        1.0080           0
   26843 WT2  789  TIP3 OH2  OT    -0.834000       15.9994           0
   26844 WT2  789  TIP3 H1   HT     0.417000        1.0080           0
   26845 WT2  789  TIP3 H2   HT     0.417000        1.0080           0
   26846 WT2  790  TIP3 OH2  OT    -0.834000       15.9994           0
   26847 WT2  790  TIP3 H1   HT     0.417000        1.0080           0
   26848 WT2  790  TIP3 H2   HT     0.417000        1.0080           0
   26849 WT2  791  TIP3 OH2  OT    -0.834000       15.9994           0
   26850 WT2  791  TIP3 H1   HT     0.417000        1.0080           0
   26851 WT2  791  TIP3 H2   HT     0.417000        1.0080           0
   26852 WT2  792  TIP3 OH2  OT    -0.834000       15.9994           0
   26853 WT2  792  TIP3 H1   HT     0.417000        1.0080           0
   26854 WT2  792  TIP3 H2   HT     0.417000        1.0080           0
   26855 WT2  793  TIP3 OH2  OT    -0.834000       15.9994           0
   26856 WT2  793  TIP3 H1   HT     0.417000        1.0080           0
   26857 WT2  793  TIP3 H2   HT     0.417000        1.0080           0
   26858 WT2  794  TIP3 OH2  OT    -0.834000       15.9994           0
   26859 WT2  794  TIP3 H1   HT     0.417000        1.0080           0
   26860 WT2  794  TIP3 H2   HT     0.417000        1.0080           0
   26861 WT2  795  TIP3 OH2  OT    -0.834000       15.9994           0
   26862 WT2  795  TIP3 H1   HT     0.417000        1.0080           0
   26863 WT2  795  TIP3 H2   HT     0.417000        1.0080           0
   26864 WT2  796  TIP3 OH2  OT    -0.834000       15.9994           0
   26865 WT2  796  TIP3 H1   HT     0.417000        1.0080           0
   26866 WT2  796  TIP3 H2   HT     0.417000        1.0080           0
   26867 WT2  797  TIP3 OH2  OT    -0.834000       15.9994           0
   26868 WT2  797  TIP3 H1   HT     0.417000        1.0080           0
   26869 WT2  797  TIP3 H2   HT     0.417000        1.0080           0
   26870 WT2  799  TIP3 OH2  OT    -0.834000       15.9994           0
   26871 WT2  799  TIP3 H1   HT     0.417000        1.0080           0
   26872 WT2  799  TIP3 H2   HT     0.417000        1.0080           0
   26873 WT2  800  TIP3 OH2  OT    -0.834000       15.9994           0
   26874 WT2  800  TIP3 H1   HT     0.417000        1.0080           0
   26875 WT2  800  TIP3 H2   HT     0.417000        1.0080           0
   26876 WT2  802  TIP3 OH2  OT    -0.834000       15.9994           0
   26877 WT2  802  TIP3 H1   HT     0.417000        1.0080           0
   26878 WT2  802  TIP3 H2   HT     0.417000        1.0080           0
   26879 WT2  803  TIP3 OH2  OT    -0.834000       15.9994           0
   26880 WT2  803  TIP3 H1   HT     0.417000        1.0080           0
   26881 WT2  803  TIP3 H2   HT     0.417000        1.0080           0
   26882 WT2  804  TIP3 OH2  OT    -0.834000       15.9994           0
   26883 WT2  804  TIP3 H1   HT     0.417000        1.0080           0
   26884 WT2  804  TIP3 H2   HT     0.417000        1.0080           0
   26885 WT2  805  TIP3 OH2  OT    -0.834000       15.9994           0
   26886 WT2  805  TIP3 H1   HT     0.417000        1.0080           0
   26887 WT2  805  TIP3 H2   HT     0.417000        1.0080           0
   26888 WT2  807  TIP3 OH2  OT    -0.834000       15.9994           0
   26889 WT2  807  TIP3 H1   HT     0.417000        1.0080           0
   26890 WT2  807  TIP3 H2   HT     0.417000        1.0080           0
   26891 WT2  808  TIP3 OH2  OT    -0.834000       15.9994           0
   26892 WT2  808  TIP3 H1   HT     0.417000        1.0080           0
   26893 WT2  808  TIP3 H2   HT     0.417000        1.0080           0
   26894 WT2  809  TIP3 OH2  OT    -0.834000       15.9994           0
   26895 WT2  809  TIP3 H1   HT     0.417000        1.0080           0
   26896 WT2  809  TIP3 H2   HT     0.417000        1.0080           0
   26897 WT2  810  TIP3 OH2  OT    -0.834000       15.9994           0
   26898 WT2  810  TIP3 H1   HT     0.417000        1.0080           0
   26899 WT2  810  TIP3 H2   HT     0.417000        1.0080           0
   26900 WT2  811  TIP3 OH2  OT    -0.834000       15.9994           0
   26901 WT2  811  TIP3 H1   HT     0.417000        1.0080           0
   26902 WT2  811  TIP3 H2   HT     0.417000        1.0080           0
   26903 WT2  812  TIP3 OH2  OT    -0.834000       15.9994           0
   26904 WT2  812  TIP3 H1   HT     0.417000        1.0080           0
   26905 WT2  812  TIP3 H2   HT     0.417000        1.0080           0
   26906 WT2  813  TIP3 OH2  OT    -0.834000       15.9994           0
   26907 WT2  813  TIP3 H1   HT     0.417000        1.0080           0
   26908 WT2  813  TIP3 H2   HT     0.417000        1.0080           0
   26909 WT2  814  TIP3 OH2  OT    -0.834000       15.9994           0
   26910 WT2  814  TIP3 H1   HT     0.417000        1.0080           0
   26911 WT2  814  TIP3 H2   HT     0.417000        1.0080           0
   26912 WT2  815  TIP3 OH2  OT    -0.834000       15.9994           0
   26913 WT2  815  TIP3 H1   HT     0.417000        1.0080           0
   26914 WT2  815  TIP3 H2   HT     0.417000        1.0080           0
   26915 WT2  816  TIP3 OH2  OT    -0.834000       15.9994           0
   26916 WT2  816  TIP3 H1   HT     0.417000        1.0080           0
   26917 WT2  816  TIP3 H2   HT     0.417000        1.0080           0
   26918 WT2  817  TIP3 OH2  OT    -0.834000       15.9994           0
   26919 WT2  817  TIP3 H1   HT     0.417000        1.0080           0
   26920 WT2  817  TIP3 H2   HT     0.417000        1.0080           0
   26921 WT2  818  TIP3 OH2  OT    -0.834000       15.9994           0
   26922 WT2  818  TIP3 H1   HT     0.417000        1.0080           0
   26923 WT2  818  TIP3 H2   HT     0.417000        1.0080           0
   26924 WT2  819  TIP3 OH2  OT    -0.834000       15.9994           0
   26925 WT2  819  TIP3 H1   HT     0.417000        1.0080           0
   26926 WT2  819  TIP3 H2   HT     0.417000        1.0080           0
   26927 WT2  820  TIP3 OH2  OT    -0.834000       15.9994           0
   26928 WT2  820  TIP3 H1   HT     0.417000        1.0080           0
   26929 WT2  820  TIP3 H2   HT     0.417000        1.0080           0
   26930 WT2  821  TIP3 OH2  OT    -0.834000       15.9994           0
   26931 WT2  821  TIP3 H1   HT     0.417000        1.0080           0
   26932 WT2  821  TIP3 H2   HT     0.417000        1.0080           0
   26933 WT2  822  TIP3 OH2  OT    -0.834000       15.9994           0
   26934 WT2  822  TIP3 H1   HT     0.417000        1.0080           0
   26935 WT2  822  TIP3 H2   HT     0.417000        1.0080           0
   26936 WT2  823  TIP3 OH2  OT    -0.834000       15.9994           0
   26937 WT2  823  TIP3 H1   HT     0.417000        1.0080           0
   26938 WT2  823  TIP3 H2   HT     0.417000        1.0080           0
   26939 WT2  824  TIP3 OH2  OT    -0.834000       15.9994           0
   26940 WT2  824  TIP3 H1   HT     0.417000        1.0080           0
   26941 WT2  824  TIP3 H2   HT     0.417000        1.0080           0
   26942 WT2  825  TIP3 OH2  OT    -0.834000       15.9994           0
   26943 WT2  825  TIP3 H1   HT     0.417000        1.0080           0
   26944 WT2  825  TIP3 H2   HT     0.417000        1.0080           0
   26945 WT2  826  TIP3 OH2  OT    -0.834000       15.9994           0
   26946 WT2  826  TIP3 H1   HT     0.417000        1.0080           0
   26947 WT2  826  TIP3 H2   HT     0.417000        1.0080           0
   26948 WT2  827  TIP3 OH2  OT    -0.834000       15.9994           0
   26949 WT2  827  TIP3 H1   HT     0.417000        1.0080           0
   26950 WT2  827  TIP3 H2   HT     0.417000        1.0080           0
   26951 WT2  829  TIP3 OH2  OT    -0.834000       15.9994           0
   26952 WT2  829  TIP3 H1   HT     0.417000        1.0080           0
   26953 WT2  829  TIP3 H2   HT     0.417000        1.0080           0
   26954 WT2  831  TIP3 OH2  OT    -0.834000       15.9994           0
   26955 WT2  831  TIP3 H1   HT     0.417000        1.0080           0
   26956 WT2  831  TIP3 H2   HT     0.417000        1.0080           0
   26957 WT2  832  TIP3 OH2  OT    -0.834000       15.9994           0
   26958 WT2  832  TIP3 H1   HT     0.417000        1.0080           0
   26959 WT2  832  TIP3 H2   HT     0.417000        1.0080           0
   26960 WT2  833  TIP3 OH2  OT    -0.834000       15.9994           0
   26961 WT2  833  TIP3 H1   HT     0.417000        1.0080           0
   26962 WT2  833  TIP3 H2   HT     0.417000        1.0080           0
   26963 WT2  835  TIP3 OH2  OT    -0.834000       15.9994           0
   26964 WT2  835  TIP3 H1   HT     0.417000        1.0080           0
   26965 WT2  835  TIP3 H2   HT     0.417000        1.0080           0
   26966 WT2  836  TIP3 OH2  OT    -0.834000       15.9994           0
   26967 WT2  836  TIP3 H1   HT     0.417000        1.0080           0
   26968 WT2  836  TIP3 H2   HT     0.417000        1.0080           0
   26969 WT2  837  TIP3 OH2  OT    -0.834000       15.9994           0
   26970 WT2  837  TIP3 H1   HT     0.417000        1.0080           0
   26971 WT2  837  TIP3 H2   HT     0.417000        1.0080           0
   26972 WT2  838  TIP3 OH2  OT    -0.834000       15.9994           0
   26973 WT2  838  TIP3 H1   HT     0.417000        1.0080           0
   26974 WT2  838  TIP3 H2   HT     0.417000        1.0080           0
   26975 WT2  840  TIP3 OH2  OT    -0.834000       15.9994           0
   26976 WT2  840  TIP3 H1   HT     0.417000        1.0080           0
   26977 WT2  840  TIP3 H2   HT     0.417000        1.0080           0
   26978 WT2  841  TIP3 OH2  OT    -0.834000       15.9994           0
   26979 WT2  841  TIP3 H1   HT     0.417000        1.0080           0
   26980 WT2  841  TIP3 H2   HT     0.417000        1.0080           0
   26981 WT2  842  TIP3 OH2  OT    -0.834000       15.9994           0
   26982 WT2  842  TIP3 H1   HT     0.417000        1.0080           0
   26983 WT2  842  TIP3 H2   HT     0.417000        1.0080           0
   26984 WT2  843  TIP3 OH2  OT    -0.834000       15.9994           0
   26985 WT2  843  TIP3 H1   HT     0.417000        1.0080           0
   26986 WT2  843  TIP3 H2   HT     0.417000        1.0080           0
   26987 WT2  844  TIP3 OH2  OT    -0.834000       15.9994           0
   26988 WT2  844  TIP3 H1   HT     0.417000        1.0080           0
   26989 WT2  844  TIP3 H2   HT     0.417000        1.0080           0
   26990 WT2  845  TIP3 OH2  OT    -0.834000       15.9994           0
   26991 WT2  845  TIP3 H1   HT     0.417000        1.0080           0
   26992 WT2  845  TIP3 H2   HT     0.417000        1.0080           0
   26993 WT2  846  TIP3 OH2  OT    -0.834000       15.9994           0
   26994 WT2  846  TIP3 H1   HT     0.417000        1.0080           0
   26995 WT2  846  TIP3 H2   HT     0.417000        1.0080           0
   26996 WT2  847  TIP3 OH2  OT    -0.834000       15.9994           0
   26997 WT2  847  TIP3 H1   HT     0.417000        1.0080           0
   26998 WT2  847  TIP3 H2   HT     0.417000        1.0080           0
   26999 WT2  848  TIP3 OH2  OT    -0.834000       15.9994           0
   27000 WT2  848  TIP3 H1   HT     0.417000        1.0080           0
   27001 WT2  848  TIP3 H2   HT     0.417000        1.0080           0
   27002 WT2  849  TIP3 OH2  OT    -0.834000       15.9994           0
   27003 WT2  849  TIP3 H1   HT     0.417000        1.0080           0
   27004 WT2  849  TIP3 H2   HT     0.417000        1.0080           0
   27005 WT2  850  TIP3 OH2  OT    -0.834000       15.9994           0
   27006 WT2  850  TIP3 H1   HT     0.417000        1.0080           0
   27007 WT2  850  TIP3 H2   HT     0.417000        1.0080           0
   27008 WT2  851  TIP3 OH2  OT    -0.834000       15.9994           0
   27009 WT2  851  TIP3 H1   HT     0.417000        1.0080           0
   27010 WT2  851  TIP3 H2   HT     0.417000        1.0080           0
   27011 WT2  852  TIP3 OH2  OT    -0.834000       15.9994           0
   27012 WT2  852  TIP3 H1   HT     0.417000        1.0080           0
   27013 WT2  852  TIP3 H2   HT     0.417000        1.0080           0
   27014 WT2  853  TIP3 OH2  OT    -0.834000       15.9994           0
   27015 WT2  853  TIP3 H1   HT     0.417000        1.0080           0
   27016 WT2  853  TIP3 H2   HT     0.417000        1.0080           0
   27017 WT2  855  TIP3 OH2  OT    -0.834000       15.9994           0
   27018 WT2  855  TIP3 H1   HT     0.417000        1.0080           0
   27019 WT2  855  TIP3 H2   HT     0.417000        1.0080           0
   27020 WT2  856  TIP3 OH2  OT    -0.834000       15.9994           0
   27021 WT2  856  TIP3 H1   HT     0.417000        1.0080           0
   27022 WT2  856  TIP3 H2   HT     0.417000        1.0080           0
   27023 WT2  857  TIP3 OH2  OT    -0.834000       15.9994           0
   27024 WT2  857  TIP3 H1   HT     0.417000        1.0080           0
   27025 WT2  857  TIP3 H2   HT     0.417000        1.0080           0
   27026 WT2  858  TIP3 OH2  OT    -0.834000       15.9994           0
   27027 WT2  858  TIP3 H1   HT     0.417000        1.0080           0
   27028 WT2  858  TIP3 H2   HT     0.417000        1.0080           0
   27029 WT2  859  TIP3 OH2  OT    -0.834000       15.9994           0
   27030 WT2  859  TIP3 H1   HT     0.417000        1.0080           0
   27031 WT2  859  TIP3 H2   HT     0.417000        1.0080           0
   27032 WT2  860  TIP3 OH2  OT    -0.834000       15.9994           0
   27033 WT2  860  TIP3 H1   HT     0.417000        1.0080           0
   27034 WT2  860  TIP3 H2   HT     0.417000        1.0080           0
   27035 WT2  861  TIP3 OH2  OT    -0.834000       15.9994           0
   27036 WT2  861  TIP3 H1   HT     0.417000        1.0080           0
   27037 WT2  861  TIP3 H2   HT     0.417000        1.0080           0
   27038 WT2  862  TIP3 OH2  OT    -0.834000       15.9994           0
   27039 WT2  862  TIP3 H1   HT     0.417000        1.0080           0
   27040 WT2  862  TIP3 H2   HT     0.417000        1.0080           0
   27041 WT2  863  TIP3 OH2  OT    -0.834000       15.9994           0
   27042 WT2  863  TIP3 H1   HT     0.417000        1.0080           0
   27043 WT2  863  TIP3 H2   HT     0.417000        1.0080           0
   27044 WT2  864  TIP3 OH2  OT    -0.834000       15.9994           0
   27045 WT2  864  TIP3 H1   HT     0.417000        1.0080           0
   27046 WT2  864  TIP3 H2   HT     0.417000        1.0080           0
   27047 WT2  865  TIP3 OH2  OT    -0.834000       15.9994           0
   27048 WT2  865  TIP3 H1   HT     0.417000        1.0080           0
   27049 WT2  865  TIP3 H2   HT     0.417000        1.0080           0
   27050 WT2  866  TIP3 OH2  OT    -0.834000       15.9994           0
   27051 WT2  866  TIP3 H1   HT     0.417000        1.0080           0
   27052 WT2  866  TIP3 H2   HT     0.417000        1.0080           0
   27053 WT2  867  TIP3 OH2  OT    -0.834000       15.9994           0
   27054 WT2  867  TIP3 H1   HT     0.417000        1.0080           0
   27055 WT2  867  TIP3 H2   HT     0.417000        1.0080           0
   27056 WT2  869  TIP3 OH2  OT    -0.834000       15.9994           0
   27057 WT2  869  TIP3 H1   HT     0.417000        1.0080           0
   27058 WT2  869  TIP3 H2   HT     0.417000        1.0080           0
   27059 WT2  871  TIP3 OH2  OT    -0.834000       15.9994           0
   27060 WT2  871  TIP3 H1   HT     0.417000        1.0080           0
   27061 WT2  871  TIP3 H2   HT     0.417000        1.0080           0
   27062 WT2  873  TIP3 OH2  OT    -0.834000       15.9994           0
   27063 WT2  873  TIP3 H1   HT     0.417000        1.0080           0
   27064 WT2  873  TIP3 H2   HT     0.417000        1.0080           0
   27065 WT2  874  TIP3 OH2  OT    -0.834000       15.9994           0
   27066 WT2  874  TIP3 H1   HT     0.417000        1.0080           0
   27067 WT2  874  TIP3 H2   HT     0.417000        1.0080           0
   27068 WT2  875  TIP3 OH2  OT    -0.834000       15.9994           0
   27069 WT2  875  TIP3 H1   HT     0.417000        1.0080           0
   27070 WT2  875  TIP3 H2   HT     0.417000        1.0080           0
   27071 WT2  876  TIP3 OH2  OT    -0.834000       15.9994           0
   27072 WT2  876  TIP3 H1   HT     0.417000        1.0080           0
   27073 WT2  876  TIP3 H2   HT     0.417000        1.0080           0
   27074 WT2  877  TIP3 OH2  OT    -0.834000       15.9994           0
   27075 WT2  877  TIP3 H1   HT     0.417000        1.0080           0
   27076 WT2  877  TIP3 H2   HT     0.417000        1.0080           0
   27077 WT2  878  TIP3 OH2  OT    -0.834000       15.9994           0
   27078 WT2  878  TIP3 H1   HT     0.417000        1.0080           0
   27079 WT2  878  TIP3 H2   HT     0.417000        1.0080           0
   27080 WT2  880  TIP3 OH2  OT    -0.834000       15.9994           0
   27081 WT2  880  TIP3 H1   HT     0.417000        1.0080           0
   27082 WT2  880  TIP3 H2   HT     0.417000        1.0080           0
   27083 WT2  881  TIP3 OH2  OT    -0.834000       15.9994           0
   27084 WT2  881  TIP3 H1   HT     0.417000        1.0080           0
   27085 WT2  881  TIP3 H2   HT     0.417000        1.0080           0
   27086 WT2  883  TIP3 OH2  OT    -0.834000       15.9994           0
   27087 WT2  883  TIP3 H1   HT     0.417000        1.0080           0
   27088 WT2  883  TIP3 H2   HT     0.417000        1.0080           0
   27089 WT2  885  TIP3 OH2  OT    -0.834000       15.9994           0
   27090 WT2  885  TIP3 H1   HT     0.417000        1.0080           0
   27091 WT2  885  TIP3 H2   HT     0.417000        1.0080           0
   27092 WT2  886  TIP3 OH2  OT    -0.834000       15.9994           0
   27093 WT2  886  TIP3 H1   HT     0.417000        1.0080           0
   27094 WT2  886  TIP3 H2   HT     0.417000        1.0080           0
   27095 WT2  887  TIP3 OH2  OT    -0.834000       15.9994           0
   27096 WT2  887  TIP3 H1   HT     0.417000        1.0080           0
   27097 WT2  887  TIP3 H2   HT     0.417000        1.0080           0
   27098 WT2  888  TIP3 OH2  OT    -0.834000       15.9994           0
   27099 WT2  888  TIP3 H1   HT     0.417000        1.0080           0
   27100 WT2  888  TIP3 H2   HT     0.417000        1.0080           0
   27101 WT2  889  TIP3 OH2  OT    -0.834000       15.9994           0
   27102 WT2  889  TIP3 H1   HT     0.417000        1.0080           0
   27103 WT2  889  TIP3 H2   HT     0.417000        1.0080           0
   27104 WT2  890  TIP3 OH2  OT    -0.834000       15.9994           0
   27105 WT2  890  TIP3 H1   HT     0.417000        1.0080           0
   27106 WT2  890  TIP3 H2   HT     0.417000        1.0080           0
   27107 WT2  891  TIP3 OH2  OT    -0.834000       15.9994           0
   27108 WT2  891  TIP3 H1   HT     0.417000        1.0080           0
   27109 WT2  891  TIP3 H2   HT     0.417000        1.0080           0
   27110 WT2  893  TIP3 OH2  OT    -0.834000       15.9994           0
   27111 WT2  893  TIP3 H1   HT     0.417000        1.0080           0
   27112 WT2  893  TIP3 H2   HT     0.417000        1.0080           0
   27113 WT2  894  TIP3 OH2  OT    -0.834000       15.9994           0
   27114 WT2  894  TIP3 H1   HT     0.417000        1.0080           0
   27115 WT2  894  TIP3 H2   HT     0.417000        1.0080           0
   27116 WT2  895  TIP3 OH2  OT    -0.834000       15.9994           0
   27117 WT2  895  TIP3 H1   HT     0.417000        1.0080           0
   27118 WT2  895  TIP3 H2   HT     0.417000        1.0080           0
   27119 WT2  896  TIP3 OH2  OT    -0.834000       15.9994           0
   27120 WT2  896  TIP3 H1   HT     0.417000        1.0080           0
   27121 WT2  896  TIP3 H2   HT     0.417000        1.0080           0
   27122 WT2  898  TIP3 OH2  OT    -0.834000       15.9994           0
   27123 WT2  898  TIP3 H1   HT     0.417000        1.0080           0
   27124 WT2  898  TIP3 H2   HT     0.417000        1.0080           0
   27125 WT2  899  TIP3 OH2  OT    -0.834000       15.9994           0
   27126 WT2  899  TIP3 H1   HT     0.417000        1.0080           0
   27127 WT2  899  TIP3 H2   HT     0.417000        1.0080           0
   27128 WT2  900  TIP3 OH2  OT    -0.834000       15.9994           0
   27129 WT2  900  TIP3 H1   HT     0.417000        1.0080           0
   27130 WT2  900  TIP3 H2   HT     0.417000        1.0080           0
   27131 WT2  901  TIP3 OH2  OT    -0.834000       15.9994           0
   27132 WT2  901  TIP3 H1   HT     0.417000        1.0080           0
   27133 WT2  901  TIP3 H2   HT     0.417000        1.0080           0
   27134 WT2  902  TIP3 OH2  OT    -0.834000       15.9994           0
   27135 WT2  902  TIP3 H1   HT     0.417000        1.0080           0
   27136 WT2  902  TIP3 H2   HT     0.417000        1.0080           0
   27137 WT2  903  TIP3 OH2  OT    -0.834000       15.9994           0
   27138 WT2  903  TIP3 H1   HT     0.417000        1.0080           0
   27139 WT2  903  TIP3 H2   HT     0.417000        1.0080           0
   27140 WT2  904  TIP3 OH2  OT    -0.834000       15.9994           0
   27141 WT2  904  TIP3 H1   HT     0.417000        1.0080           0
   27142 WT2  904  TIP3 H2   HT     0.417000        1.0080           0
   27143 WT2  905  TIP3 OH2  OT    -0.834000       15.9994           0
   27144 WT2  905  TIP3 H1   HT     0.417000        1.0080           0
   27145 WT2  905  TIP3 H2   HT     0.417000        1.0080           0
   27146 WT2  906  TIP3 OH2  OT    -0.834000       15.9994           0
   27147 WT2  906  TIP3 H1   HT     0.417000        1.0080           0
   27148 WT2  906  TIP3 H2   HT     0.417000        1.0080           0
   27149 WT2  907  TIP3 OH2  OT    -0.834000       15.9994           0
   27150 WT2  907  TIP3 H1   HT     0.417000        1.0080           0
   27151 WT2  907  TIP3 H2   HT     0.417000        1.0080           0
   27152 WT2  909  TIP3 OH2  OT    -0.834000       15.9994           0
   27153 WT2  909  TIP3 H1   HT     0.417000        1.0080           0
   27154 WT2  909  TIP3 H2   HT     0.417000        1.0080           0
   27155 WT2  910  TIP3 OH2  OT    -0.834000       15.9994           0
   27156 WT2  910  TIP3 H1   HT     0.417000        1.0080           0
   27157 WT2  910  TIP3 H2   HT     0.417000        1.0080           0
   27158 WT2  911  TIP3 OH2  OT    -0.834000       15.9994           0
   27159 WT2  911  TIP3 H1   HT     0.417000        1.0080           0
   27160 WT2  911  TIP3 H2   HT     0.417000        1.0080           0
   27161 WT2  912  TIP3 OH2  OT    -0.834000       15.9994           0
   27162 WT2  912  TIP3 H1   HT     0.417000        1.0080           0
   27163 WT2  912  TIP3 H2   HT     0.417000        1.0080           0
   27164 WT2  913  TIP3 OH2  OT    -0.834000       15.9994           0
   27165 WT2  913  TIP3 H1   HT     0.417000        1.0080           0
   27166 WT2  913  TIP3 H2   HT     0.417000        1.0080           0
   27167 WT2  915  TIP3 OH2  OT    -0.834000       15.9994           0
   27168 WT2  915  TIP3 H1   HT     0.417000        1.0080           0
   27169 WT2  915  TIP3 H2   HT     0.417000        1.0080           0
   27170 WT2  916  TIP3 OH2  OT    -0.834000       15.9994           0
   27171 WT2  916  TIP3 H1   HT     0.417000        1.0080           0
   27172 WT2  916  TIP3 H2   HT     0.417000        1.0080           0
   27173 WT2  917  TIP3 OH2  OT    -0.834000       15.9994           0
   27174 WT2  917  TIP3 H1   HT     0.417000        1.0080           0
   27175 WT2  917  TIP3 H2   HT     0.417000        1.0080           0
   27176 WT2  918  TIP3 OH2  OT    -0.834000       15.9994           0
   27177 WT2  918  TIP3 H1   HT     0.417000        1.0080           0
   27178 WT2  918  TIP3 H2   HT     0.417000        1.0080           0
   27179 WT2  919  TIP3 OH2  OT    -0.834000       15.9994           0
   27180 WT2  919  TIP3 H1   HT     0.417000        1.0080           0
   27181 WT2  919  TIP3 H2   HT     0.417000        1.0080           0
   27182 WT2  920  TIP3 OH2  OT    -0.834000       15.9994           0
   27183 WT2  920  TIP3 H1   HT     0.417000        1.0080           0
   27184 WT2  920  TIP3 H2   HT     0.417000        1.0080           0
   27185 WT2  921  TIP3 OH2  OT    -0.834000       15.9994           0
   27186 WT2  921  TIP3 H1   HT     0.417000        1.0080           0
   27187 WT2  921  TIP3 H2   HT     0.417000        1.0080           0
   27188 WT2  922  TIP3 OH2  OT    -0.834000       15.9994           0
   27189 WT2  922  TIP3 H1   HT     0.417000        1.0080           0
   27190 WT2  922  TIP3 H2   HT     0.417000        1.0080           0
   27191 WT2  923  TIP3 OH2  OT    -0.834000       15.9994           0
   27192 WT2  923  TIP3 H1   HT     0.417000        1.0080           0
   27193 WT2  923  TIP3 H2   HT     0.417000        1.0080           0
   27194 WT2  924  TIP3 OH2  OT    -0.834000       15.9994           0
   27195 WT2  924  TIP3 H1   HT     0.417000        1.0080           0
   27196 WT2  924  TIP3 H2   HT     0.417000        1.0080           0
   27197 WT2  925  TIP3 OH2  OT    -0.834000       15.9994           0
   27198 WT2  925  TIP3 H1   HT     0.417000        1.0080           0
   27199 WT2  925  TIP3 H2   HT     0.417000        1.0080           0
   27200 WT2  926  TIP3 OH2  OT    -0.834000       15.9994           0
   27201 WT2  926  TIP3 H1   HT     0.417000        1.0080           0
   27202 WT2  926  TIP3 H2   HT     0.417000        1.0080           0
   27203 WT2  927  TIP3 OH2  OT    -0.834000       15.9994           0
   27204 WT2  927  TIP3 H1   HT     0.417000        1.0080           0
   27205 WT2  927  TIP3 H2   HT     0.417000        1.0080           0
   27206 WT2  928  TIP3 OH2  OT    -0.834000       15.9994           0
   27207 WT2  928  TIP3 H1   HT     0.417000        1.0080           0
   27208 WT2  928  TIP3 H2   HT     0.417000        1.0080           0
   27209 WT2  929  TIP3 OH2  OT    -0.834000       15.9994           0
   27210 WT2  929  TIP3 H1   HT     0.417000        1.0080           0
   27211 WT2  929  TIP3 H2   HT     0.417000        1.0080           0
   27212 WT2  930  TIP3 OH2  OT    -0.834000       15.9994           0
   27213 WT2  930  TIP3 H1   HT     0.417000        1.0080           0
   27214 WT2  930  TIP3 H2   HT     0.417000        1.0080           0
   27215 WT2  931  TIP3 OH2  OT    -0.834000       15.9994           0
   27216 WT2  931  TIP3 H1   HT     0.417000        1.0080           0
   27217 WT2  931  TIP3 H2   HT     0.417000        1.0080           0
   27218 WT2  932  TIP3 OH2  OT    -0.834000       15.9994           0
   27219 WT2  932  TIP3 H1   HT     0.417000        1.0080           0
   27220 WT2  932  TIP3 H2   HT     0.417000        1.0080           0
   27221 WT2  933  TIP3 OH2  OT    -0.834000       15.9994           0
   27222 WT2  933  TIP3 H1   HT     0.417000        1.0080           0
   27223 WT2  933  TIP3 H2   HT     0.417000        1.0080           0
   27224 WT2  934  TIP3 OH2  OT    -0.834000       15.9994           0
   27225 WT2  934  TIP3 H1   HT     0.417000        1.0080           0
   27226 WT2  934  TIP3 H2   HT     0.417000        1.0080           0
   27227 WT2  935  TIP3 OH2  OT    -0.834000       15.9994           0
   27228 WT2  935  TIP3 H1   HT     0.417000        1.0080           0
   27229 WT2  935  TIP3 H2   HT     0.417000        1.0080           0
   27230 WT2  936  TIP3 OH2  OT    -0.834000       15.9994           0
   27231 WT2  936  TIP3 H1   HT     0.417000        1.0080           0
   27232 WT2  936  TIP3 H2   HT     0.417000        1.0080           0
   27233 WT2  937  TIP3 OH2  OT    -0.834000       15.9994           0
   27234 WT2  937  TIP3 H1   HT     0.417000        1.0080           0
   27235 WT2  937  TIP3 H2   HT     0.417000        1.0080           0
   27236 WT2  938  TIP3 OH2  OT    -0.834000       15.9994           0
   27237 WT2  938  TIP3 H1   HT     0.417000        1.0080           0
   27238 WT2  938  TIP3 H2   HT     0.417000        1.0080           0
   27239 WT2  940  TIP3 OH2  OT    -0.834000       15.9994           0
   27240 WT2  940  TIP3 H1   HT     0.417000        1.0080           0
   27241 WT2  940  TIP3 H2   HT     0.417000        1.0080           0
   27242 WT2  941  TIP3 OH2  OT    -0.834000       15.9994           0
   27243 WT2  941  TIP3 H1   HT     0.417000        1.0080           0
   27244 WT2  941  TIP3 H2   HT     0.417000        1.0080           0
   27245 WT2  942  TIP3 OH2  OT    -0.834000       15.9994           0
   27246 WT2  942  TIP3 H1   HT     0.417000        1.0080           0
   27247 WT2  942  TIP3 H2   HT     0.417000        1.0080           0
   27248 WT2  943  TIP3 OH2  OT    -0.834000       15.9994           0
   27249 WT2  943  TIP3 H1   HT     0.417000        1.0080           0
   27250 WT2  943  TIP3 H2   HT     0.417000        1.0080           0
   27251 WT2  944  TIP3 OH2  OT    -0.834000       15.9994           0
   27252 WT2  944  TIP3 H1   HT     0.417000        1.0080           0
   27253 WT2  944  TIP3 H2   HT     0.417000        1.0080           0
   27254 WT2  945  TIP3 OH2  OT    -0.834000       15.9994           0
   27255 WT2  945  TIP3 H1   HT     0.417000        1.0080           0
   27256 WT2  945  TIP3 H2   HT     0.417000        1.0080           0
   27257 WT2  946  TIP3 OH2  OT    -0.834000       15.9994           0
   27258 WT2  946  TIP3 H1   HT     0.417000        1.0080           0
   27259 WT2  946  TIP3 H2   HT     0.417000        1.0080           0
   27260 WT2  947  TIP3 OH2  OT    -0.834000       15.9994           0
   27261 WT2  947  TIP3 H1   HT     0.417000        1.0080           0
   27262 WT2  947  TIP3 H2   HT     0.417000        1.0080           0
   27263 WT2  948  TIP3 OH2  OT    -0.834000       15.9994           0
   27264 WT2  948  TIP3 H1   HT     0.417000        1.0080           0
   27265 WT2  948  TIP3 H2   HT     0.417000        1.0080           0
   27266 WT2  949  TIP3 OH2  OT    -0.834000       15.9994           0
   27267 WT2  949  TIP3 H1   HT     0.417000        1.0080           0
   27268 WT2  949  TIP3 H2   HT     0.417000        1.0080           0
   27269 WT2  950  TIP3 OH2  OT    -0.834000       15.9994           0
   27270 WT2  950  TIP3 H1   HT     0.417000        1.0080           0
   27271 WT2  950  TIP3 H2   HT     0.417000        1.0080           0
   27272 WT2  951  TIP3 OH2  OT    -0.834000       15.9994           0
   27273 WT2  951  TIP3 H1   HT     0.417000        1.0080           0
   27274 WT2  951  TIP3 H2   HT     0.417000        1.0080           0
   27275 WT2  952  TIP3 OH2  OT    -0.834000       15.9994           0
   27276 WT2  952  TIP3 H1   HT     0.417000        1.0080           0
   27277 WT2  952  TIP3 H2   HT     0.417000        1.0080           0
   27278 WT2  955  TIP3 OH2  OT    -0.834000       15.9994           0
   27279 WT2  955  TIP3 H1   HT     0.417000        1.0080           0
   27280 WT2  955  TIP3 H2   HT     0.417000        1.0080           0
   27281 WT2  956  TIP3 OH2  OT    -0.834000       15.9994           0
   27282 WT2  956  TIP3 H1   HT     0.417000        1.0080           0
   27283 WT2  956  TIP3 H2   HT     0.417000        1.0080           0
   27284 WT2  957  TIP3 OH2  OT    -0.834000       15.9994           0
   27285 WT2  957  TIP3 H1   HT     0.417000        1.0080           0
   27286 WT2  957  TIP3 H2   HT     0.417000        1.0080           0
   27287 WT2  958  TIP3 OH2  OT    -0.834000       15.9994           0
   27288 WT2  958  TIP3 H1   HT     0.417000        1.0080           0
   27289 WT2  958  TIP3 H2   HT     0.417000        1.0080           0
   27290 WT2  959  TIP3 OH2  OT    -0.834000       15.9994           0
   27291 WT2  959  TIP3 H1   HT     0.417000        1.0080           0
   27292 WT2  959  TIP3 H2   HT     0.417000        1.0080           0
   27293 WT2  960  TIP3 OH2  OT    -0.834000       15.9994           0
   27294 WT2  960  TIP3 H1   HT     0.417000        1.0080           0
   27295 WT2  960  TIP3 H2   HT     0.417000        1.0080           0
   27296 WT2  961  TIP3 OH2  OT    -0.834000       15.9994           0
   27297 WT2  961  TIP3 H1   HT     0.417000        1.0080           0
   27298 WT2  961  TIP3 H2   HT     0.417000        1.0080           0
   27299 WT2  962  TIP3 OH2  OT    -0.834000       15.9994           0
   27300 WT2  962  TIP3 H1   HT     0.417000        1.0080           0
   27301 WT2  962  TIP3 H2   HT     0.417000        1.0080           0
   27302 WT2  963  TIP3 OH2  OT    -0.834000       15.9994           0
   27303 WT2  963  TIP3 H1   HT     0.417000        1.0080           0
   27304 WT2  963  TIP3 H2   HT     0.417000        1.0080           0
   27305 WT2  964  TIP3 OH2  OT    -0.834000       15.9994           0
   27306 WT2  964  TIP3 H1   HT     0.417000        1.0080           0
   27307 WT2  964  TIP3 H2   HT     0.417000        1.0080           0
   27308 WT2  965  TIP3 OH2  OT    -0.834000       15.9994           0
   27309 WT2  965  TIP3 H1   HT     0.417000        1.0080           0
   27310 WT2  965  TIP3 H2   HT     0.417000        1.0080           0
   27311 WT2  966  TIP3 OH2  OT    -0.834000       15.9994           0
   27312 WT2  966  TIP3 H1   HT     0.417000        1.0080           0
   27313 WT2  966  TIP3 H2   HT     0.417000        1.0080           0
   27314 WT2  967  TIP3 OH2  OT    -0.834000       15.9994           0
   27315 WT2  967  TIP3 H1   HT     0.417000        1.0080           0
   27316 WT2  967  TIP3 H2   HT     0.417000        1.0080           0
   27317 WT2  968  TIP3 OH2  OT    -0.834000       15.9994           0
   27318 WT2  968  TIP3 H1   HT     0.417000        1.0080           0
   27319 WT2  968  TIP3 H2   HT     0.417000        1.0080           0
   27320 WT2  969  TIP3 OH2  OT    -0.834000       15.9994           0
   27321 WT2  969  TIP3 H1   HT     0.417000        1.0080           0
   27322 WT2  969  TIP3 H2   HT     0.417000        1.0080           0
   27323 WT2  970  TIP3 OH2  OT    -0.834000       15.9994           0
   27324 WT2  970  TIP3 H1   HT     0.417000        1.0080           0
   27325 WT2  970  TIP3 H2   HT     0.417000        1.0080           0
   27326 WT2  971  TIP3 OH2  OT    -0.834000       15.9994           0
   27327 WT2  971  TIP3 H1   HT     0.417000        1.0080           0
   27328 WT2  971  TIP3 H2   HT     0.417000        1.0080           0
   27329 WT2  972  TIP3 OH2  OT    -0.834000       15.9994           0
   27330 WT2  972  TIP3 H1   HT     0.417000        1.0080           0
   27331 WT2  972  TIP3 H2   HT     0.417000        1.0080           0
   27332 WT2  973  TIP3 OH2  OT    -0.834000       15.9994           0
   27333 WT2  973  TIP3 H1   HT     0.417000        1.0080           0
   27334 WT2  973  TIP3 H2   HT     0.417000        1.0080           0
   27335 WT2  974  TIP3 OH2  OT    -0.834000       15.9994           0
   27336 WT2  974  TIP3 H1   HT     0.417000        1.0080           0
   27337 WT2  974  TIP3 H2   HT     0.417000        1.0080           0
   27338 WT2  975  TIP3 OH2  OT    -0.834000       15.9994           0
   27339 WT2  975  TIP3 H1   HT     0.417000        1.0080           0
   27340 WT2  975  TIP3 H2   HT     0.417000        1.0080           0
   27341 WT2  976  TIP3 OH2  OT    -0.834000       15.9994           0
   27342 WT2  976  TIP3 H1   HT     0.417000        1.0080           0
   27343 WT2  976  TIP3 H2   HT     0.417000        1.0080           0
   27344 WT2  978  TIP3 OH2  OT    -0.834000       15.9994           0
   27345 WT2  978  TIP3 H1   HT     0.417000        1.0080           0
   27346 WT2  978  TIP3 H2   HT     0.417000        1.0080           0
   27347 WT2  979  TIP3 OH2  OT    -0.834000       15.9994           0
   27348 WT2  979  TIP3 H1   HT     0.417000        1.0080           0
   27349 WT2  979  TIP3 H2   HT     0.417000        1.0080           0
   27350 WT2  980  TIP3 OH2  OT    -0.834000       15.9994           0
   27351 WT2  980  TIP3 H1   HT     0.417000        1.0080           0
   27352 WT2  980  TIP3 H2   HT     0.417000        1.0080           0
   27353 WT2  982  TIP3 OH2  OT    -0.834000       15.9994           0
   27354 WT2  982  TIP3 H1   HT     0.417000        1.0080           0
   27355 WT2  982  TIP3 H2   HT     0.417000        1.0080           0
   27356 WT2  984  TIP3 OH2  OT    -0.834000       15.9994           0
   27357 WT2  984  TIP3 H1   HT     0.417000        1.0080           0
   27358 WT2  984  TIP3 H2   HT     0.417000        1.0080           0
   27359 WT2  985  TIP3 OH2  OT    -0.834000       15.9994           0
   27360 WT2  985  TIP3 H1   HT     0.417000        1.0080           0
   27361 WT2  985  TIP3 H2   HT     0.417000        1.0080           0
   27362 WT2  986  TIP3 OH2  OT    -0.834000       15.9994           0
   27363 WT2  986  TIP3 H1   HT     0.417000        1.0080           0
   27364 WT2  986  TIP3 H2   HT     0.417000        1.0080           0
   27365 WT2  987  TIP3 OH2  OT    -0.834000       15.9994           0
   27366 WT2  987  TIP3 H1   HT     0.417000        1.0080           0
   27367 WT2  987  TIP3 H2   HT     0.417000        1.0080           0
   27368 WT2  988  TIP3 OH2  OT    -0.834000       15.9994           0
   27369 WT2  988  TIP3 H1   HT     0.417000        1.0080           0
   27370 WT2  988  TIP3 H2   HT     0.417000        1.0080           0
   27371 WT2  989  TIP3 OH2  OT    -0.834000       15.9994           0
   27372 WT2  989  TIP3 H1   HT     0.417000        1.0080           0
   27373 WT2  989  TIP3 H2   HT     0.417000        1.0080           0
   27374 WT2  990  TIP3 OH2  OT    -0.834000       15.9994           0
   27375 WT2  990  TIP3 H1   HT     0.417000        1.0080           0
   27376 WT2  990  TIP3 H2   HT     0.417000        1.0080           0
   27377 WT2  991  TIP3 OH2  OT    -0.834000       15.9994           0
   27378 WT2  991  TIP3 H1   HT     0.417000        1.0080           0
   27379 WT2  991  TIP3 H2   HT     0.417000        1.0080           0
   27380 WT2  994  TIP3 OH2  OT    -0.834000       15.9994           0
   27381 WT2  994  TIP3 H1   HT     0.417000        1.0080           0
   27382 WT2  994  TIP3 H2   HT     0.417000        1.0080           0
   27383 WT2  995  TIP3 OH2  OT    -0.834000       15.9994           0
   27384 WT2  995  TIP3 H1   HT     0.417000        1.0080           0
   27385 WT2  995  TIP3 H2   HT     0.417000        1.0080           0
   27386 WT2  997  TIP3 OH2  OT    -0.834000       15.9994           0
   27387 WT2  997  TIP3 H1   HT     0.417000        1.0080           0
   27388 WT2  997  TIP3 H2   HT     0.417000        1.0080           0
   27389 WT2  998  TIP3 OH2  OT    -0.834000       15.9994           0
   27390 WT2  998  TIP3 H1   HT     0.417000        1.0080           0
   27391 WT2  998  TIP3 H2   HT     0.417000        1.0080           0
   27392 WT2  999  TIP3 OH2  OT    -0.834000       15.9994           0
   27393 WT2  999  TIP3 H1   HT     0.417000        1.0080           0
   27394 WT2  999  TIP3 H2   HT     0.417000        1.0080           0
   27395 WT2  1000 TIP3 OH2  OT    -0.834000       15.9994           0
   27396 WT2  1000 TIP3 H1   HT     0.417000        1.0080           0
   27397 WT2  1000 TIP3 H2   HT     0.417000        1.0080           0
   27398 WT2  1001 TIP3 OH2  OT    -0.834000       15.9994           0
   27399 WT2  1001 TIP3 H1   HT     0.417000        1.0080           0
   27400 WT2  1001 TIP3 H2   HT     0.417000        1.0080           0
   27401 WT2  1002 TIP3 OH2  OT    -0.834000       15.9994           0
   27402 WT2  1002 TIP3 H1   HT     0.417000        1.0080           0
   27403 WT2  1002 TIP3 H2   HT     0.417000        1.0080           0
   27404 WT2  1003 TIP3 OH2  OT    -0.834000       15.9994           0
   27405 WT2  1003 TIP3 H1   HT     0.417000        1.0080           0
   27406 WT2  1003 TIP3 H2   HT     0.417000        1.0080           0
   27407 WT2  1004 TIP3 OH2  OT    -0.834000       15.9994           0
   27408 WT2  1004 TIP3 H1   HT     0.417000        1.0080           0
   27409 WT2  1004 TIP3 H2   HT     0.417000        1.0080           0
   27410 WT2  1005 TIP3 OH2  OT    -0.834000       15.9994           0
   27411 WT2  1005 TIP3 H1   HT     0.417000        1.0080           0
   27412 WT2  1005 TIP3 H2   HT     0.417000        1.0080           0
   27413 WT2  1006 TIP3 OH2  OT    -0.834000       15.9994           0
   27414 WT2  1006 TIP3 H1   HT     0.417000        1.0080           0
   27415 WT2  1006 TIP3 H2   HT     0.417000        1.0080           0
   27416 WT2  1008 TIP3 OH2  OT    -0.834000       15.9994           0
   27417 WT2  1008 TIP3 H1   HT     0.417000        1.0080           0
   27418 WT2  1008 TIP3 H2   HT     0.417000        1.0080           0
   27419 WT2  1009 TIP3 OH2  OT    -0.834000       15.9994           0
   27420 WT2  1009 TIP3 H1   HT     0.417000        1.0080           0
   27421 WT2  1009 TIP3 H2   HT     0.417000        1.0080           0
   27422 WT2  1010 TIP3 OH2  OT    -0.834000       15.9994           0
   27423 WT2  1010 TIP3 H1   HT     0.417000        1.0080           0
   27424 WT2  1010 TIP3 H2   HT     0.417000        1.0080           0
   27425 WT2  1011 TIP3 OH2  OT    -0.834000       15.9994           0
   27426 WT2  1011 TIP3 H1   HT     0.417000        1.0080           0
   27427 WT2  1011 TIP3 H2   HT     0.417000        1.0080           0
   27428 WT2  1012 TIP3 OH2  OT    -0.834000       15.9994           0
   27429 WT2  1012 TIP3 H1   HT     0.417000        1.0080           0
   27430 WT2  1012 TIP3 H2   HT     0.417000        1.0080           0
   27431 WT2  1013 TIP3 OH2  OT    -0.834000       15.9994           0
   27432 WT2  1013 TIP3 H1   HT     0.417000        1.0080           0
   27433 WT2  1013 TIP3 H2   HT     0.417000        1.0080           0
   27434 WT2  1014 TIP3 OH2  OT    -0.834000       15.9994           0
   27435 WT2  1014 TIP3 H1   HT     0.417000        1.0080           0
   27436 WT2  1014 TIP3 H2   HT     0.417000        1.0080           0
   27437 WT2  1015 TIP3 OH2  OT    -0.834000       15.9994           0
   27438 WT2  1015 TIP3 H1   HT     0.417000        1.0080           0
   27439 WT2  1015 TIP3 H2   HT     0.417000        1.0080           0
   27440 WT2  1016 TIP3 OH2  OT    -0.834000       15.9994           0
   27441 WT2  1016 TIP3 H1   HT     0.417000        1.0080           0
   27442 WT2  1016 TIP3 H2   HT     0.417000        1.0080           0
   27443 WT2  1017 TIP3 OH2  OT    -0.834000       15.9994           0
   27444 WT2  1017 TIP3 H1   HT     0.417000        1.0080           0
   27445 WT2  1017 TIP3 H2   HT     0.417000        1.0080           0
   27446 WT2  1018 TIP3 OH2  OT    -0.834000       15.9994           0
   27447 WT2  1018 TIP3 H1   HT     0.417000        1.0080           0
   27448 WT2  1018 TIP3 H2   HT     0.417000        1.0080           0
   27449 WT2  1020 TIP3 OH2  OT    -0.834000       15.9994           0
   27450 WT2  1020 TIP3 H1   HT     0.417000        1.0080           0
   27451 WT2  1020 TIP3 H2   HT     0.417000        1.0080           0
   27452 WT2  1022 TIP3 OH2  OT    -0.834000       15.9994           0
   27453 WT2  1022 TIP3 H1   HT     0.417000        1.0080           0
   27454 WT2  1022 TIP3 H2   HT     0.417000        1.0080           0
   27455 WT2  1023 TIP3 OH2  OT    -0.834000       15.9994           0
   27456 WT2  1023 TIP3 H1   HT     0.417000        1.0080           0
   27457 WT2  1023 TIP3 H2   HT     0.417000        1.0080           0
   27458 WT2  1025 TIP3 OH2  OT    -0.834000       15.9994           0
   27459 WT2  1025 TIP3 H1   HT     0.417000        1.0080           0
   27460 WT2  1025 TIP3 H2   HT     0.417000        1.0080           0
   27461 WT2  1027 TIP3 OH2  OT    -0.834000       15.9994           0
   27462 WT2  1027 TIP3 H1   HT     0.417000        1.0080           0
   27463 WT2  1027 TIP3 H2   HT     0.417000        1.0080           0
   27464 WT2  1028 TIP3 OH2  OT    -0.834000       15.9994           0
   27465 WT2  1028 TIP3 H1   HT     0.417000        1.0080           0
   27466 WT2  1028 TIP3 H2   HT     0.417000        1.0080           0
   27467 WT2  1029 TIP3 OH2  OT    -0.834000       15.9994           0
   27468 WT2  1029 TIP3 H1   HT     0.417000        1.0080           0
   27469 WT2  1029 TIP3 H2   HT     0.417000        1.0080           0
   27470 WT2  1030 TIP3 OH2  OT    -0.834000       15.9994           0
   27471 WT2  1030 TIP3 H1   HT     0.417000        1.0080           0
   27472 WT2  1030 TIP3 H2   HT     0.417000        1.0080           0
   27473 WT2  1031 TIP3 OH2  OT    -0.834000       15.9994           0
   27474 WT2  1031 TIP3 H1   HT     0.417000        1.0080           0
   27475 WT2  1031 TIP3 H2   HT     0.417000        1.0080           0
   27476 WT2  1033 TIP3 OH2  OT    -0.834000       15.9994           0
   27477 WT2  1033 TIP3 H1   HT     0.417000        1.0080           0
   27478 WT2  1033 TIP3 H2   HT     0.417000        1.0080           0
   27479 WT2  1034 TIP3 OH2  OT    -0.834000       15.9994           0
   27480 WT2  1034 TIP3 H1   HT     0.417000        1.0080           0
   27481 WT2  1034 TIP3 H2   HT     0.417000        1.0080           0
   27482 WT2  1035 TIP3 OH2  OT    -0.834000       15.9994           0
   27483 WT2  1035 TIP3 H1   HT     0.417000        1.0080           0
   27484 WT2  1035 TIP3 H2   HT     0.417000        1.0080           0
   27485 WT2  1036 TIP3 OH2  OT    -0.834000       15.9994           0
   27486 WT2  1036 TIP3 H1   HT     0.417000        1.0080           0
   27487 WT2  1036 TIP3 H2   HT     0.417000        1.0080           0
   27488 WT2  1037 TIP3 OH2  OT    -0.834000       15.9994           0
   27489 WT2  1037 TIP3 H1   HT     0.417000        1.0080           0
   27490 WT2  1037 TIP3 H2   HT     0.417000        1.0080           0
   27491 WT2  1038 TIP3 OH2  OT    -0.834000       15.9994           0
   27492 WT2  1038 TIP3 H1   HT     0.417000        1.0080           0
   27493 WT2  1038 TIP3 H2   HT     0.417000        1.0080           0
   27494 WT2  1039 TIP3 OH2  OT    -0.834000       15.9994           0
   27495 WT2  1039 TIP3 H1   HT     0.417000        1.0080           0
   27496 WT2  1039 TIP3 H2   HT     0.417000        1.0080           0
   27497 WT2  1040 TIP3 OH2  OT    -0.834000       15.9994           0
   27498 WT2  1040 TIP3 H1   HT     0.417000        1.0080           0
   27499 WT2  1040 TIP3 H2   HT     0.417000        1.0080           0
   27500 WT2  1041 TIP3 OH2  OT    -0.834000       15.9994           0
   27501 WT2  1041 TIP3 H1   HT     0.417000        1.0080           0
   27502 WT2  1041 TIP3 H2   HT     0.417000        1.0080           0
   27503 WT2  1042 TIP3 OH2  OT    -0.834000       15.9994           0
   27504 WT2  1042 TIP3 H1   HT     0.417000        1.0080           0
   27505 WT2  1042 TIP3 H2   HT     0.417000        1.0080           0
   27506 WT2  1043 TIP3 OH2  OT    -0.834000       15.9994           0
   27507 WT2  1043 TIP3 H1   HT     0.417000        1.0080           0
   27508 WT2  1043 TIP3 H2   HT     0.417000        1.0080           0
   27509 WT2  1044 TIP3 OH2  OT    -0.834000       15.9994           0
   27510 WT2  1044 TIP3 H1   HT     0.417000        1.0080           0
   27511 WT2  1044 TIP3 H2   HT     0.417000        1.0080           0
   27512 WT2  1045 TIP3 OH2  OT    -0.834000       15.9994           0
   27513 WT2  1045 TIP3 H1   HT     0.417000        1.0080           0
   27514 WT2  1045 TIP3 H2   HT     0.417000        1.0080           0
   27515 WT2  1046 TIP3 OH2  OT    -0.834000       15.9994           0
   27516 WT2  1046 TIP3 H1   HT     0.417000        1.0080           0
   27517 WT2  1046 TIP3 H2   HT     0.417000        1.0080           0
   27518 WT2  1047 TIP3 OH2  OT    -0.834000       15.9994           0
   27519 WT2  1047 TIP3 H1   HT     0.417000        1.0080           0
   27520 WT2  1047 TIP3 H2   HT     0.417000        1.0080           0
   27521 WT2  1049 TIP3 OH2  OT    -0.834000       15.9994           0
   27522 WT2  1049 TIP3 H1   HT     0.417000        1.0080           0
   27523 WT2  1049 TIP3 H2   HT     0.417000        1.0080           0
   27524 WT2  1050 TIP3 OH2  OT    -0.834000       15.9994           0
   27525 WT2  1050 TIP3 H1   HT     0.417000        1.0080           0
   27526 WT2  1050 TIP3 H2   HT     0.417000        1.0080           0
   27527 WT2  1051 TIP3 OH2  OT    -0.834000       15.9994           0
   27528 WT2  1051 TIP3 H1   HT     0.417000        1.0080           0
   27529 WT2  1051 TIP3 H2   HT     0.417000        1.0080           0
   27530 WT2  1052 TIP3 OH2  OT    -0.834000       15.9994           0
   27531 WT2  1052 TIP3 H1   HT     0.417000        1.0080           0
   27532 WT2  1052 TIP3 H2   HT     0.417000        1.0080           0
   27533 WT2  1054 TIP3 OH2  OT    -0.834000       15.9994           0
   27534 WT2  1054 TIP3 H1   HT     0.417000        1.0080           0
   27535 WT2  1054 TIP3 H2   HT     0.417000        1.0080           0
   27536 WT2  1055 TIP3 OH2  OT    -0.834000       15.9994           0
   27537 WT2  1055 TIP3 H1   HT     0.417000        1.0080           0
   27538 WT2  1055 TIP3 H2   HT     0.417000        1.0080           0
   27539 WT2  1056 TIP3 OH2  OT    -0.834000       15.9994           0
   27540 WT2  1056 TIP3 H1   HT     0.417000        1.0080           0
   27541 WT2  1056 TIP3 H2   HT     0.417000        1.0080           0
   27542 WT2  1057 TIP3 OH2  OT    -0.834000       15.9994           0
   27543 WT2  1057 TIP3 H1   HT     0.417000        1.0080           0
   27544 WT2  1057 TIP3 H2   HT     0.417000        1.0080           0
   27545 WT2  1058 TIP3 OH2  OT    -0.834000       15.9994           0
   27546 WT2  1058 TIP3 H1   HT     0.417000        1.0080           0
   27547 WT2  1058 TIP3 H2   HT     0.417000        1.0080           0
   27548 WT2  1059 TIP3 OH2  OT    -0.834000       15.9994           0
   27549 WT2  1059 TIP3 H1   HT     0.417000        1.0080           0
   27550 WT2  1059 TIP3 H2   HT     0.417000        1.0080           0
   27551 WT2  1060 TIP3 OH2  OT    -0.834000       15.9994           0
   27552 WT2  1060 TIP3 H1   HT     0.417000        1.0080           0
   27553 WT2  1060 TIP3 H2   HT     0.417000        1.0080           0
   27554 WT2  1061 TIP3 OH2  OT    -0.834000       15.9994           0
   27555 WT2  1061 TIP3 H1   HT     0.417000        1.0080           0
   27556 WT2  1061 TIP3 H2   HT     0.417000        1.0080           0
   27557 WT2  1062 TIP3 OH2  OT    -0.834000       15.9994           0
   27558 WT2  1062 TIP3 H1   HT     0.417000        1.0080           0
   27559 WT2  1062 TIP3 H2   HT     0.417000        1.0080           0
   27560 WT2  1063 TIP3 OH2  OT    -0.834000       15.9994           0
   27561 WT2  1063 TIP3 H1   HT     0.417000        1.0080           0
   27562 WT2  1063 TIP3 H2   HT     0.417000        1.0080           0
   27563 WT2  1065 TIP3 OH2  OT    -0.834000       15.9994           0
   27564 WT2  1065 TIP3 H1   HT     0.417000        1.0080           0
   27565 WT2  1065 TIP3 H2   HT     0.417000        1.0080           0
   27566 WT2  1066 TIP3 OH2  OT    -0.834000       15.9994           0
   27567 WT2  1066 TIP3 H1   HT     0.417000        1.0080           0
   27568 WT2  1066 TIP3 H2   HT     0.417000        1.0080           0
   27569 WT2  1067 TIP3 OH2  OT    -0.834000       15.9994           0
   27570 WT2  1067 TIP3 H1   HT     0.417000        1.0080           0
   27571 WT2  1067 TIP3 H2   HT     0.417000        1.0080           0
   27572 WT2  1068 TIP3 OH2  OT    -0.834000       15.9994           0
   27573 WT2  1068 TIP3 H1   HT     0.417000        1.0080           0
   27574 WT2  1068 TIP3 H2   HT     0.417000        1.0080           0
   27575 WT2  1069 TIP3 OH2  OT    -0.834000       15.9994           0
   27576 WT2  1069 TIP3 H1   HT     0.417000        1.0080           0
   27577 WT2  1069 TIP3 H2   HT     0.417000        1.0080           0
   27578 WT2  1071 TIP3 OH2  OT    -0.834000       15.9994           0
   27579 WT2  1071 TIP3 H1   HT     0.417000        1.0080           0
   27580 WT2  1071 TIP3 H2   HT     0.417000        1.0080           0
   27581 WT2  1073 TIP3 OH2  OT    -0.834000       15.9994           0
   27582 WT2  1073 TIP3 H1   HT     0.417000        1.0080           0
   27583 WT2  1073 TIP3 H2   HT     0.417000        1.0080           0
   27584 WT2  1075 TIP3 OH2  OT    -0.834000       15.9994           0
   27585 WT2  1075 TIP3 H1   HT     0.417000        1.0080           0
   27586 WT2  1075 TIP3 H2   HT     0.417000        1.0080           0
   27587 WT2  1076 TIP3 OH2  OT    -0.834000       15.9994           0
   27588 WT2  1076 TIP3 H1   HT     0.417000        1.0080           0
   27589 WT2  1076 TIP3 H2   HT     0.417000        1.0080           0
   27590 WT2  1077 TIP3 OH2  OT    -0.834000       15.9994           0
   27591 WT2  1077 TIP3 H1   HT     0.417000        1.0080           0
   27592 WT2  1077 TIP3 H2   HT     0.417000        1.0080           0
   27593 WT2  1078 TIP3 OH2  OT    -0.834000       15.9994           0
   27594 WT2  1078 TIP3 H1   HT     0.417000        1.0080           0
   27595 WT2  1078 TIP3 H2   HT     0.417000        1.0080           0
   27596 WT2  1079 TIP3 OH2  OT    -0.834000       15.9994           0
   27597 WT2  1079 TIP3 H1   HT     0.417000        1.0080           0
   27598 WT2  1079 TIP3 H2   HT     0.417000        1.0080           0
   27599 WT2  1080 TIP3 OH2  OT    -0.834000       15.9994           0
   27600 WT2  1080 TIP3 H1   HT     0.417000        1.0080           0
   27601 WT2  1080 TIP3 H2   HT     0.417000        1.0080           0
   27602 WT2  1081 TIP3 OH2  OT    -0.834000       15.9994           0
   27603 WT2  1081 TIP3 H1   HT     0.417000        1.0080           0
   27604 WT2  1081 TIP3 H2   HT     0.417000        1.0080           0
   27605 WT2  1082 TIP3 OH2  OT    -0.834000       15.9994           0
   27606 WT2  1082 TIP3 H1   HT     0.417000        1.0080           0
   27607 WT2  1082 TIP3 H2   HT     0.417000        1.0080           0
   27608 WT2  1084 TIP3 OH2  OT    -0.834000       15.9994           0
   27609 WT2  1084 TIP3 H1   HT     0.417000        1.0080           0
   27610 WT2  1084 TIP3 H2   HT     0.417000        1.0080           0
   27611 WT2  1086 TIP3 OH2  OT    -0.834000       15.9994           0
   27612 WT2  1086 TIP3 H1   HT     0.417000        1.0080           0
   27613 WT2  1086 TIP3 H2   HT     0.417000        1.0080           0
   27614 WT2  1087 TIP3 OH2  OT    -0.834000       15.9994           0
   27615 WT2  1087 TIP3 H1   HT     0.417000        1.0080           0
   27616 WT2  1087 TIP3 H2   HT     0.417000        1.0080           0
   27617 WT2  1088 TIP3 OH2  OT    -0.834000       15.9994           0
   27618 WT2  1088 TIP3 H1   HT     0.417000        1.0080           0
   27619 WT2  1088 TIP3 H2   HT     0.417000        1.0080           0
   27620 WT2  1091 TIP3 OH2  OT    -0.834000       15.9994           0
   27621 WT2  1091 TIP3 H1   HT     0.417000        1.0080           0
   27622 WT2  1091 TIP3 H2   HT     0.417000        1.0080           0
   27623 WT2  1092 TIP3 OH2  OT    -0.834000       15.9994           0
   27624 WT2  1092 TIP3 H1   HT     0.417000        1.0080           0
   27625 WT2  1092 TIP3 H2   HT     0.417000        1.0080           0
   27626 WT2  1093 TIP3 OH2  OT    -0.834000       15.9994           0
   27627 WT2  1093 TIP3 H1   HT     0.417000        1.0080           0
   27628 WT2  1093 TIP3 H2   HT     0.417000        1.0080           0
   27629 WT2  1094 TIP3 OH2  OT    -0.834000       15.9994           0
   27630 WT2  1094 TIP3 H1   HT     0.417000        1.0080           0
   27631 WT2  1094 TIP3 H2   HT     0.417000        1.0080           0
   27632 WT2  1095 TIP3 OH2  OT    -0.834000       15.9994           0
   27633 WT2  1095 TIP3 H1   HT     0.417000        1.0080           0
   27634 WT2  1095 TIP3 H2   HT     0.417000        1.0080           0
   27635 WT2  1096 TIP3 OH2  OT    -0.834000       15.9994           0
   27636 WT2  1096 TIP3 H1   HT     0.417000        1.0080           0
   27637 WT2  1096 TIP3 H2   HT     0.417000        1.0080           0
   27638 WT2  1097 TIP3 OH2  OT    -0.834000       15.9994           0
   27639 WT2  1097 TIP3 H1   HT     0.417000        1.0080           0
   27640 WT2  1097 TIP3 H2   HT     0.417000        1.0080           0
   27641 WT2  1098 TIP3 OH2  OT    -0.834000       15.9994           0
   27642 WT2  1098 TIP3 H1   HT     0.417000        1.0080           0
   27643 WT2  1098 TIP3 H2   HT     0.417000        1.0080           0
   27644 WT2  1099 TIP3 OH2  OT    -0.834000       15.9994           0
   27645 WT2  1099 TIP3 H1   HT     0.417000        1.0080           0
   27646 WT2  1099 TIP3 H2   HT     0.417000        1.0080           0
   27647 WT2  1101 TIP3 OH2  OT    -0.834000       15.9994           0
   27648 WT2  1101 TIP3 H1   HT     0.417000        1.0080           0
   27649 WT2  1101 TIP3 H2   HT     0.417000        1.0080           0
   27650 WT2  1102 TIP3 OH2  OT    -0.834000       15.9994           0
   27651 WT2  1102 TIP3 H1   HT     0.417000        1.0080           0
   27652 WT2  1102 TIP3 H2   HT     0.417000        1.0080           0
   27653 WT2  1103 TIP3 OH2  OT    -0.834000       15.9994           0
   27654 WT2  1103 TIP3 H1   HT     0.417000        1.0080           0
   27655 WT2  1103 TIP3 H2   HT     0.417000        1.0080           0
   27656 WT2  1105 TIP3 OH2  OT    -0.834000       15.9994           0
   27657 WT2  1105 TIP3 H1   HT     0.417000        1.0080           0
   27658 WT2  1105 TIP3 H2   HT     0.417000        1.0080           0
   27659 WT2  1106 TIP3 OH2  OT    -0.834000       15.9994           0
   27660 WT2  1106 TIP3 H1   HT     0.417000        1.0080           0
   27661 WT2  1106 TIP3 H2   HT     0.417000        1.0080           0
   27662 WT2  1107 TIP3 OH2  OT    -0.834000       15.9994           0
   27663 WT2  1107 TIP3 H1   HT     0.417000        1.0080           0
   27664 WT2  1107 TIP3 H2   HT     0.417000        1.0080           0
   27665 WT2  1108 TIP3 OH2  OT    -0.834000       15.9994           0
   27666 WT2  1108 TIP3 H1   HT     0.417000        1.0080           0
   27667 WT2  1108 TIP3 H2   HT     0.417000        1.0080           0
   27668 WT2  1109 TIP3 OH2  OT    -0.834000       15.9994           0
   27669 WT2  1109 TIP3 H1   HT     0.417000        1.0080           0
   27670 WT2  1109 TIP3 H2   HT     0.417000        1.0080           0
   27671 WT2  1111 TIP3 OH2  OT    -0.834000       15.9994           0
   27672 WT2  1111 TIP3 H1   HT     0.417000        1.0080           0
   27673 WT2  1111 TIP3 H2   HT     0.417000        1.0080           0
   27674 WT2  1112 TIP3 OH2  OT    -0.834000       15.9994           0
   27675 WT2  1112 TIP3 H1   HT     0.417000        1.0080           0
   27676 WT2  1112 TIP3 H2   HT     0.417000        1.0080           0
   27677 WT2  1113 TIP3 OH2  OT    -0.834000       15.9994           0
   27678 WT2  1113 TIP3 H1   HT     0.417000        1.0080           0
   27679 WT2  1113 TIP3 H2   HT     0.417000        1.0080           0
   27680 WT2  1114 TIP3 OH2  OT    -0.834000       15.9994           0
   27681 WT2  1114 TIP3 H1   HT     0.417000        1.0080           0
   27682 WT2  1114 TIP3 H2   HT     0.417000        1.0080           0
   27683 WT2  1116 TIP3 OH2  OT    -0.834000       15.9994           0
   27684 WT2  1116 TIP3 H1   HT     0.417000        1.0080           0
   27685 WT2  1116 TIP3 H2   HT     0.417000        1.0080           0
   27686 WT2  1117 TIP3 OH2  OT    -0.834000       15.9994           0
   27687 WT2  1117 TIP3 H1   HT     0.417000        1.0080           0
   27688 WT2  1117 TIP3 H2   HT     0.417000        1.0080           0
   27689 WT2  1118 TIP3 OH2  OT    -0.834000       15.9994           0
   27690 WT2  1118 TIP3 H1   HT     0.417000        1.0080           0
   27691 WT2  1118 TIP3 H2   HT     0.417000        1.0080           0
   27692 WT2  1119 TIP3 OH2  OT    -0.834000       15.9994           0
   27693 WT2  1119 TIP3 H1   HT     0.417000        1.0080           0
   27694 WT2  1119 TIP3 H2   HT     0.417000        1.0080           0
   27695 WT2  1120 TIP3 OH2  OT    -0.834000       15.9994           0
   27696 WT2  1120 TIP3 H1   HT     0.417000        1.0080           0
   27697 WT2  1120 TIP3 H2   HT     0.417000        1.0080           0
   27698 WT2  1121 TIP3 OH2  OT    -0.834000       15.9994           0
   27699 WT2  1121 TIP3 H1   HT     0.417000        1.0080           0
   27700 WT2  1121 TIP3 H2   HT     0.417000        1.0080           0
   27701 WT2  1122 TIP3 OH2  OT    -0.834000       15.9994           0
   27702 WT2  1122 TIP3 H1   HT     0.417000        1.0080           0
   27703 WT2  1122 TIP3 H2   HT     0.417000        1.0080           0
   27704 WT2  1123 TIP3 OH2  OT    -0.834000       15.9994           0
   27705 WT2  1123 TIP3 H1   HT     0.417000        1.0080           0
   27706 WT2  1123 TIP3 H2   HT     0.417000        1.0080           0
   27707 WT2  1124 TIP3 OH2  OT    -0.834000       15.9994           0
   27708 WT2  1124 TIP3 H1   HT     0.417000        1.0080           0
   27709 WT2  1124 TIP3 H2   HT     0.417000        1.0080           0
   27710 WT2  1125 TIP3 OH2  OT    -0.834000       15.9994           0
   27711 WT2  1125 TIP3 H1   HT     0.417000        1.0080           0
   27712 WT2  1125 TIP3 H2   HT     0.417000        1.0080           0
   27713 WT2  1127 TIP3 OH2  OT    -0.834000       15.9994           0
   27714 WT2  1127 TIP3 H1   HT     0.417000        1.0080           0
   27715 WT2  1127 TIP3 H2   HT     0.417000        1.0080           0
   27716 WT2  1129 TIP3 OH2  OT    -0.834000       15.9994           0
   27717 WT2  1129 TIP3 H1   HT     0.417000        1.0080           0
   27718 WT2  1129 TIP3 H2   HT     0.417000        1.0080           0
   27719 WT2  1131 TIP3 OH2  OT    -0.834000       15.9994           0
   27720 WT2  1131 TIP3 H1   HT     0.417000        1.0080           0
   27721 WT2  1131 TIP3 H2   HT     0.417000        1.0080           0
   27722 WT2  1132 TIP3 OH2  OT    -0.834000       15.9994           0
   27723 WT2  1132 TIP3 H1   HT     0.417000        1.0080           0
   27724 WT2  1132 TIP3 H2   HT     0.417000        1.0080           0
   27725 WT2  1133 TIP3 OH2  OT    -0.834000       15.9994           0
   27726 WT2  1133 TIP3 H1   HT     0.417000        1.0080           0
   27727 WT2  1133 TIP3 H2   HT     0.417000        1.0080           0
   27728 WT2  1134 TIP3 OH2  OT    -0.834000       15.9994           0
   27729 WT2  1134 TIP3 H1   HT     0.417000        1.0080           0
   27730 WT2  1134 TIP3 H2   HT     0.417000        1.0080           0
   27731 WT2  1135 TIP3 OH2  OT    -0.834000       15.9994           0
   27732 WT2  1135 TIP3 H1   HT     0.417000        1.0080           0
   27733 WT2  1135 TIP3 H2   HT     0.417000        1.0080           0
   27734 WT2  1136 TIP3 OH2  OT    -0.834000       15.9994           0
   27735 WT2  1136 TIP3 H1   HT     0.417000        1.0080           0
   27736 WT2  1136 TIP3 H2   HT     0.417000        1.0080           0
   27737 WT2  1137 TIP3 OH2  OT    -0.834000       15.9994           0
   27738 WT2  1137 TIP3 H1   HT     0.417000        1.0080           0
   27739 WT2  1137 TIP3 H2   HT     0.417000        1.0080           0
   27740 WT2  1139 TIP3 OH2  OT    -0.834000       15.9994           0
   27741 WT2  1139 TIP3 H1   HT     0.417000        1.0080           0
   27742 WT2  1139 TIP3 H2   HT     0.417000        1.0080           0
   27743 WT2  1140 TIP3 OH2  OT    -0.834000       15.9994           0
   27744 WT2  1140 TIP3 H1   HT     0.417000        1.0080           0
   27745 WT2  1140 TIP3 H2   HT     0.417000        1.0080           0
   27746 WT2  1141 TIP3 OH2  OT    -0.834000       15.9994           0
   27747 WT2  1141 TIP3 H1   HT     0.417000        1.0080           0
   27748 WT2  1141 TIP3 H2   HT     0.417000        1.0080           0
   27749 WT2  1143 TIP3 OH2  OT    -0.834000       15.9994           0
   27750 WT2  1143 TIP3 H1   HT     0.417000        1.0080           0
   27751 WT2  1143 TIP3 H2   HT     0.417000        1.0080           0
   27752 WT2  1144 TIP3 OH2  OT    -0.834000       15.9994           0
   27753 WT2  1144 TIP3 H1   HT     0.417000        1.0080           0
   27754 WT2  1144 TIP3 H2   HT     0.417000        1.0080           0
   27755 WT2  1145 TIP3 OH2  OT    -0.834000       15.9994           0
   27756 WT2  1145 TIP3 H1   HT     0.417000        1.0080           0
   27757 WT2  1145 TIP3 H2   HT     0.417000        1.0080           0
   27758 WT2  1146 TIP3 OH2  OT    -0.834000       15.9994           0
   27759 WT2  1146 TIP3 H1   HT     0.417000        1.0080           0
   27760 WT2  1146 TIP3 H2   HT     0.417000        1.0080           0
   27761 WT2  1147 TIP3 OH2  OT    -0.834000       15.9994           0
   27762 WT2  1147 TIP3 H1   HT     0.417000        1.0080           0
   27763 WT2  1147 TIP3 H2   HT     0.417000        1.0080           0
   27764 WT2  1148 TIP3 OH2  OT    -0.834000       15.9994           0
   27765 WT2  1148 TIP3 H1   HT     0.417000        1.0080           0
   27766 WT2  1148 TIP3 H2   HT     0.417000        1.0080           0
   27767 WT2  1149 TIP3 OH2  OT    -0.834000       15.9994           0
   27768 WT2  1149 TIP3 H1   HT     0.417000        1.0080           0
   27769 WT2  1149 TIP3 H2   HT     0.417000        1.0080           0
   27770 WT2  1150 TIP3 OH2  OT    -0.834000       15.9994           0
   27771 WT2  1150 TIP3 H1   HT     0.417000        1.0080           0
   27772 WT2  1150 TIP3 H2   HT     0.417000        1.0080           0
   27773 WT2  1153 TIP3 OH2  OT    -0.834000       15.9994           0
   27774 WT2  1153 TIP3 H1   HT     0.417000        1.0080           0
   27775 WT2  1153 TIP3 H2   HT     0.417000        1.0080           0
   27776 WT2  1154 TIP3 OH2  OT    -0.834000       15.9994           0
   27777 WT2  1154 TIP3 H1   HT     0.417000        1.0080           0
   27778 WT2  1154 TIP3 H2   HT     0.417000        1.0080           0
   27779 WT2  1155 TIP3 OH2  OT    -0.834000       15.9994           0
   27780 WT2  1155 TIP3 H1   HT     0.417000        1.0080           0
   27781 WT2  1155 TIP3 H2   HT     0.417000        1.0080           0
   27782 WT2  1156 TIP3 OH2  OT    -0.834000       15.9994           0
   27783 WT2  1156 TIP3 H1   HT     0.417000        1.0080           0
   27784 WT2  1156 TIP3 H2   HT     0.417000        1.0080           0
   27785 WT2  1158 TIP3 OH2  OT    -0.834000       15.9994           0
   27786 WT2  1158 TIP3 H1   HT     0.417000        1.0080           0
   27787 WT2  1158 TIP3 H2   HT     0.417000        1.0080           0
   27788 WT2  1159 TIP3 OH2  OT    -0.834000       15.9994           0
   27789 WT2  1159 TIP3 H1   HT     0.417000        1.0080           0
   27790 WT2  1159 TIP3 H2   HT     0.417000        1.0080           0
   27791 WT2  1160 TIP3 OH2  OT    -0.834000       15.9994           0
   27792 WT2  1160 TIP3 H1   HT     0.417000        1.0080           0
   27793 WT2  1160 TIP3 H2   HT     0.417000        1.0080           0
   27794 WT2  1161 TIP3 OH2  OT    -0.834000       15.9994           0
   27795 WT2  1161 TIP3 H1   HT     0.417000        1.0080           0
   27796 WT2  1161 TIP3 H2   HT     0.417000        1.0080           0
   27797 WT2  1162 TIP3 OH2  OT    -0.834000       15.9994           0
   27798 WT2  1162 TIP3 H1   HT     0.417000        1.0080           0
   27799 WT2  1162 TIP3 H2   HT     0.417000        1.0080           0
   27800 WT2  1163 TIP3 OH2  OT    -0.834000       15.9994           0
   27801 WT2  1163 TIP3 H1   HT     0.417000        1.0080           0
   27802 WT2  1163 TIP3 H2   HT     0.417000        1.0080           0
   27803 WT2  1164 TIP3 OH2  OT    -0.834000       15.9994           0
   27804 WT2  1164 TIP3 H1   HT     0.417000        1.0080           0
   27805 WT2  1164 TIP3 H2   HT     0.417000        1.0080           0
   27806 WT2  1166 TIP3 OH2  OT    -0.834000       15.9994           0
   27807 WT2  1166 TIP3 H1   HT     0.417000        1.0080           0
   27808 WT2  1166 TIP3 H2   HT     0.417000        1.0080           0
   27809 WT2  1168 TIP3 OH2  OT    -0.834000       15.9994           0
   27810 WT2  1168 TIP3 H1   HT     0.417000        1.0080           0
   27811 WT2  1168 TIP3 H2   HT     0.417000        1.0080           0
   27812 WT2  1169 TIP3 OH2  OT    -0.834000       15.9994           0
   27813 WT2  1169 TIP3 H1   HT     0.417000        1.0080           0
   27814 WT2  1169 TIP3 H2   HT     0.417000        1.0080           0
   27815 WT2  1170 TIP3 OH2  OT    -0.834000       15.9994           0
   27816 WT2  1170 TIP3 H1   HT     0.417000        1.0080           0
   27817 WT2  1170 TIP3 H2   HT     0.417000        1.0080           0
   27818 WT2  1171 TIP3 OH2  OT    -0.834000       15.9994           0
   27819 WT2  1171 TIP3 H1   HT     0.417000        1.0080           0
   27820 WT2  1171 TIP3 H2   HT     0.417000        1.0080           0
   27821 WT2  1172 TIP3 OH2  OT    -0.834000       15.9994           0
   27822 WT2  1172 TIP3 H1   HT     0.417000        1.0080           0
   27823 WT2  1172 TIP3 H2   HT     0.417000        1.0080           0
   27824 WT2  1173 TIP3 OH2  OT    -0.834000       15.9994           0
   27825 WT2  1173 TIP3 H1   HT     0.417000        1.0080           0
   27826 WT2  1173 TIP3 H2   HT     0.417000        1.0080           0
   27827 WT2  1174 TIP3 OH2  OT    -0.834000       15.9994           0
   27828 WT2  1174 TIP3 H1   HT     0.417000        1.0080           0
   27829 WT2  1174 TIP3 H2   HT     0.417000        1.0080           0
   27830 WT2  1175 TIP3 OH2  OT    -0.834000       15.9994           0
   27831 WT2  1175 TIP3 H1   HT     0.417000        1.0080           0
   27832 WT2  1175 TIP3 H2   HT     0.417000        1.0080           0
   27833 WT2  1176 TIP3 OH2  OT    -0.834000       15.9994           0
   27834 WT2  1176 TIP3 H1   HT     0.417000        1.0080           0
   27835 WT2  1176 TIP3 H2   HT     0.417000        1.0080           0
   27836 WT2  1177 TIP3 OH2  OT    -0.834000       15.9994           0
   27837 WT2  1177 TIP3 H1   HT     0.417000        1.0080           0
   27838 WT2  1177 TIP3 H2   HT     0.417000        1.0080           0
   27839 WT2  1178 TIP3 OH2  OT    -0.834000       15.9994           0
   27840 WT2  1178 TIP3 H1   HT     0.417000        1.0080           0
   27841 WT2  1178 TIP3 H2   HT     0.417000        1.0080           0
   27842 WT2  1179 TIP3 OH2  OT    -0.834000       15.9994           0
   27843 WT2  1179 TIP3 H1   HT     0.417000        1.0080           0
   27844 WT2  1179 TIP3 H2   HT     0.417000        1.0080           0
   27845 WT2  1180 TIP3 OH2  OT    -0.834000       15.9994           0
   27846 WT2  1180 TIP3 H1   HT     0.417000        1.0080           0
   27847 WT2  1180 TIP3 H2   HT     0.417000        1.0080           0
   27848 WT2  1181 TIP3 OH2  OT    -0.834000       15.9994           0
   27849 WT2  1181 TIP3 H1   HT     0.417000        1.0080           0
   27850 WT2  1181 TIP3 H2   HT     0.417000        1.0080           0
   27851 WT2  1182 TIP3 OH2  OT    -0.834000       15.9994           0
   27852 WT2  1182 TIP3 H1   HT     0.417000        1.0080           0
   27853 WT2  1182 TIP3 H2   HT     0.417000        1.0080           0
   27854 WT2  1183 TIP3 OH2  OT    -0.834000       15.9994           0
   27855 WT2  1183 TIP3 H1   HT     0.417000        1.0080           0
   27856 WT2  1183 TIP3 H2   HT     0.417000        1.0080           0
   27857 WT2  1184 TIP3 OH2  OT    -0.834000       15.9994           0
   27858 WT2  1184 TIP3 H1   HT     0.417000        1.0080           0
   27859 WT2  1184 TIP3 H2   HT     0.417000        1.0080           0
   27860 WT2  1185 TIP3 OH2  OT    -0.834000       15.9994           0
   27861 WT2  1185 TIP3 H1   HT     0.417000        1.0080           0
   27862 WT2  1185 TIP3 H2   HT     0.417000        1.0080           0
   27863 WT2  1186 TIP3 OH2  OT    -0.834000       15.9994           0
   27864 WT2  1186 TIP3 H1   HT     0.417000        1.0080           0
   27865 WT2  1186 TIP3 H2   HT     0.417000        1.0080           0
   27866 WT2  1187 TIP3 OH2  OT    -0.834000       15.9994           0
   27867 WT2  1187 TIP3 H1   HT     0.417000        1.0080           0
   27868 WT2  1187 TIP3 H2   HT     0.417000        1.0080           0
   27869 WT2  1188 TIP3 OH2  OT    -0.834000       15.9994           0
   27870 WT2  1188 TIP3 H1   HT     0.417000        1.0080           0
   27871 WT2  1188 TIP3 H2   HT     0.417000        1.0080           0
   27872 WT2  1189 TIP3 OH2  OT    -0.834000       15.9994           0
   27873 WT2  1189 TIP3 H1   HT     0.417000        1.0080           0
   27874 WT2  1189 TIP3 H2   HT     0.417000        1.0080           0
   27875 WT2  1190 TIP3 OH2  OT    -0.834000       15.9994           0
   27876 WT2  1190 TIP3 H1   HT     0.417000        1.0080           0
   27877 WT2  1190 TIP3 H2   HT     0.417000        1.0080           0
   27878 WT2  1191 TIP3 OH2  OT    -0.834000       15.9994           0
   27879 WT2  1191 TIP3 H1   HT     0.417000        1.0080           0
   27880 WT2  1191 TIP3 H2   HT     0.417000        1.0080           0
   27881 WT2  1192 TIP3 OH2  OT    -0.834000       15.9994           0
   27882 WT2  1192 TIP3 H1   HT     0.417000        1.0080           0
   27883 WT2  1192 TIP3 H2   HT     0.417000        1.0080           0
   27884 WT2  1193 TIP3 OH2  OT    -0.834000       15.9994           0
   27885 WT2  1193 TIP3 H1   HT     0.417000        1.0080           0
   27886 WT2  1193 TIP3 H2   HT     0.417000        1.0080           0
   27887 WT2  1194 TIP3 OH2  OT    -0.834000       15.9994           0
   27888 WT2  1194 TIP3 H1   HT     0.417000        1.0080           0
   27889 WT2  1194 TIP3 H2   HT     0.417000        1.0080           0
   27890 WT2  1195 TIP3 OH2  OT    -0.834000       15.9994           0
   27891 WT2  1195 TIP3 H1   HT     0.417000        1.0080           0
   27892 WT2  1195 TIP3 H2   HT     0.417000        1.0080           0
   27893 WT2  1196 TIP3 OH2  OT    -0.834000       15.9994           0
   27894 WT2  1196 TIP3 H1   HT     0.417000        1.0080           0
   27895 WT2  1196 TIP3 H2   HT     0.417000        1.0080           0
   27896 WT2  1198 TIP3 OH2  OT    -0.834000       15.9994           0
   27897 WT2  1198 TIP3 H1   HT     0.417000        1.0080           0
   27898 WT2  1198 TIP3 H2   HT     0.417000        1.0080           0
   27899 WT2  1199 TIP3 OH2  OT    -0.834000       15.9994           0
   27900 WT2  1199 TIP3 H1   HT     0.417000        1.0080           0
   27901 WT2  1199 TIP3 H2   HT     0.417000        1.0080           0
   27902 WT2  1201 TIP3 OH2  OT    -0.834000       15.9994           0
   27903 WT2  1201 TIP3 H1   HT     0.417000        1.0080           0
   27904 WT2  1201 TIP3 H2   HT     0.417000        1.0080           0
   27905 WT2  1202 TIP3 OH2  OT    -0.834000       15.9994           0
   27906 WT2  1202 TIP3 H1   HT     0.417000        1.0080           0
   27907 WT2  1202 TIP3 H2   HT     0.417000        1.0080           0
   27908 WT2  1203 TIP3 OH2  OT    -0.834000       15.9994           0
   27909 WT2  1203 TIP3 H1   HT     0.417000        1.0080           0
   27910 WT2  1203 TIP3 H2   HT     0.417000        1.0080           0
   27911 WT2  1204 TIP3 OH2  OT    -0.834000       15.9994           0
   27912 WT2  1204 TIP3 H1   HT     0.417000        1.0080           0
   27913 WT2  1204 TIP3 H2   HT     0.417000        1.0080           0
   27914 WT2  1205 TIP3 OH2  OT    -0.834000       15.9994           0
   27915 WT2  1205 TIP3 H1   HT     0.417000        1.0080           0
   27916 WT2  1205 TIP3 H2   HT     0.417000        1.0080           0
   27917 WT2  1206 TIP3 OH2  OT    -0.834000       15.9994           0
   27918 WT2  1206 TIP3 H1   HT     0.417000        1.0080           0
   27919 WT2  1206 TIP3 H2   HT     0.417000        1.0080           0
   27920 WT2  1208 TIP3 OH2  OT    -0.834000       15.9994           0
   27921 WT2  1208 TIP3 H1   HT     0.417000        1.0080           0
   27922 WT2  1208 TIP3 H2   HT     0.417000        1.0080           0
   27923 WT2  1209 TIP3 OH2  OT    -0.834000       15.9994           0
   27924 WT2  1209 TIP3 H1   HT     0.417000        1.0080           0
   27925 WT2  1209 TIP3 H2   HT     0.417000        1.0080           0
   27926 WT2  1210 TIP3 OH2  OT    -0.834000       15.9994           0
   27927 WT2  1210 TIP3 H1   HT     0.417000        1.0080           0
   27928 WT2  1210 TIP3 H2   HT     0.417000        1.0080           0
   27929 WT2  1211 TIP3 OH2  OT    -0.834000       15.9994           0
   27930 WT2  1211 TIP3 H1   HT     0.417000        1.0080           0
   27931 WT2  1211 TIP3 H2   HT     0.417000        1.0080           0
   27932 WT2  1212 TIP3 OH2  OT    -0.834000       15.9994           0
   27933 WT2  1212 TIP3 H1   HT     0.417000        1.0080           0
   27934 WT2  1212 TIP3 H2   HT     0.417000        1.0080           0
   27935 WT2  1213 TIP3 OH2  OT    -0.834000       15.9994           0
   27936 WT2  1213 TIP3 H1   HT     0.417000        1.0080           0
   27937 WT2  1213 TIP3 H2   HT     0.417000        1.0080           0
   27938 WT2  1214 TIP3 OH2  OT    -0.834000       15.9994           0
   27939 WT2  1214 TIP3 H1   HT     0.417000        1.0080           0
   27940 WT2  1214 TIP3 H2   HT     0.417000        1.0080           0
   27941 WT2  1215 TIP3 OH2  OT    -0.834000       15.9994           0
   27942 WT2  1215 TIP3 H1   HT     0.417000        1.0080           0
   27943 WT2  1215 TIP3 H2   HT     0.417000        1.0080           0
   27944 WT2  1216 TIP3 OH2  OT    -0.834000       15.9994           0
   27945 WT2  1216 TIP3 H1   HT     0.417000        1.0080           0
   27946 WT2  1216 TIP3 H2   HT     0.417000        1.0080           0
   27947 WT2  1217 TIP3 OH2  OT    -0.834000       15.9994           0
   27948 WT2  1217 TIP3 H1   HT     0.417000        1.0080           0
   27949 WT2  1217 TIP3 H2   HT     0.417000        1.0080           0
   27950 WT2  1218 TIP3 OH2  OT    -0.834000       15.9994           0
   27951 WT2  1218 TIP3 H1   HT     0.417000        1.0080           0
   27952 WT2  1218 TIP3 H2   HT     0.417000        1.0080           0
   27953 WT2  1219 TIP3 OH2  OT    -0.834000       15.9994           0
   27954 WT2  1219 TIP3 H1   HT     0.417000        1.0080           0
   27955 WT2  1219 TIP3 H2   HT     0.417000        1.0080           0
   27956 WT2  1220 TIP3 OH2  OT    -0.834000       15.9994           0
   27957 WT2  1220 TIP3 H1   HT     0.417000        1.0080           0
   27958 WT2  1220 TIP3 H2   HT     0.417000        1.0080           0
   27959 WT2  1221 TIP3 OH2  OT    -0.834000       15.9994           0
   27960 WT2  1221 TIP3 H1   HT     0.417000        1.0080           0
   27961 WT2  1221 TIP3 H2   HT     0.417000        1.0080           0
   27962 WT2  1222 TIP3 OH2  OT    -0.834000       15.9994           0
   27963 WT2  1222 TIP3 H1   HT     0.417000        1.0080           0
   27964 WT2  1222 TIP3 H2   HT     0.417000        1.0080           0
   27965 WT2  1223 TIP3 OH2  OT    -0.834000       15.9994           0
   27966 WT2  1223 TIP3 H1   HT     0.417000        1.0080           0
   27967 WT2  1223 TIP3 H2   HT     0.417000        1.0080           0
   27968 WT2  1224 TIP3 OH2  OT    -0.834000       15.9994           0
   27969 WT2  1224 TIP3 H1   HT     0.417000        1.0080           0
   27970 WT2  1224 TIP3 H2   HT     0.417000        1.0080           0
   27971 WT2  1226 TIP3 OH2  OT    -0.834000       15.9994           0
   27972 WT2  1226 TIP3 H1   HT     0.417000        1.0080           0
   27973 WT2  1226 TIP3 H2   HT     0.417000        1.0080           0
   27974 WT2  1227 TIP3 OH2  OT    -0.834000       15.9994           0
   27975 WT2  1227 TIP3 H1   HT     0.417000        1.0080           0
   27976 WT2  1227 TIP3 H2   HT     0.417000        1.0080           0
   27977 WT2  1228 TIP3 OH2  OT    -0.834000       15.9994           0
   27978 WT2  1228 TIP3 H1   HT     0.417000        1.0080           0
   27979 WT2  1228 TIP3 H2   HT     0.417000        1.0080           0
   27980 WT2  1229 TIP3 OH2  OT    -0.834000       15.9994           0
   27981 WT2  1229 TIP3 H1   HT     0.417000        1.0080           0
   27982 WT2  1229 TIP3 H2   HT     0.417000        1.0080           0
   27983 WT2  1230 TIP3 OH2  OT    -0.834000       15.9994           0
   27984 WT2  1230 TIP3 H1   HT     0.417000        1.0080           0
   27985 WT2  1230 TIP3 H2   HT     0.417000        1.0080           0
   27986 WT2  1231 TIP3 OH2  OT    -0.834000       15.9994           0
   27987 WT2  1231 TIP3 H1   HT     0.417000        1.0080           0
   27988 WT2  1231 TIP3 H2   HT     0.417000        1.0080           0
   27989 WT2  1232 TIP3 OH2  OT    -0.834000       15.9994           0
   27990 WT2  1232 TIP3 H1   HT     0.417000        1.0080           0
   27991 WT2  1232 TIP3 H2   HT     0.417000        1.0080           0
   27992 WT2  1233 TIP3 OH2  OT    -0.834000       15.9994           0
   27993 WT2  1233 TIP3 H1   HT     0.417000        1.0080           0
   27994 WT2  1233 TIP3 H2   HT     0.417000        1.0080           0
   27995 WT2  1234 TIP3 OH2  OT    -0.834000       15.9994           0
   27996 WT2  1234 TIP3 H1   HT     0.417000        1.0080           0
   27997 WT2  1234 TIP3 H2   HT     0.417000        1.0080           0
   27998 WT2  1235 TIP3 OH2  OT    -0.834000       15.9994           0
   27999 WT2  1235 TIP3 H1   HT     0.417000        1.0080           0
   28000 WT2  1235 TIP3 H2   HT     0.417000        1.0080           0
   28001 WT2  1236 TIP3 OH2  OT    -0.834000       15.9994           0
   28002 WT2  1236 TIP3 H1   HT     0.417000        1.0080           0
   28003 WT2  1236 TIP3 H2   HT     0.417000        1.0080           0
   28004 WT2  1237 TIP3 OH2  OT    -0.834000       15.9994           0
   28005 WT2  1237 TIP3 H1   HT     0.417000        1.0080           0
   28006 WT2  1237 TIP3 H2   HT     0.417000        1.0080           0
   28007 WT2  1238 TIP3 OH2  OT    -0.834000       15.9994           0
   28008 WT2  1238 TIP3 H1   HT     0.417000        1.0080           0
   28009 WT2  1238 TIP3 H2   HT     0.417000        1.0080           0
   28010 WT2  1239 TIP3 OH2  OT    -0.834000       15.9994           0
   28011 WT2  1239 TIP3 H1   HT     0.417000        1.0080           0
   28012 WT2  1239 TIP3 H2   HT     0.417000        1.0080           0
   28013 WT2  1240 TIP3 OH2  OT    -0.834000       15.9994           0
   28014 WT2  1240 TIP3 H1   HT     0.417000        1.0080           0
   28015 WT2  1240 TIP3 H2   HT     0.417000        1.0080           0
   28016 WT2  1241 TIP3 OH2  OT    -0.834000       15.9994           0
   28017 WT2  1241 TIP3 H1   HT     0.417000        1.0080           0
   28018 WT2  1241 TIP3 H2   HT     0.417000        1.0080           0
   28019 WT2  1242 TIP3 OH2  OT    -0.834000       15.9994           0
   28020 WT2  1242 TIP3 H1   HT     0.417000        1.0080           0
   28021 WT2  1242 TIP3 H2   HT     0.417000        1.0080           0
   28022 WT2  1243 TIP3 OH2  OT    -0.834000       15.9994           0
   28023 WT2  1243 TIP3 H1   HT     0.417000        1.0080           0
   28024 WT2  1243 TIP3 H2   HT     0.417000        1.0080           0
   28025 WT2  1244 TIP3 OH2  OT    -0.834000       15.9994           0
   28026 WT2  1244 TIP3 H1   HT     0.417000        1.0080           0
   28027 WT2  1244 TIP3 H2   HT     0.417000        1.0080           0
   28028 WT2  1245 TIP3 OH2  OT    -0.834000       15.9994           0
   28029 WT2  1245 TIP3 H1   HT     0.417000        1.0080           0
   28030 WT2  1245 TIP3 H2   HT     0.417000        1.0080           0
   28031 WT2  1246 TIP3 OH2  OT    -0.834000       15.9994           0
   28032 WT2  1246 TIP3 H1   HT     0.417000        1.0080           0
   28033 WT2  1246 TIP3 H2   HT     0.417000        1.0080           0
   28034 WT2  1247 TIP3 OH2  OT    -0.834000       15.9994           0
   28035 WT2  1247 TIP3 H1   HT     0.417000        1.0080           0
   28036 WT2  1247 TIP3 H2   HT     0.417000        1.0080           0
   28037 WT2  1248 TIP3 OH2  OT    -0.834000       15.9994           0
   28038 WT2  1248 TIP3 H1   HT     0.417000        1.0080           0
   28039 WT2  1248 TIP3 H2   HT     0.417000        1.0080           0
   28040 WT2  1249 TIP3 OH2  OT    -0.834000       15.9994           0
   28041 WT2  1249 TIP3 H1   HT     0.417000        1.0080           0
   28042 WT2  1249 TIP3 H2   HT     0.417000        1.0080           0
   28043 WT2  1250 TIP3 OH2  OT    -0.834000       15.9994           0
   28044 WT2  1250 TIP3 H1   HT     0.417000        1.0080           0
   28045 WT2  1250 TIP3 H2   HT     0.417000        1.0080           0
   28046 WT2  1251 TIP3 OH2  OT    -0.834000       15.9994           0
   28047 WT2  1251 TIP3 H1   HT     0.417000        1.0080           0
   28048 WT2  1251 TIP3 H2   HT     0.417000        1.0080           0
   28049 WT2  1254 TIP3 OH2  OT    -0.834000       15.9994           0
   28050 WT2  1254 TIP3 H1   HT     0.417000        1.0080           0
   28051 WT2  1254 TIP3 H2   HT     0.417000        1.0080           0
   28052 WT2  1255 TIP3 OH2  OT    -0.834000       15.9994           0
   28053 WT2  1255 TIP3 H1   HT     0.417000        1.0080           0
   28054 WT2  1255 TIP3 H2   HT     0.417000        1.0080           0
   28055 WT2  1256 TIP3 OH2  OT    -0.834000       15.9994           0
   28056 WT2  1256 TIP3 H1   HT     0.417000        1.0080           0
   28057 WT2  1256 TIP3 H2   HT     0.417000        1.0080           0
   28058 WT2  1257 TIP3 OH2  OT    -0.834000       15.9994           0
   28059 WT2  1257 TIP3 H1   HT     0.417000        1.0080           0
   28060 WT2  1257 TIP3 H2   HT     0.417000        1.0080           0
   28061 WT2  1258 TIP3 OH2  OT    -0.834000       15.9994           0
   28062 WT2  1258 TIP3 H1   HT     0.417000        1.0080           0
   28063 WT2  1258 TIP3 H2   HT     0.417000        1.0080           0
   28064 WT2  1259 TIP3 OH2  OT    -0.834000       15.9994           0
   28065 WT2  1259 TIP3 H1   HT     0.417000        1.0080           0
   28066 WT2  1259 TIP3 H2   HT     0.417000        1.0080           0
   28067 WT2  1260 TIP3 OH2  OT    -0.834000       15.9994           0
   28068 WT2  1260 TIP3 H1   HT     0.417000        1.0080           0
   28069 WT2  1260 TIP3 H2   HT     0.417000        1.0080           0
   28070 WT2  1261 TIP3 OH2  OT    -0.834000       15.9994           0
   28071 WT2  1261 TIP3 H1   HT     0.417000        1.0080           0
   28072 WT2  1261 TIP3 H2   HT     0.417000        1.0080           0
   28073 WT2  1262 TIP3 OH2  OT    -0.834000       15.9994           0
   28074 WT2  1262 TIP3 H1   HT     0.417000        1.0080           0
   28075 WT2  1262 TIP3 H2   HT     0.417000        1.0080           0
   28076 WT2  1263 TIP3 OH2  OT    -0.834000       15.9994           0
   28077 WT2  1263 TIP3 H1   HT     0.417000        1.0080           0
   28078 WT2  1263 TIP3 H2   HT     0.417000        1.0080           0
   28079 WT2  1265 TIP3 OH2  OT    -0.834000       15.9994           0
   28080 WT2  1265 TIP3 H1   HT     0.417000        1.0080           0
   28081 WT2  1265 TIP3 H2   HT     0.417000        1.0080           0
   28082 WT2  1266 TIP3 OH2  OT    -0.834000       15.9994           0
   28083 WT2  1266 TIP3 H1   HT     0.417000        1.0080           0
   28084 WT2  1266 TIP3 H2   HT     0.417000        1.0080           0
   28085 WT2  1267 TIP3 OH2  OT    -0.834000       15.9994           0
   28086 WT2  1267 TIP3 H1   HT     0.417000        1.0080           0
   28087 WT2  1267 TIP3 H2   HT     0.417000        1.0080           0
   28088 WT2  1268 TIP3 OH2  OT    -0.834000       15.9994           0
   28089 WT2  1268 TIP3 H1   HT     0.417000        1.0080           0
   28090 WT2  1268 TIP3 H2   HT     0.417000        1.0080           0
   28091 WT2  1269 TIP3 OH2  OT    -0.834000       15.9994           0
   28092 WT2  1269 TIP3 H1   HT     0.417000        1.0080           0
   28093 WT2  1269 TIP3 H2   HT     0.417000        1.0080           0
   28094 WT2  1270 TIP3 OH2  OT    -0.834000       15.9994           0
   28095 WT2  1270 TIP3 H1   HT     0.417000        1.0080           0
   28096 WT2  1270 TIP3 H2   HT     0.417000        1.0080           0
   28097 WT2  1271 TIP3 OH2  OT    -0.834000       15.9994           0
   28098 WT2  1271 TIP3 H1   HT     0.417000        1.0080           0
   28099 WT2  1271 TIP3 H2   HT     0.417000        1.0080           0
   28100 WT2  1272 TIP3 OH2  OT    -0.834000       15.9994           0
   28101 WT2  1272 TIP3 H1   HT     0.417000        1.0080           0
   28102 WT2  1272 TIP3 H2   HT     0.417000        1.0080           0
   28103 WT2  1273 TIP3 OH2  OT    -0.834000       15.9994           0
   28104 WT2  1273 TIP3 H1   HT     0.417000        1.0080           0
   28105 WT2  1273 TIP3 H2   HT     0.417000        1.0080           0
   28106 WT2  1274 TIP3 OH2  OT    -0.834000       15.9994           0
   28107 WT2  1274 TIP3 H1   HT     0.417000        1.0080           0
   28108 WT2  1274 TIP3 H2   HT     0.417000        1.0080           0
   28109 WT2  1275 TIP3 OH2  OT    -0.834000       15.9994           0
   28110 WT2  1275 TIP3 H1   HT     0.417000        1.0080           0
   28111 WT2  1275 TIP3 H2   HT     0.417000        1.0080           0
   28112 WT2  1276 TIP3 OH2  OT    -0.834000       15.9994           0
   28113 WT2  1276 TIP3 H1   HT     0.417000        1.0080           0
   28114 WT2  1276 TIP3 H2   HT     0.417000        1.0080           0
   28115 WT2  1277 TIP3 OH2  OT    -0.834000       15.9994           0
   28116 WT2  1277 TIP3 H1   HT     0.417000        1.0080           0
   28117 WT2  1277 TIP3 H2   HT     0.417000        1.0080           0
   28118 WT2  1278 TIP3 OH2  OT    -0.834000       15.9994           0
   28119 WT2  1278 TIP3 H1   HT     0.417000        1.0080           0
   28120 WT2  1278 TIP3 H2   HT     0.417000        1.0080           0
   28121 WT2  1279 TIP3 OH2  OT    -0.834000       15.9994           0
   28122 WT2  1279 TIP3 H1   HT     0.417000        1.0080           0
   28123 WT2  1279 TIP3 H2   HT     0.417000        1.0080           0
   28124 WT2  1281 TIP3 OH2  OT    -0.834000       15.9994           0
   28125 WT2  1281 TIP3 H1   HT     0.417000        1.0080           0
   28126 WT2  1281 TIP3 H2   HT     0.417000        1.0080           0
   28127 WT2  1282 TIP3 OH2  OT    -0.834000       15.9994           0
   28128 WT2  1282 TIP3 H1   HT     0.417000        1.0080           0
   28129 WT2  1282 TIP3 H2   HT     0.417000        1.0080           0
   28130 WT2  1283 TIP3 OH2  OT    -0.834000       15.9994           0
   28131 WT2  1283 TIP3 H1   HT     0.417000        1.0080           0
   28132 WT2  1283 TIP3 H2   HT     0.417000        1.0080           0
   28133 WT2  1285 TIP3 OH2  OT    -0.834000       15.9994           0
   28134 WT2  1285 TIP3 H1   HT     0.417000        1.0080           0
   28135 WT2  1285 TIP3 H2   HT     0.417000        1.0080           0
   28136 WT2  1287 TIP3 OH2  OT    -0.834000       15.9994           0
   28137 WT2  1287 TIP3 H1   HT     0.417000        1.0080           0
   28138 WT2  1287 TIP3 H2   HT     0.417000        1.0080           0
   28139 WT2  1288 TIP3 OH2  OT    -0.834000       15.9994           0
   28140 WT2  1288 TIP3 H1   HT     0.417000        1.0080           0
   28141 WT2  1288 TIP3 H2   HT     0.417000        1.0080           0
   28142 WT2  1289 TIP3 OH2  OT    -0.834000       15.9994           0
   28143 WT2  1289 TIP3 H1   HT     0.417000        1.0080           0
   28144 WT2  1289 TIP3 H2   HT     0.417000        1.0080           0
   28145 WT2  1290 TIP3 OH2  OT    -0.834000       15.9994           0
   28146 WT2  1290 TIP3 H1   HT     0.417000        1.0080           0
   28147 WT2  1290 TIP3 H2   HT     0.417000        1.0080           0
   28148 WT2  1291 TIP3 OH2  OT    -0.834000       15.9994           0
   28149 WT2  1291 TIP3 H1   HT     0.417000        1.0080           0
   28150 WT2  1291 TIP3 H2   HT     0.417000        1.0080           0
   28151 WT2  1292 TIP3 OH2  OT    -0.834000       15.9994           0
   28152 WT2  1292 TIP3 H1   HT     0.417000        1.0080           0
   28153 WT2  1292 TIP3 H2   HT     0.417000        1.0080           0
   28154 WT2  1294 TIP3 OH2  OT    -0.834000       15.9994           0
   28155 WT2  1294 TIP3 H1   HT     0.417000        1.0080           0
   28156 WT2  1294 TIP3 H2   HT     0.417000        1.0080           0
   28157 WT2  1295 TIP3 OH2  OT    -0.834000       15.9994           0
   28158 WT2  1295 TIP3 H1   HT     0.417000        1.0080           0
   28159 WT2  1295 TIP3 H2   HT     0.417000        1.0080           0
   28160 WT2  1296 TIP3 OH2  OT    -0.834000       15.9994           0
   28161 WT2  1296 TIP3 H1   HT     0.417000        1.0080           0
   28162 WT2  1296 TIP3 H2   HT     0.417000        1.0080           0
   28163 WT2  1297 TIP3 OH2  OT    -0.834000       15.9994           0
   28164 WT2  1297 TIP3 H1   HT     0.417000        1.0080           0
   28165 WT2  1297 TIP3 H2   HT     0.417000        1.0080           0
   28166 WT2  1298 TIP3 OH2  OT    -0.834000       15.9994           0
   28167 WT2  1298 TIP3 H1   HT     0.417000        1.0080           0
   28168 WT2  1298 TIP3 H2   HT     0.417000        1.0080           0
   28169 WT2  1299 TIP3 OH2  OT    -0.834000       15.9994           0
   28170 WT2  1299 TIP3 H1   HT     0.417000        1.0080           0
   28171 WT2  1299 TIP3 H2   HT     0.417000        1.0080           0
   28172 WT2  1301 TIP3 OH2  OT    -0.834000       15.9994           0
   28173 WT2  1301 TIP3 H1   HT     0.417000        1.0080           0
   28174 WT2  1301 TIP3 H2   HT     0.417000        1.0080           0
   28175 WT2  1302 TIP3 OH2  OT    -0.834000       15.9994           0
   28176 WT2  1302 TIP3 H1   HT     0.417000        1.0080           0
   28177 WT2  1302 TIP3 H2   HT     0.417000        1.0080           0
   28178 WT2  1303 TIP3 OH2  OT    -0.834000       15.9994           0
   28179 WT2  1303 TIP3 H1   HT     0.417000        1.0080           0
   28180 WT2  1303 TIP3 H2   HT     0.417000        1.0080           0
   28181 WT2  1305 TIP3 OH2  OT    -0.834000       15.9994           0
   28182 WT2  1305 TIP3 H1   HT     0.417000        1.0080           0
   28183 WT2  1305 TIP3 H2   HT     0.417000        1.0080           0
   28184 WT2  1306 TIP3 OH2  OT    -0.834000       15.9994           0
   28185 WT2  1306 TIP3 H1   HT     0.417000        1.0080           0
   28186 WT2  1306 TIP3 H2   HT     0.417000        1.0080           0
   28187 WT2  1307 TIP3 OH2  OT    -0.834000       15.9994           0
   28188 WT2  1307 TIP3 H1   HT     0.417000        1.0080           0
   28189 WT2  1307 TIP3 H2   HT     0.417000        1.0080           0
   28190 WT2  1308 TIP3 OH2  OT    -0.834000       15.9994           0
   28191 WT2  1308 TIP3 H1   HT     0.417000        1.0080           0
   28192 WT2  1308 TIP3 H2   HT     0.417000        1.0080           0
   28193 WT2  1309 TIP3 OH2  OT    -0.834000       15.9994           0
   28194 WT2  1309 TIP3 H1   HT     0.417000        1.0080           0
   28195 WT2  1309 TIP3 H2   HT     0.417000        1.0080           0
   28196 WT2  1311 TIP3 OH2  OT    -0.834000       15.9994           0
   28197 WT2  1311 TIP3 H1   HT     0.417000        1.0080           0
   28198 WT2  1311 TIP3 H2   HT     0.417000        1.0080           0
   28199 WT2  1312 TIP3 OH2  OT    -0.834000       15.9994           0
   28200 WT2  1312 TIP3 H1   HT     0.417000        1.0080           0
   28201 WT2  1312 TIP3 H2   HT     0.417000        1.0080           0
   28202 WT2  1314 TIP3 OH2  OT    -0.834000       15.9994           0
   28203 WT2  1314 TIP3 H1   HT     0.417000        1.0080           0
   28204 WT2  1314 TIP3 H2   HT     0.417000        1.0080           0
   28205 WT2  1316 TIP3 OH2  OT    -0.834000       15.9994           0
   28206 WT2  1316 TIP3 H1   HT     0.417000        1.0080           0
   28207 WT2  1316 TIP3 H2   HT     0.417000        1.0080           0
   28208 WT2  1317 TIP3 OH2  OT    -0.834000       15.9994           0
   28209 WT2  1317 TIP3 H1   HT     0.417000        1.0080           0
   28210 WT2  1317 TIP3 H2   HT     0.417000        1.0080           0
   28211 WT2  1321 TIP3 OH2  OT    -0.834000       15.9994           0
   28212 WT2  1321 TIP3 H1   HT     0.417000        1.0080           0
   28213 WT2  1321 TIP3 H2   HT     0.417000        1.0080           0
   28214 WT2  1322 TIP3 OH2  OT    -0.834000       15.9994           0
   28215 WT2  1322 TIP3 H1   HT     0.417000        1.0080           0
   28216 WT2  1322 TIP3 H2   HT     0.417000        1.0080           0
   28217 WT2  1323 TIP3 OH2  OT    -0.834000       15.9994           0
   28218 WT2  1323 TIP3 H1   HT     0.417000        1.0080           0
   28219 WT2  1323 TIP3 H2   HT     0.417000        1.0080           0
   28220 WT2  1324 TIP3 OH2  OT    -0.834000       15.9994           0
   28221 WT2  1324 TIP3 H1   HT     0.417000        1.0080           0
   28222 WT2  1324 TIP3 H2   HT     0.417000        1.0080           0
   28223 WT2  1325 TIP3 OH2  OT    -0.834000       15.9994           0
   28224 WT2  1325 TIP3 H1   HT     0.417000        1.0080           0
   28225 WT2  1325 TIP3 H2   HT     0.417000        1.0080           0
   28226 WT2  1326 TIP3 OH2  OT    -0.834000       15.9994           0
   28227 WT2  1326 TIP3 H1   HT     0.417000        1.0080           0
   28228 WT2  1326 TIP3 H2   HT     0.417000        1.0080           0
   28229 WT2  1327 TIP3 OH2  OT    -0.834000       15.9994           0
   28230 WT2  1327 TIP3 H1   HT     0.417000        1.0080           0
   28231 WT2  1327 TIP3 H2   HT     0.417000        1.0080           0
   28232 WT2  1328 TIP3 OH2  OT    -0.834000       15.9994           0
   28233 WT2  1328 TIP3 H1   HT     0.417000        1.0080           0
   28234 WT2  1328 TIP3 H2   HT     0.417000        1.0080           0
   28235 WT2  1329 TIP3 OH2  OT    -0.834000       15.9994           0
   28236 WT2  1329 TIP3 H1   HT     0.417000        1.0080           0
   28237 WT2  1329 TIP3 H2   HT     0.417000        1.0080           0
   28238 WT2  1330 TIP3 OH2  OT    -0.834000       15.9994           0
   28239 WT2  1330 TIP3 H1   HT     0.417000        1.0080           0
   28240 WT2  1330 TIP3 H2   HT     0.417000        1.0080           0
   28241 WT2  1332 TIP3 OH2  OT    -0.834000       15.9994           0
   28242 WT2  1332 TIP3 H1   HT     0.417000        1.0080           0
   28243 WT2  1332 TIP3 H2   HT     0.417000        1.0080           0
   28244 WT2  1333 TIP3 OH2  OT    -0.834000       15.9994           0
   28245 WT2  1333 TIP3 H1   HT     0.417000        1.0080           0
   28246 WT2  1333 TIP3 H2   HT     0.417000        1.0080           0
   28247 WT2  1334 TIP3 OH2  OT    -0.834000       15.9994           0
   28248 WT2  1334 TIP3 H1   HT     0.417000        1.0080           0
   28249 WT2  1334 TIP3 H2   HT     0.417000        1.0080           0
   28250 WT2  1335 TIP3 OH2  OT    -0.834000       15.9994           0
   28251 WT2  1335 TIP3 H1   HT     0.417000        1.0080           0
   28252 WT2  1335 TIP3 H2   HT     0.417000        1.0080           0
   28253 WT2  1336 TIP3 OH2  OT    -0.834000       15.9994           0
   28254 WT2  1336 TIP3 H1   HT     0.417000        1.0080           0
   28255 WT2  1336 TIP3 H2   HT     0.417000        1.0080           0
   28256 WT2  1337 TIP3 OH2  OT    -0.834000       15.9994           0
   28257 WT2  1337 TIP3 H1   HT     0.417000        1.0080           0
   28258 WT2  1337 TIP3 H2   HT     0.417000        1.0080           0
   28259 WT2  1338 TIP3 OH2  OT    -0.834000       15.9994           0
   28260 WT2  1338 TIP3 H1   HT     0.417000        1.0080           0
   28261 WT2  1338 TIP3 H2   HT     0.417000        1.0080           0
   28262 WT2  1340 TIP3 OH2  OT    -0.834000       15.9994           0
   28263 WT2  1340 TIP3 H1   HT     0.417000        1.0080           0
   28264 WT2  1340 TIP3 H2   HT     0.417000        1.0080           0
   28265 WT2  1342 TIP3 OH2  OT    -0.834000       15.9994           0
   28266 WT2  1342 TIP3 H1   HT     0.417000        1.0080           0
   28267 WT2  1342 TIP3 H2   HT     0.417000        1.0080           0
   28268 WT2  1343 TIP3 OH2  OT    -0.834000       15.9994           0
   28269 WT2  1343 TIP3 H1   HT     0.417000        1.0080           0
   28270 WT2  1343 TIP3 H2   HT     0.417000        1.0080           0
   28271 WT2  1344 TIP3 OH2  OT    -0.834000       15.9994           0
   28272 WT2  1344 TIP3 H1   HT     0.417000        1.0080           0
   28273 WT2  1344 TIP3 H2   HT     0.417000        1.0080           0
   28274 WT2  1345 TIP3 OH2  OT    -0.834000       15.9994           0
   28275 WT2  1345 TIP3 H1   HT     0.417000        1.0080           0
   28276 WT2  1345 TIP3 H2   HT     0.417000        1.0080           0
   28277 WT2  1346 TIP3 OH2  OT    -0.834000       15.9994           0
   28278 WT2  1346 TIP3 H1   HT     0.417000        1.0080           0
   28279 WT2  1346 TIP3 H2   HT     0.417000        1.0080           0
   28280 WT2  1347 TIP3 OH2  OT    -0.834000       15.9994           0
   28281 WT2  1347 TIP3 H1   HT     0.417000        1.0080           0
   28282 WT2  1347 TIP3 H2   HT     0.417000        1.0080           0
   28283 WT2  1348 TIP3 OH2  OT    -0.834000       15.9994           0
   28284 WT2  1348 TIP3 H1   HT     0.417000        1.0080           0
   28285 WT2  1348 TIP3 H2   HT     0.417000        1.0080           0
   28286 WT2  1349 TIP3 OH2  OT    -0.834000       15.9994           0
   28287 WT2  1349 TIP3 H1   HT     0.417000        1.0080           0
   28288 WT2  1349 TIP3 H2   HT     0.417000        1.0080           0
   28289 WT2  1350 TIP3 OH2  OT    -0.834000       15.9994           0
   28290 WT2  1350 TIP3 H1   HT     0.417000        1.0080           0
   28291 WT2  1350 TIP3 H2   HT     0.417000        1.0080           0
   28292 WT2  1351 TIP3 OH2  OT    -0.834000       15.9994           0
   28293 WT2  1351 TIP3 H1   HT     0.417000        1.0080           0
   28294 WT2  1351 TIP3 H2   HT     0.417000        1.0080           0
   28295 WT2  1352 TIP3 OH2  OT    -0.834000       15.9994           0
   28296 WT2  1352 TIP3 H1   HT     0.417000        1.0080           0
   28297 WT2  1352 TIP3 H2   HT     0.417000        1.0080           0
   28298 WT2  1353 TIP3 OH2  OT    -0.834000       15.9994           0
   28299 WT2  1353 TIP3 H1   HT     0.417000        1.0080           0
   28300 WT2  1353 TIP3 H2   HT     0.417000        1.0080           0
   28301 WT2  1356 TIP3 OH2  OT    -0.834000       15.9994           0
   28302 WT2  1356 TIP3 H1   HT     0.417000        1.0080           0
   28303 WT2  1356 TIP3 H2   HT     0.417000        1.0080           0
   28304 WT2  1358 TIP3 OH2  OT    -0.834000       15.9994           0
   28305 WT2  1358 TIP3 H1   HT     0.417000        1.0080           0
   28306 WT2  1358 TIP3 H2   HT     0.417000        1.0080           0
   28307 WT2  1359 TIP3 OH2  OT    -0.834000       15.9994           0
   28308 WT2  1359 TIP3 H1   HT     0.417000        1.0080           0
   28309 WT2  1359 TIP3 H2   HT     0.417000        1.0080           0
   28310 WT2  1360 TIP3 OH2  OT    -0.834000       15.9994           0
   28311 WT2  1360 TIP3 H1   HT     0.417000        1.0080           0
   28312 WT2  1360 TIP3 H2   HT     0.417000        1.0080           0
   28313 WT2  1362 TIP3 OH2  OT    -0.834000       15.9994           0
   28314 WT2  1362 TIP3 H1   HT     0.417000        1.0080           0
   28315 WT2  1362 TIP3 H2   HT     0.417000        1.0080           0
   28316 WT2  1363 TIP3 OH2  OT    -0.834000       15.9994           0
   28317 WT2  1363 TIP3 H1   HT     0.417000        1.0080           0
   28318 WT2  1363 TIP3 H2   HT     0.417000        1.0080           0
   28319 WT2  1364 TIP3 OH2  OT    -0.834000       15.9994           0
   28320 WT2  1364 TIP3 H1   HT     0.417000        1.0080           0
   28321 WT2  1364 TIP3 H2   HT     0.417000        1.0080           0
   28322 WT2  1365 TIP3 OH2  OT    -0.834000       15.9994           0
   28323 WT2  1365 TIP3 H1   HT     0.417000        1.0080           0
   28324 WT2  1365 TIP3 H2   HT     0.417000        1.0080           0
   28325 WT2  1366 TIP3 OH2  OT    -0.834000       15.9994           0
   28326 WT2  1366 TIP3 H1   HT     0.417000        1.0080           0
   28327 WT2  1366 TIP3 H2   HT     0.417000        1.0080           0
   28328 WT2  1367 TIP3 OH2  OT    -0.834000       15.9994           0
   28329 WT2  1367 TIP3 H1   HT     0.417000        1.0080           0
   28330 WT2  1367 TIP3 H2   HT     0.417000        1.0080           0
   28331 WT2  1368 TIP3 OH2  OT    -0.834000       15.9994           0
   28332 WT2  1368 TIP3 H1   HT     0.417000        1.0080           0
   28333 WT2  1368 TIP3 H2   HT     0.417000        1.0080           0
   28334 WT2  1370 TIP3 OH2  OT    -0.834000       15.9994           0
   28335 WT2  1370 TIP3 H1   HT     0.417000        1.0080           0
   28336 WT2  1370 TIP3 H2   HT     0.417000        1.0080           0
   28337 WT2  1371 TIP3 OH2  OT    -0.834000       15.9994           0
   28338 WT2  1371 TIP3 H1   HT     0.417000        1.0080           0
   28339 WT2  1371 TIP3 H2   HT     0.417000        1.0080           0
   28340 WT2  1372 TIP3 OH2  OT    -0.834000       15.9994           0
   28341 WT2  1372 TIP3 H1   HT     0.417000        1.0080           0
   28342 WT2  1372 TIP3 H2   HT     0.417000        1.0080           0
   28343 WT2  1373 TIP3 OH2  OT    -0.834000       15.9994           0
   28344 WT2  1373 TIP3 H1   HT     0.417000        1.0080           0
   28345 WT2  1373 TIP3 H2   HT     0.417000        1.0080           0
   28346 WT2  1375 TIP3 OH2  OT    -0.834000       15.9994           0
   28347 WT2  1375 TIP3 H1   HT     0.417000        1.0080           0
   28348 WT2  1375 TIP3 H2   HT     0.417000        1.0080           0
   28349 WT2  1376 TIP3 OH2  OT    -0.834000       15.9994           0
   28350 WT2  1376 TIP3 H1   HT     0.417000        1.0080           0
   28351 WT2  1376 TIP3 H2   HT     0.417000        1.0080           0
   28352 WT2  1377 TIP3 OH2  OT    -0.834000       15.9994           0
   28353 WT2  1377 TIP3 H1   HT     0.417000        1.0080           0
   28354 WT2  1377 TIP3 H2   HT     0.417000        1.0080           0
   28355 WT2  1379 TIP3 OH2  OT    -0.834000       15.9994           0
   28356 WT2  1379 TIP3 H1   HT     0.417000        1.0080           0
   28357 WT2  1379 TIP3 H2   HT     0.417000        1.0080           0
   28358 WT2  1380 TIP3 OH2  OT    -0.834000       15.9994           0
   28359 WT2  1380 TIP3 H1   HT     0.417000        1.0080           0
   28360 WT2  1380 TIP3 H2   HT     0.417000        1.0080           0
   28361 WT2  1382 TIP3 OH2  OT    -0.834000       15.9994           0
   28362 WT2  1382 TIP3 H1   HT     0.417000        1.0080           0
   28363 WT2  1382 TIP3 H2   HT     0.417000        1.0080           0
   28364 WT2  1383 TIP3 OH2  OT    -0.834000       15.9994           0
   28365 WT2  1383 TIP3 H1   HT     0.417000        1.0080           0
   28366 WT2  1383 TIP3 H2   HT     0.417000        1.0080           0
   28367 WT2  1384 TIP3 OH2  OT    -0.834000       15.9994           0
   28368 WT2  1384 TIP3 H1   HT     0.417000        1.0080           0
   28369 WT2  1384 TIP3 H2   HT     0.417000        1.0080           0
   28370 WT2  1385 TIP3 OH2  OT    -0.834000       15.9994           0
   28371 WT2  1385 TIP3 H1   HT     0.417000        1.0080           0
   28372 WT2  1385 TIP3 H2   HT     0.417000        1.0080           0
   28373 WT2  1386 TIP3 OH2  OT    -0.834000       15.9994           0
   28374 WT2  1386 TIP3 H1   HT     0.417000        1.0080           0
   28375 WT2  1386 TIP3 H2   HT     0.417000        1.0080           0
   28376 WT2  1387 TIP3 OH2  OT    -0.834000       15.9994           0
   28377 WT2  1387 TIP3 H1   HT     0.417000        1.0080           0
   28378 WT2  1387 TIP3 H2   HT     0.417000        1.0080           0
   28379 WT2  1388 TIP3 OH2  OT    -0.834000       15.9994           0
   28380 WT2  1388 TIP3 H1   HT     0.417000        1.0080           0
   28381 WT2  1388 TIP3 H2   HT     0.417000        1.0080           0
   28382 WT2  1389 TIP3 OH2  OT    -0.834000       15.9994           0
   28383 WT2  1389 TIP3 H1   HT     0.417000        1.0080           0
   28384 WT2  1389 TIP3 H2   HT     0.417000        1.0080           0
   28385 WT2  1390 TIP3 OH2  OT    -0.834000       15.9994           0
   28386 WT2  1390 TIP3 H1   HT     0.417000        1.0080           0
   28387 WT2  1390 TIP3 H2   HT     0.417000        1.0080           0
   28388 WT2  1391 TIP3 OH2  OT    -0.834000       15.9994           0
   28389 WT2  1391 TIP3 H1   HT     0.417000        1.0080           0
   28390 WT2  1391 TIP3 H2   HT     0.417000        1.0080           0
   28391 WT2  1392 TIP3 OH2  OT    -0.834000       15.9994           0
   28392 WT2  1392 TIP3 H1   HT     0.417000        1.0080           0
   28393 WT2  1392 TIP3 H2   HT     0.417000        1.0080           0
   28394 WT2  1393 TIP3 OH2  OT    -0.834000       15.9994           0
   28395 WT2  1393 TIP3 H1   HT     0.417000        1.0080           0
   28396 WT2  1393 TIP3 H2   HT     0.417000        1.0080           0
   28397 WT2  1394 TIP3 OH2  OT    -0.834000       15.9994           0
   28398 WT2  1394 TIP3 H1   HT     0.417000        1.0080           0
   28399 WT2  1394 TIP3 H2   HT     0.417000        1.0080           0
   28400 WT2  1396 TIP3 OH2  OT    -0.834000       15.9994           0
   28401 WT2  1396 TIP3 H1   HT     0.417000        1.0080           0
   28402 WT2  1396 TIP3 H2   HT     0.417000        1.0080           0
   28403 WT2  1397 TIP3 OH2  OT    -0.834000       15.9994           0
   28404 WT2  1397 TIP3 H1   HT     0.417000        1.0080           0
   28405 WT2  1397 TIP3 H2   HT     0.417000        1.0080           0
   28406 WT2  1398 TIP3 OH2  OT    -0.834000       15.9994           0
   28407 WT2  1398 TIP3 H1   HT     0.417000        1.0080           0
   28408 WT2  1398 TIP3 H2   HT     0.417000        1.0080           0
   28409 WT2  1399 TIP3 OH2  OT    -0.834000       15.9994           0
   28410 WT2  1399 TIP3 H1   HT     0.417000        1.0080           0
   28411 WT2  1399 TIP3 H2   HT     0.417000        1.0080           0
   28412 WT2  1400 TIP3 OH2  OT    -0.834000       15.9994           0
   28413 WT2  1400 TIP3 H1   HT     0.417000        1.0080           0
   28414 WT2  1400 TIP3 H2   HT     0.417000        1.0080           0
   28415 WT2  1401 TIP3 OH2  OT    -0.834000       15.9994           0
   28416 WT2  1401 TIP3 H1   HT     0.417000        1.0080           0
   28417 WT2  1401 TIP3 H2   HT     0.417000        1.0080           0
   28418 WT2  1402 TIP3 OH2  OT    -0.834000       15.9994           0
   28419 WT2  1402 TIP3 H1   HT     0.417000        1.0080           0
   28420 WT2  1402 TIP3 H2   HT     0.417000        1.0080           0
   28421 WT2  1403 TIP3 OH2  OT    -0.834000       15.9994           0
   28422 WT2  1403 TIP3 H1   HT     0.417000        1.0080           0
   28423 WT2  1403 TIP3 H2   HT     0.417000        1.0080           0
   28424 WT2  1405 TIP3 OH2  OT    -0.834000       15.9994           0
   28425 WT2  1405 TIP3 H1   HT     0.417000        1.0080           0
   28426 WT2  1405 TIP3 H2   HT     0.417000        1.0080           0
   28427 WT2  1406 TIP3 OH2  OT    -0.834000       15.9994           0
   28428 WT2  1406 TIP3 H1   HT     0.417000        1.0080           0
   28429 WT2  1406 TIP3 H2   HT     0.417000        1.0080           0
   28430 WT2  1407 TIP3 OH2  OT    -0.834000       15.9994           0
   28431 WT2  1407 TIP3 H1   HT     0.417000        1.0080           0
   28432 WT2  1407 TIP3 H2   HT     0.417000        1.0080           0
   28433 WT2  1409 TIP3 OH2  OT    -0.834000       15.9994           0
   28434 WT2  1409 TIP3 H1   HT     0.417000        1.0080           0
   28435 WT2  1409 TIP3 H2   HT     0.417000        1.0080           0
   28436 WT2  1410 TIP3 OH2  OT    -0.834000       15.9994           0
   28437 WT2  1410 TIP3 H1   HT     0.417000        1.0080           0
   28438 WT2  1410 TIP3 H2   HT     0.417000        1.0080           0
   28439 WT2  1411 TIP3 OH2  OT    -0.834000       15.9994           0
   28440 WT2  1411 TIP3 H1   HT     0.417000        1.0080           0
   28441 WT2  1411 TIP3 H2   HT     0.417000        1.0080           0
   28442 WT2  1412 TIP3 OH2  OT    -0.834000       15.9994           0
   28443 WT2  1412 TIP3 H1   HT     0.417000        1.0080           0
   28444 WT2  1412 TIP3 H2   HT     0.417000        1.0080           0
   28445 WT2  1413 TIP3 OH2  OT    -0.834000       15.9994           0
   28446 WT2  1413 TIP3 H1   HT     0.417000        1.0080           0
   28447 WT2  1413 TIP3 H2   HT     0.417000        1.0080           0
   28448 WT2  1414 TIP3 OH2  OT    -0.834000       15.9994           0
   28449 WT2  1414 TIP3 H1   HT     0.417000        1.0080           0
   28450 WT2  1414 TIP3 H2   HT     0.417000        1.0080           0
   28451 WT2  1415 TIP3 OH2  OT    -0.834000       15.9994           0
   28452 WT2  1415 TIP3 H1   HT     0.417000        1.0080           0
   28453 WT2  1415 TIP3 H2   HT     0.417000        1.0080           0
   28454 WT2  1416 TIP3 OH2  OT    -0.834000       15.9994           0
   28455 WT2  1416 TIP3 H1   HT     0.417000        1.0080           0
   28456 WT2  1416 TIP3 H2   HT     0.417000        1.0080           0
   28457 WT2  1417 TIP3 OH2  OT    -0.834000       15.9994           0
   28458 WT2  1417 TIP3 H1   HT     0.417000        1.0080           0
   28459 WT2  1417 TIP3 H2   HT     0.417000        1.0080           0
   28460 WT2  1418 TIP3 OH2  OT    -0.834000       15.9994           0
   28461 WT2  1418 TIP3 H1   HT     0.417000        1.0080           0
   28462 WT2  1418 TIP3 H2   HT     0.417000        1.0080           0
   28463 WT2  1419 TIP3 OH2  OT    -0.834000       15.9994           0
   28464 WT2  1419 TIP3 H1   HT     0.417000        1.0080           0
   28465 WT2  1419 TIP3 H2   HT     0.417000        1.0080           0
   28466 WT2  1420 TIP3 OH2  OT    -0.834000       15.9994           0
   28467 WT2  1420 TIP3 H1   HT     0.417000        1.0080           0
   28468 WT2  1420 TIP3 H2   HT     0.417000        1.0080           0
   28469 WT2  1421 TIP3 OH2  OT    -0.834000       15.9994           0
   28470 WT2  1421 TIP3 H1   HT     0.417000        1.0080           0
   28471 WT2  1421 TIP3 H2   HT     0.417000        1.0080           0
   28472 WT2  1422 TIP3 OH2  OT    -0.834000       15.9994           0
   28473 WT2  1422 TIP3 H1   HT     0.417000        1.0080           0
   28474 WT2  1422 TIP3 H2   HT     0.417000        1.0080           0
   28475 WT2  1423 TIP3 OH2  OT    -0.834000       15.9994           0
   28476 WT2  1423 TIP3 H1   HT     0.417000        1.0080           0
   28477 WT2  1423 TIP3 H2   HT     0.417000        1.0080           0
   28478 WT2  1424 TIP3 OH2  OT    -0.834000       15.9994           0
   28479 WT2  1424 TIP3 H1   HT     0.417000        1.0080           0
   28480 WT2  1424 TIP3 H2   HT     0.417000        1.0080           0
   28481 WT2  1425 TIP3 OH2  OT    -0.834000       15.9994           0
   28482 WT2  1425 TIP3 H1   HT     0.417000        1.0080           0
   28483 WT2  1425 TIP3 H2   HT     0.417000        1.0080           0
   28484 WT2  1426 TIP3 OH2  OT    -0.834000       15.9994           0
   28485 WT2  1426 TIP3 H1   HT     0.417000        1.0080           0
   28486 WT2  1426 TIP3 H2   HT     0.417000        1.0080           0
   28487 WT2  1427 TIP3 OH2  OT    -0.834000       15.9994           0
   28488 WT2  1427 TIP3 H1   HT     0.417000        1.0080           0
   28489 WT2  1427 TIP3 H2   HT     0.417000        1.0080           0
   28490 WT2  1428 TIP3 OH2  OT    -0.834000       15.9994           0
   28491 WT2  1428 TIP3 H1   HT     0.417000        1.0080           0
   28492 WT2  1428 TIP3 H2   HT     0.417000        1.0080           0
   28493 WT2  1429 TIP3 OH2  OT    -0.834000       15.9994           0
   28494 WT2  1429 TIP3 H1   HT     0.417000        1.0080           0
   28495 WT2  1429 TIP3 H2   HT     0.417000        1.0080           0
   28496 WT2  1430 TIP3 OH2  OT    -0.834000       15.9994           0
   28497 WT2  1430 TIP3 H1   HT     0.417000        1.0080           0
   28498 WT2  1430 TIP3 H2   HT     0.417000        1.0080           0
   28499 WT2  1431 TIP3 OH2  OT    -0.834000       15.9994           0
   28500 WT2  1431 TIP3 H1   HT     0.417000        1.0080           0
   28501 WT2  1431 TIP3 H2   HT     0.417000        1.0080           0
   28502 WT2  1432 TIP3 OH2  OT    -0.834000       15.9994           0
   28503 WT2  1432 TIP3 H1   HT     0.417000        1.0080           0
   28504 WT2  1432 TIP3 H2   HT     0.417000        1.0080           0
   28505 WT2  1434 TIP3 OH2  OT    -0.834000       15.9994           0
   28506 WT2  1434 TIP3 H1   HT     0.417000        1.0080           0
   28507 WT2  1434 TIP3 H2   HT     0.417000        1.0080           0
   28508 WT2  1435 TIP3 OH2  OT    -0.834000       15.9994           0
   28509 WT2  1435 TIP3 H1   HT     0.417000        1.0080           0
   28510 WT2  1435 TIP3 H2   HT     0.417000        1.0080           0
   28511 WT2  1438 TIP3 OH2  OT    -0.834000       15.9994           0
   28512 WT2  1438 TIP3 H1   HT     0.417000        1.0080           0
   28513 WT2  1438 TIP3 H2   HT     0.417000        1.0080           0
   28514 WT2  1439 TIP3 OH2  OT    -0.834000       15.9994           0
   28515 WT2  1439 TIP3 H1   HT     0.417000        1.0080           0
   28516 WT2  1439 TIP3 H2   HT     0.417000        1.0080           0
   28517 WT2  1440 TIP3 OH2  OT    -0.834000       15.9994           0
   28518 WT2  1440 TIP3 H1   HT     0.417000        1.0080           0
   28519 WT2  1440 TIP3 H2   HT     0.417000        1.0080           0
   28520 WT2  1441 TIP3 OH2  OT    -0.834000       15.9994           0
   28521 WT2  1441 TIP3 H1   HT     0.417000        1.0080           0
   28522 WT2  1441 TIP3 H2   HT     0.417000        1.0080           0
   28523 WT2  1442 TIP3 OH2  OT    -0.834000       15.9994           0
   28524 WT2  1442 TIP3 H1   HT     0.417000        1.0080           0
   28525 WT2  1442 TIP3 H2   HT     0.417000        1.0080           0
   28526 WT2  1444 TIP3 OH2  OT    -0.834000       15.9994           0
   28527 WT2  1444 TIP3 H1   HT     0.417000        1.0080           0
   28528 WT2  1444 TIP3 H2   HT     0.417000        1.0080           0
   28529 WT2  1446 TIP3 OH2  OT    -0.834000       15.9994           0
   28530 WT2  1446 TIP3 H1   HT     0.417000        1.0080           0
   28531 WT2  1446 TIP3 H2   HT     0.417000        1.0080           0
   28532 WT2  1447 TIP3 OH2  OT    -0.834000       15.9994           0
   28533 WT2  1447 TIP3 H1   HT     0.417000        1.0080           0
   28534 WT2  1447 TIP3 H2   HT     0.417000        1.0080           0
   28535 WT2  1448 TIP3 OH2  OT    -0.834000       15.9994           0
   28536 WT2  1448 TIP3 H1   HT     0.417000        1.0080           0
   28537 WT2  1448 TIP3 H2   HT     0.417000        1.0080           0
   28538 WT2  1449 TIP3 OH2  OT    -0.834000       15.9994           0
   28539 WT2  1449 TIP3 H1   HT     0.417000        1.0080           0
   28540 WT2  1449 TIP3 H2   HT     0.417000        1.0080           0
   28541 WT2  1450 TIP3 OH2  OT    -0.834000       15.9994           0
   28542 WT2  1450 TIP3 H1   HT     0.417000        1.0080           0
   28543 WT2  1450 TIP3 H2   HT     0.417000        1.0080           0
   28544 WT2  1451 TIP3 OH2  OT    -0.834000       15.9994           0
   28545 WT2  1451 TIP3 H1   HT     0.417000        1.0080           0
   28546 WT2  1451 TIP3 H2   HT     0.417000        1.0080           0
   28547 WT2  1452 TIP3 OH2  OT    -0.834000       15.9994           0
   28548 WT2  1452 TIP3 H1   HT     0.417000        1.0080           0
   28549 WT2  1452 TIP3 H2   HT     0.417000        1.0080           0
   28550 WT2  1455 TIP3 OH2  OT    -0.834000       15.9994           0
   28551 WT2  1455 TIP3 H1   HT     0.417000        1.0080           0
   28552 WT2  1455 TIP3 H2   HT     0.417000        1.0080           0
   28553 WT2  1456 TIP3 OH2  OT    -0.834000       15.9994           0
   28554 WT2  1456 TIP3 H1   HT     0.417000        1.0080           0
   28555 WT2  1456 TIP3 H2   HT     0.417000        1.0080           0
   28556 WT2  1458 TIP3 OH2  OT    -0.834000       15.9994           0
   28557 WT2  1458 TIP3 H1   HT     0.417000        1.0080           0
   28558 WT2  1458 TIP3 H2   HT     0.417000        1.0080           0
   28559 WT2  1459 TIP3 OH2  OT    -0.834000       15.9994           0
   28560 WT2  1459 TIP3 H1   HT     0.417000        1.0080           0
   28561 WT2  1459 TIP3 H2   HT     0.417000        1.0080           0
   28562 WT2  1460 TIP3 OH2  OT    -0.834000       15.9994           0
   28563 WT2  1460 TIP3 H1   HT     0.417000        1.0080           0
   28564 WT2  1460 TIP3 H2   HT     0.417000        1.0080           0
   28565 WT2  1461 TIP3 OH2  OT    -0.834000       15.9994           0
   28566 WT2  1461 TIP3 H1   HT     0.417000        1.0080           0
   28567 WT2  1461 TIP3 H2   HT     0.417000        1.0080           0
   28568 WT2  1462 TIP3 OH2  OT    -0.834000       15.9994           0
   28569 WT2  1462 TIP3 H1   HT     0.417000        1.0080           0
   28570 WT2  1462 TIP3 H2   HT     0.417000        1.0080           0
   28571 WT2  1463 TIP3 OH2  OT    -0.834000       15.9994           0
   28572 WT2  1463 TIP3 H1   HT     0.417000        1.0080           0
   28573 WT2  1463 TIP3 H2   HT     0.417000        1.0080           0
   28574 WT2  1464 TIP3 OH2  OT    -0.834000       15.9994           0
   28575 WT2  1464 TIP3 H1   HT     0.417000        1.0080           0
   28576 WT2  1464 TIP3 H2   HT     0.417000        1.0080           0
   28577 WT2  1466 TIP3 OH2  OT    -0.834000       15.9994           0
   28578 WT2  1466 TIP3 H1   HT     0.417000        1.0080           0
   28579 WT2  1466 TIP3 H2   HT     0.417000        1.0080           0
   28580 WT2  1467 TIP3 OH2  OT    -0.834000       15.9994           0
   28581 WT2  1467 TIP3 H1   HT     0.417000        1.0080           0
   28582 WT2  1467 TIP3 H2   HT     0.417000        1.0080           0
   28583 WT2  1468 TIP3 OH2  OT    -0.834000       15.9994           0
   28584 WT2  1468 TIP3 H1   HT     0.417000        1.0080           0
   28585 WT2  1468 TIP3 H2   HT     0.417000        1.0080           0
   28586 WT2  1469 TIP3 OH2  OT    -0.834000       15.9994           0
   28587 WT2  1469 TIP3 H1   HT     0.417000        1.0080           0
   28588 WT2  1469 TIP3 H2   HT     0.417000        1.0080           0
   28589 WT2  1470 TIP3 OH2  OT    -0.834000       15.9994           0
   28590 WT2  1470 TIP3 H1   HT     0.417000        1.0080           0
   28591 WT2  1470 TIP3 H2   HT     0.417000        1.0080           0
   28592 WT2  1472 TIP3 OH2  OT    -0.834000       15.9994           0
   28593 WT2  1472 TIP3 H1   HT     0.417000        1.0080           0
   28594 WT2  1472 TIP3 H2   HT     0.417000        1.0080           0
   28595 WT2  1473 TIP3 OH2  OT    -0.834000       15.9994           0
   28596 WT2  1473 TIP3 H1   HT     0.417000        1.0080           0
   28597 WT2  1473 TIP3 H2   HT     0.417000        1.0080           0
   28598 WT2  1474 TIP3 OH2  OT    -0.834000       15.9994           0
   28599 WT2  1474 TIP3 H1   HT     0.417000        1.0080           0
   28600 WT2  1474 TIP3 H2   HT     0.417000        1.0080           0
   28601 WT2  1475 TIP3 OH2  OT    -0.834000       15.9994           0
   28602 WT2  1475 TIP3 H1   HT     0.417000        1.0080           0
   28603 WT2  1475 TIP3 H2   HT     0.417000        1.0080           0
   28604 WT2  1477 TIP3 OH2  OT    -0.834000       15.9994           0
   28605 WT2  1477 TIP3 H1   HT     0.417000        1.0080           0
   28606 WT2  1477 TIP3 H2   HT     0.417000        1.0080           0
   28607 WT2  1478 TIP3 OH2  OT    -0.834000       15.9994           0
   28608 WT2  1478 TIP3 H1   HT     0.417000        1.0080           0
   28609 WT2  1478 TIP3 H2   HT     0.417000        1.0080           0
   28610 WT2  1479 TIP3 OH2  OT    -0.834000       15.9994           0
   28611 WT2  1479 TIP3 H1   HT     0.417000        1.0080           0
   28612 WT2  1479 TIP3 H2   HT     0.417000        1.0080           0
   28613 WT2  1481 TIP3 OH2  OT    -0.834000       15.9994           0
   28614 WT2  1481 TIP3 H1   HT     0.417000        1.0080           0
   28615 WT2  1481 TIP3 H2   HT     0.417000        1.0080           0
   28616 WT2  1483 TIP3 OH2  OT    -0.834000       15.9994           0
   28617 WT2  1483 TIP3 H1   HT     0.417000        1.0080           0
   28618 WT2  1483 TIP3 H2   HT     0.417000        1.0080           0
   28619 WT2  1484 TIP3 OH2  OT    -0.834000       15.9994           0
   28620 WT2  1484 TIP3 H1   HT     0.417000        1.0080           0
   28621 WT2  1484 TIP3 H2   HT     0.417000        1.0080           0
   28622 WT2  1485 TIP3 OH2  OT    -0.834000       15.9994           0
   28623 WT2  1485 TIP3 H1   HT     0.417000        1.0080           0
   28624 WT2  1485 TIP3 H2   HT     0.417000        1.0080           0
   28625 WT2  1486 TIP3 OH2  OT    -0.834000       15.9994           0
   28626 WT2  1486 TIP3 H1   HT     0.417000        1.0080           0
   28627 WT2  1486 TIP3 H2   HT     0.417000        1.0080           0
   28628 WT2  1487 TIP3 OH2  OT    -0.834000       15.9994           0
   28629 WT2  1487 TIP3 H1   HT     0.417000        1.0080           0
   28630 WT2  1487 TIP3 H2   HT     0.417000        1.0080           0
   28631 WT2  1488 TIP3 OH2  OT    -0.834000       15.9994           0
   28632 WT2  1488 TIP3 H1   HT     0.417000        1.0080           0
   28633 WT2  1488 TIP3 H2   HT     0.417000        1.0080           0
   28634 WT2  1489 TIP3 OH2  OT    -0.834000       15.9994           0
   28635 WT2  1489 TIP3 H1   HT     0.417000        1.0080           0
   28636 WT2  1489 TIP3 H2   HT     0.417000        1.0080           0
   28637 WT2  1490 TIP3 OH2  OT    -0.834000       15.9994           0
   28638 WT2  1490 TIP3 H1   HT     0.417000        1.0080           0
   28639 WT2  1490 TIP3 H2   HT     0.417000        1.0080           0
   28640 WT2  1491 TIP3 OH2  OT    -0.834000       15.9994           0
   28641 WT2  1491 TIP3 H1   HT     0.417000        1.0080           0
   28642 WT2  1491 TIP3 H2   HT     0.417000        1.0080           0
   28643 WT2  1492 TIP3 OH2  OT    -0.834000       15.9994           0
   28644 WT2  1492 TIP3 H1   HT     0.417000        1.0080           0
   28645 WT2  1492 TIP3 H2   HT     0.417000        1.0080           0
   28646 WT2  1493 TIP3 OH2  OT    -0.834000       15.9994           0
   28647 WT2  1493 TIP3 H1   HT     0.417000        1.0080           0
   28648 WT2  1493 TIP3 H2   HT     0.417000        1.0080           0
   28649 WT2  1494 TIP3 OH2  OT    -0.834000       15.9994           0
   28650 WT2  1494 TIP3 H1   HT     0.417000        1.0080           0
   28651 WT2  1494 TIP3 H2   HT     0.417000        1.0080           0
   28652 WT2  1496 TIP3 OH2  OT    -0.834000       15.9994           0
   28653 WT2  1496 TIP3 H1   HT     0.417000        1.0080           0
   28654 WT2  1496 TIP3 H2   HT     0.417000        1.0080           0
   28655 WT2  1497 TIP3 OH2  OT    -0.834000       15.9994           0
   28656 WT2  1497 TIP3 H1   HT     0.417000        1.0080           0
   28657 WT2  1497 TIP3 H2   HT     0.417000        1.0080           0
   28658 WT2  1498 TIP3 OH2  OT    -0.834000       15.9994           0
   28659 WT2  1498 TIP3 H1   HT     0.417000        1.0080           0
   28660 WT2  1498 TIP3 H2   HT     0.417000        1.0080           0
   28661 WT2  1499 TIP3 OH2  OT    -0.834000       15.9994           0
   28662 WT2  1499 TIP3 H1   HT     0.417000        1.0080           0
   28663 WT2  1499 TIP3 H2   HT     0.417000        1.0080           0
   28664 WT2  1500 TIP3 OH2  OT    -0.834000       15.9994           0
   28665 WT2  1500 TIP3 H1   HT     0.417000        1.0080           0
   28666 WT2  1500 TIP3 H2   HT     0.417000        1.0080           0
   28667 WT2  1501 TIP3 OH2  OT    -0.834000       15.9994           0
   28668 WT2  1501 TIP3 H1   HT     0.417000        1.0080           0
   28669 WT2  1501 TIP3 H2   HT     0.417000        1.0080           0
   28670 WT2  1502 TIP3 OH2  OT    -0.834000       15.9994           0
   28671 WT2  1502 TIP3 H1   HT     0.417000        1.0080           0
   28672 WT2  1502 TIP3 H2   HT     0.417000        1.0080           0
   28673 WT2  1504 TIP3 OH2  OT    -0.834000       15.9994           0
   28674 WT2  1504 TIP3 H1   HT     0.417000        1.0080           0
   28675 WT2  1504 TIP3 H2   HT     0.417000        1.0080           0
   28676 WT2  1505 TIP3 OH2  OT    -0.834000       15.9994           0
   28677 WT2  1505 TIP3 H1   HT     0.417000        1.0080           0
   28678 WT2  1505 TIP3 H2   HT     0.417000        1.0080           0
   28679 WT2  1506 TIP3 OH2  OT    -0.834000       15.9994           0
   28680 WT2  1506 TIP3 H1   HT     0.417000        1.0080           0
   28681 WT2  1506 TIP3 H2   HT     0.417000        1.0080           0
   28682 WT2  1508 TIP3 OH2  OT    -0.834000       15.9994           0
   28683 WT2  1508 TIP3 H1   HT     0.417000        1.0080           0
   28684 WT2  1508 TIP3 H2   HT     0.417000        1.0080           0
   28685 WT2  1509 TIP3 OH2  OT    -0.834000       15.9994           0
   28686 WT2  1509 TIP3 H1   HT     0.417000        1.0080           0
   28687 WT2  1509 TIP3 H2   HT     0.417000        1.0080           0
   28688 WT2  1510 TIP3 OH2  OT    -0.834000       15.9994           0
   28689 WT2  1510 TIP3 H1   HT     0.417000        1.0080           0
   28690 WT2  1510 TIP3 H2   HT     0.417000        1.0080           0
   28691 WT2  1512 TIP3 OH2  OT    -0.834000       15.9994           0
   28692 WT2  1512 TIP3 H1   HT     0.417000        1.0080           0
   28693 WT2  1512 TIP3 H2   HT     0.417000        1.0080           0
   28694 WT2  1513 TIP3 OH2  OT    -0.834000       15.9994           0
   28695 WT2  1513 TIP3 H1   HT     0.417000        1.0080           0
   28696 WT2  1513 TIP3 H2   HT     0.417000        1.0080           0
   28697 WT2  1514 TIP3 OH2  OT    -0.834000       15.9994           0
   28698 WT2  1514 TIP3 H1   HT     0.417000        1.0080           0
   28699 WT2  1514 TIP3 H2   HT     0.417000        1.0080           0
   28700 WT2  1515 TIP3 OH2  OT    -0.834000       15.9994           0
   28701 WT2  1515 TIP3 H1   HT     0.417000        1.0080           0
   28702 WT2  1515 TIP3 H2   HT     0.417000        1.0080           0
   28703 WT2  1516 TIP3 OH2  OT    -0.834000       15.9994           0
   28704 WT2  1516 TIP3 H1   HT     0.417000        1.0080           0
   28705 WT2  1516 TIP3 H2   HT     0.417000        1.0080           0
   28706 WT2  1517 TIP3 OH2  OT    -0.834000       15.9994           0
   28707 WT2  1517 TIP3 H1   HT     0.417000        1.0080           0
   28708 WT2  1517 TIP3 H2   HT     0.417000        1.0080           0
   28709 WT2  1519 TIP3 OH2  OT    -0.834000       15.9994           0
   28710 WT2  1519 TIP3 H1   HT     0.417000        1.0080           0
   28711 WT2  1519 TIP3 H2   HT     0.417000        1.0080           0
   28712 WT2  1520 TIP3 OH2  OT    -0.834000       15.9994           0
   28713 WT2  1520 TIP3 H1   HT     0.417000        1.0080           0
   28714 WT2  1520 TIP3 H2   HT     0.417000        1.0080           0
   28715 WT2  1521 TIP3 OH2  OT    -0.834000       15.9994           0
   28716 WT2  1521 TIP3 H1   HT     0.417000        1.0080           0
   28717 WT2  1521 TIP3 H2   HT     0.417000        1.0080           0
   28718 WT2  1522 TIP3 OH2  OT    -0.834000       15.9994           0
   28719 WT2  1522 TIP3 H1   HT     0.417000        1.0080           0
   28720 WT2  1522 TIP3 H2   HT     0.417000        1.0080           0
   28721 WT2  1523 TIP3 OH2  OT    -0.834000       15.9994           0
   28722 WT2  1523 TIP3 H1   HT     0.417000        1.0080           0
   28723 WT2  1523 TIP3 H2   HT     0.417000        1.0080           0
   28724 WT2  1524 TIP3 OH2  OT    -0.834000       15.9994           0
   28725 WT2  1524 TIP3 H1   HT     0.417000        1.0080           0
   28726 WT2  1524 TIP3 H2   HT     0.417000        1.0080           0
   28727 WT2  1525 TIP3 OH2  OT    -0.834000       15.9994           0
   28728 WT2  1525 TIP3 H1   HT     0.417000        1.0080           0
   28729 WT2  1525 TIP3 H2   HT     0.417000        1.0080           0
   28730 WT2  1526 TIP3 OH2  OT    -0.834000       15.9994           0
   28731 WT2  1526 TIP3 H1   HT     0.417000        1.0080           0
   28732 WT2  1526 TIP3 H2   HT     0.417000        1.0080           0
   28733 WT2  1527 TIP3 OH2  OT    -0.834000       15.9994           0
   28734 WT2  1527 TIP3 H1   HT     0.417000        1.0080           0
   28735 WT2  1527 TIP3 H2   HT     0.417000        1.0080           0
   28736 WT2  1528 TIP3 OH2  OT    -0.834000       15.9994           0
   28737 WT2  1528 TIP3 H1   HT     0.417000        1.0080           0
   28738 WT2  1528 TIP3 H2   HT     0.417000        1.0080           0
   28739 WT2  1529 TIP3 OH2  OT    -0.834000       15.9994           0
   28740 WT2  1529 TIP3 H1   HT     0.417000        1.0080           0
   28741 WT2  1529 TIP3 H2   HT     0.417000        1.0080           0
   28742 WT2  1530 TIP3 OH2  OT    -0.834000       15.9994           0
   28743 WT2  1530 TIP3 H1   HT     0.417000        1.0080           0
   28744 WT2  1530 TIP3 H2   HT     0.417000        1.0080           0
   28745 WT2  1531 TIP3 OH2  OT    -0.834000       15.9994           0
   28746 WT2  1531 TIP3 H1   HT     0.417000        1.0080           0
   28747 WT2  1531 TIP3 H2   HT     0.417000        1.0080           0
   28748 WT2  1533 TIP3 OH2  OT    -0.834000       15.9994           0
   28749 WT2  1533 TIP3 H1   HT     0.417000        1.0080           0
   28750 WT2  1533 TIP3 H2   HT     0.417000        1.0080           0
   28751 WT2  1534 TIP3 OH2  OT    -0.834000       15.9994           0
   28752 WT2  1534 TIP3 H1   HT     0.417000        1.0080           0
   28753 WT2  1534 TIP3 H2   HT     0.417000        1.0080           0
   28754 WT2  1535 TIP3 OH2  OT    -0.834000       15.9994           0
   28755 WT2  1535 TIP3 H1   HT     0.417000        1.0080           0
   28756 WT2  1535 TIP3 H2   HT     0.417000        1.0080           0
   28757 WT2  1536 TIP3 OH2  OT    -0.834000       15.9994           0
   28758 WT2  1536 TIP3 H1   HT     0.417000        1.0080           0
   28759 WT2  1536 TIP3 H2   HT     0.417000        1.0080           0
   28760 WT2  1537 TIP3 OH2  OT    -0.834000       15.9994           0
   28761 WT2  1537 TIP3 H1   HT     0.417000        1.0080           0
   28762 WT2  1537 TIP3 H2   HT     0.417000        1.0080           0
   28763 WT2  1538 TIP3 OH2  OT    -0.834000       15.9994           0
   28764 WT2  1538 TIP3 H1   HT     0.417000        1.0080           0
   28765 WT2  1538 TIP3 H2   HT     0.417000        1.0080           0
   28766 WT2  1539 TIP3 OH2  OT    -0.834000       15.9994           0
   28767 WT2  1539 TIP3 H1   HT     0.417000        1.0080           0
   28768 WT2  1539 TIP3 H2   HT     0.417000        1.0080           0
   28769 WT2  1540 TIP3 OH2  OT    -0.834000       15.9994           0
   28770 WT2  1540 TIP3 H1   HT     0.417000        1.0080           0
   28771 WT2  1540 TIP3 H2   HT     0.417000        1.0080           0
   28772 WT2  1541 TIP3 OH2  OT    -0.834000       15.9994           0
   28773 WT2  1541 TIP3 H1   HT     0.417000        1.0080           0
   28774 WT2  1541 TIP3 H2   HT     0.417000        1.0080           0
   28775 WT2  1542 TIP3 OH2  OT    -0.834000       15.9994           0
   28776 WT2  1542 TIP3 H1   HT     0.417000        1.0080           0
   28777 WT2  1542 TIP3 H2   HT     0.417000        1.0080           0
   28778 WT2  1543 TIP3 OH2  OT    -0.834000       15.9994           0
   28779 WT2  1543 TIP3 H1   HT     0.417000        1.0080           0
   28780 WT2  1543 TIP3 H2   HT     0.417000        1.0080           0
   28781 WT2  1544 TIP3 OH2  OT    -0.834000       15.9994           0
   28782 WT2  1544 TIP3 H1   HT     0.417000        1.0080           0
   28783 WT2  1544 TIP3 H2   HT     0.417000        1.0080           0
   28784 WT2  1545 TIP3 OH2  OT    -0.834000       15.9994           0
   28785 WT2  1545 TIP3 H1   HT     0.417000        1.0080           0
   28786 WT2  1545 TIP3 H2   HT     0.417000        1.0080           0
   28787 WT2  1546 TIP3 OH2  OT    -0.834000       15.9994           0
   28788 WT2  1546 TIP3 H1   HT     0.417000        1.0080           0
   28789 WT2  1546 TIP3 H2   HT     0.417000        1.0080           0
   28790 WT2  1547 TIP3 OH2  OT    -0.834000       15.9994           0
   28791 WT2  1547 TIP3 H1   HT     0.417000        1.0080           0
   28792 WT2  1547 TIP3 H2   HT     0.417000        1.0080           0
   28793 WT2  1548 TIP3 OH2  OT    -0.834000       15.9994           0
   28794 WT2  1548 TIP3 H1   HT     0.417000        1.0080           0
   28795 WT2  1548 TIP3 H2   HT     0.417000        1.0080           0
   28796 WT2  1549 TIP3 OH2  OT    -0.834000       15.9994           0
   28797 WT2  1549 TIP3 H1   HT     0.417000        1.0080           0
   28798 WT2  1549 TIP3 H2   HT     0.417000        1.0080           0
   28799 WT2  1550 TIP3 OH2  OT    -0.834000       15.9994           0
   28800 WT2  1550 TIP3 H1   HT     0.417000        1.0080           0
   28801 WT2  1550 TIP3 H2   HT     0.417000        1.0080           0
   28802 WT2  1551 TIP3 OH2  OT    -0.834000       15.9994           0
   28803 WT2  1551 TIP3 H1   HT     0.417000        1.0080           0
   28804 WT2  1551 TIP3 H2   HT     0.417000        1.0080           0
   28805 WT2  1552 TIP3 OH2  OT    -0.834000       15.9994           0
   28806 WT2  1552 TIP3 H1   HT     0.417000        1.0080           0
   28807 WT2  1552 TIP3 H2   HT     0.417000        1.0080           0
   28808 WT2  1553 TIP3 OH2  OT    -0.834000       15.9994           0
   28809 WT2  1553 TIP3 H1   HT     0.417000        1.0080           0
   28810 WT2  1553 TIP3 H2   HT     0.417000        1.0080           0
   28811 WT2  1554 TIP3 OH2  OT    -0.834000       15.9994           0
   28812 WT2  1554 TIP3 H1   HT     0.417000        1.0080           0
   28813 WT2  1554 TIP3 H2   HT     0.417000        1.0080           0
   28814 WT2  1555 TIP3 OH2  OT    -0.834000       15.9994           0
   28815 WT2  1555 TIP3 H1   HT     0.417000        1.0080           0
   28816 WT2  1555 TIP3 H2   HT     0.417000        1.0080           0
   28817 WT2  1556 TIP3 OH2  OT    -0.834000       15.9994           0
   28818 WT2  1556 TIP3 H1   HT     0.417000        1.0080           0
   28819 WT2  1556 TIP3 H2   HT     0.417000        1.0080           0
   28820 WT2  1557 TIP3 OH2  OT    -0.834000       15.9994           0
   28821 WT2  1557 TIP3 H1   HT     0.417000        1.0080           0
   28822 WT2  1557 TIP3 H2   HT     0.417000        1.0080           0
   28823 WT2  1558 TIP3 OH2  OT    -0.834000       15.9994           0
   28824 WT2  1558 TIP3 H1   HT     0.417000        1.0080           0
   28825 WT2  1558 TIP3 H2   HT     0.417000        1.0080           0
   28826 WT2  1559 TIP3 OH2  OT    -0.834000       15.9994           0
   28827 WT2  1559 TIP3 H1   HT     0.417000        1.0080           0
   28828 WT2  1559 TIP3 H2   HT     0.417000        1.0080           0
   28829 WT2  1560 TIP3 OH2  OT    -0.834000       15.9994           0
   28830 WT2  1560 TIP3 H1   HT     0.417000        1.0080           0
   28831 WT2  1560 TIP3 H2   HT     0.417000        1.0080           0
   28832 WT2  1561 TIP3 OH2  OT    -0.834000       15.9994           0
   28833 WT2  1561 TIP3 H1   HT     0.417000        1.0080           0
   28834 WT2  1561 TIP3 H2   HT     0.417000        1.0080           0
   28835 WT2  1562 TIP3 OH2  OT    -0.834000       15.9994           0
   28836 WT2  1562 TIP3 H1   HT     0.417000        1.0080           0
   28837 WT2  1562 TIP3 H2   HT     0.417000        1.0080           0
   28838 WT2  1563 TIP3 OH2  OT    -0.834000       15.9994           0
   28839 WT2  1563 TIP3 H1   HT     0.417000        1.0080           0
   28840 WT2  1563 TIP3 H2   HT     0.417000        1.0080           0
   28841 WT2  1564 TIP3 OH2  OT    -0.834000       15.9994           0
   28842 WT2  1564 TIP3 H1   HT     0.417000        1.0080           0
   28843 WT2  1564 TIP3 H2   HT     0.417000        1.0080           0
   28844 WT2  1567 TIP3 OH2  OT    -0.834000       15.9994           0
   28845 WT2  1567 TIP3 H1   HT     0.417000        1.0080           0
   28846 WT2  1567 TIP3 H2   HT     0.417000        1.0080           0
   28847 WT2  1568 TIP3 OH2  OT    -0.834000       15.9994           0
   28848 WT2  1568 TIP3 H1   HT     0.417000        1.0080           0
   28849 WT2  1568 TIP3 H2   HT     0.417000        1.0080           0
   28850 WT2  1570 TIP3 OH2  OT    -0.834000       15.9994           0
   28851 WT2  1570 TIP3 H1   HT     0.417000        1.0080           0
   28852 WT2  1570 TIP3 H2   HT     0.417000        1.0080           0
   28853 WT2  1571 TIP3 OH2  OT    -0.834000       15.9994           0
   28854 WT2  1571 TIP3 H1   HT     0.417000        1.0080           0
   28855 WT2  1571 TIP3 H2   HT     0.417000        1.0080           0
   28856 WT2  1572 TIP3 OH2  OT    -0.834000       15.9994           0
   28857 WT2  1572 TIP3 H1   HT     0.417000        1.0080           0
   28858 WT2  1572 TIP3 H2   HT     0.417000        1.0080           0
   28859 WT2  1574 TIP3 OH2  OT    -0.834000       15.9994           0
   28860 WT2  1574 TIP3 H1   HT     0.417000        1.0080           0
   28861 WT2  1574 TIP3 H2   HT     0.417000        1.0080           0
   28862 WT2  1575 TIP3 OH2  OT    -0.834000       15.9994           0
   28863 WT2  1575 TIP3 H1   HT     0.417000        1.0080           0
   28864 WT2  1575 TIP3 H2   HT     0.417000        1.0080           0
   28865 WT2  1576 TIP3 OH2  OT    -0.834000       15.9994           0
   28866 WT2  1576 TIP3 H1   HT     0.417000        1.0080           0
   28867 WT2  1576 TIP3 H2   HT     0.417000        1.0080           0
   28868 WT2  1577 TIP3 OH2  OT    -0.834000       15.9994           0
   28869 WT2  1577 TIP3 H1   HT     0.417000        1.0080           0
   28870 WT2  1577 TIP3 H2   HT     0.417000        1.0080           0
   28871 WT2  1578 TIP3 OH2  OT    -0.834000       15.9994           0
   28872 WT2  1578 TIP3 H1   HT     0.417000        1.0080           0
   28873 WT2  1578 TIP3 H2   HT     0.417000        1.0080           0
   28874 WT2  1579 TIP3 OH2  OT    -0.834000       15.9994           0
   28875 WT2  1579 TIP3 H1   HT     0.417000        1.0080           0
   28876 WT2  1579 TIP3 H2   HT     0.417000        1.0080           0
   28877 WT2  1581 TIP3 OH2  OT    -0.834000       15.9994           0
   28878 WT2  1581 TIP3 H1   HT     0.417000        1.0080           0
   28879 WT2  1581 TIP3 H2   HT     0.417000        1.0080           0
   28880 WT2  1583 TIP3 OH2  OT    -0.834000       15.9994           0
   28881 WT2  1583 TIP3 H1   HT     0.417000        1.0080           0
   28882 WT2  1583 TIP3 H2   HT     0.417000        1.0080           0
   28883 WT2  1584 TIP3 OH2  OT    -0.834000       15.9994           0
   28884 WT2  1584 TIP3 H1   HT     0.417000        1.0080           0
   28885 WT2  1584 TIP3 H2   HT     0.417000        1.0080           0
   28886 WT2  1585 TIP3 OH2  OT    -0.834000       15.9994           0
   28887 WT2  1585 TIP3 H1   HT     0.417000        1.0080           0
   28888 WT2  1585 TIP3 H2   HT     0.417000        1.0080           0
   28889 WT2  1586 TIP3 OH2  OT    -0.834000       15.9994           0
   28890 WT2  1586 TIP3 H1   HT     0.417000        1.0080           0
   28891 WT2  1586 TIP3 H2   HT     0.417000        1.0080           0
   28892 WT2  1587 TIP3 OH2  OT    -0.834000       15.9994           0
   28893 WT2  1587 TIP3 H1   HT     0.417000        1.0080           0
   28894 WT2  1587 TIP3 H2   HT     0.417000        1.0080           0
   28895 WT2  1588 TIP3 OH2  OT    -0.834000       15.9994           0
   28896 WT2  1588 TIP3 H1   HT     0.417000        1.0080           0
   28897 WT2  1588 TIP3 H2   HT     0.417000        1.0080           0
   28898 WT2  1589 TIP3 OH2  OT    -0.834000       15.9994           0
   28899 WT2  1589 TIP3 H1   HT     0.417000        1.0080           0
   28900 WT2  1589 TIP3 H2   HT     0.417000        1.0080           0
   28901 WT2  1590 TIP3 OH2  OT    -0.834000       15.9994           0
   28902 WT2  1590 TIP3 H1   HT     0.417000        1.0080           0
   28903 WT2  1590 TIP3 H2   HT     0.417000        1.0080           0
   28904 WT2  1593 TIP3 OH2  OT    -0.834000       15.9994           0
   28905 WT2  1593 TIP3 H1   HT     0.417000        1.0080           0
   28906 WT2  1593 TIP3 H2   HT     0.417000        1.0080           0
   28907 WT2  1594 TIP3 OH2  OT    -0.834000       15.9994           0
   28908 WT2  1594 TIP3 H1   HT     0.417000        1.0080           0
   28909 WT2  1594 TIP3 H2   HT     0.417000        1.0080           0
   28910 WT2  1596 TIP3 OH2  OT    -0.834000       15.9994           0
   28911 WT2  1596 TIP3 H1   HT     0.417000        1.0080           0
   28912 WT2  1596 TIP3 H2   HT     0.417000        1.0080           0
   28913 WT2  1597 TIP3 OH2  OT    -0.834000       15.9994           0
   28914 WT2  1597 TIP3 H1   HT     0.417000        1.0080           0
   28915 WT2  1597 TIP3 H2   HT     0.417000        1.0080           0
   28916 WT2  1598 TIP3 OH2  OT    -0.834000       15.9994           0
   28917 WT2  1598 TIP3 H1   HT     0.417000        1.0080           0
   28918 WT2  1598 TIP3 H2   HT     0.417000        1.0080           0
   28919 WT2  1599 TIP3 OH2  OT    -0.834000       15.9994           0
   28920 WT2  1599 TIP3 H1   HT     0.417000        1.0080           0
   28921 WT2  1599 TIP3 H2   HT     0.417000        1.0080           0
   28922 WT2  1600 TIP3 OH2  OT    -0.834000       15.9994           0
   28923 WT2  1600 TIP3 H1   HT     0.417000        1.0080           0
   28924 WT2  1600 TIP3 H2   HT     0.417000        1.0080           0
   28925 WT2  1601 TIP3 OH2  OT    -0.834000       15.9994           0
   28926 WT2  1601 TIP3 H1   HT     0.417000        1.0080           0
   28927 WT2  1601 TIP3 H2   HT     0.417000        1.0080           0
   28928 WT2  1602 TIP3 OH2  OT    -0.834000       15.9994           0
   28929 WT2  1602 TIP3 H1   HT     0.417000        1.0080           0
   28930 WT2  1602 TIP3 H2   HT     0.417000        1.0080           0
   28931 WT2  1603 TIP3 OH2  OT    -0.834000       15.9994           0
   28932 WT2  1603 TIP3 H1   HT     0.417000        1.0080           0
   28933 WT2  1603 TIP3 H2   HT     0.417000        1.0080           0
   28934 WT2  1607 TIP3 OH2  OT    -0.834000       15.9994           0
   28935 WT2  1607 TIP3 H1   HT     0.417000        1.0080           0
   28936 WT2  1607 TIP3 H2   HT     0.417000        1.0080           0
   28937 WT2  1608 TIP3 OH2  OT    -0.834000       15.9994           0
   28938 WT2  1608 TIP3 H1   HT     0.417000        1.0080           0
   28939 WT2  1608 TIP3 H2   HT     0.417000        1.0080           0
   28940 WT2  1609 TIP3 OH2  OT    -0.834000       15.9994           0
   28941 WT2  1609 TIP3 H1   HT     0.417000        1.0080           0
   28942 WT2  1609 TIP3 H2   HT     0.417000        1.0080           0
   28943 WT2  1610 TIP3 OH2  OT    -0.834000       15.9994           0
   28944 WT2  1610 TIP3 H1   HT     0.417000        1.0080           0
   28945 WT2  1610 TIP3 H2   HT     0.417000        1.0080           0
   28946 WT2  1612 TIP3 OH2  OT    -0.834000       15.9994           0
   28947 WT2  1612 TIP3 H1   HT     0.417000        1.0080           0
   28948 WT2  1612 TIP3 H2   HT     0.417000        1.0080           0
   28949 WT2  1613 TIP3 OH2  OT    -0.834000       15.9994           0
   28950 WT2  1613 TIP3 H1   HT     0.417000        1.0080           0
   28951 WT2  1613 TIP3 H2   HT     0.417000        1.0080           0
   28952 WT2  1614 TIP3 OH2  OT    -0.834000       15.9994           0
   28953 WT2  1614 TIP3 H1   HT     0.417000        1.0080           0
   28954 WT2  1614 TIP3 H2   HT     0.417000        1.0080           0
   28955 WT2  1615 TIP3 OH2  OT    -0.834000       15.9994           0
   28956 WT2  1615 TIP3 H1   HT     0.417000        1.0080           0
   28957 WT2  1615 TIP3 H2   HT     0.417000        1.0080           0
   28958 WT2  1616 TIP3 OH2  OT    -0.834000       15.9994           0
   28959 WT2  1616 TIP3 H1   HT     0.417000        1.0080           0
   28960 WT2  1616 TIP3 H2   HT     0.417000        1.0080           0
   28961 WT2  1617 TIP3 OH2  OT    -0.834000       15.9994           0
   28962 WT2  1617 TIP3 H1   HT     0.417000        1.0080           0
   28963 WT2  1617 TIP3 H2   HT     0.417000        1.0080           0
   28964 WT2  1618 TIP3 OH2  OT    -0.834000       15.9994           0
   28965 WT2  1618 TIP3 H1   HT     0.417000        1.0080           0
   28966 WT2  1618 TIP3 H2   HT     0.417000        1.0080           0
   28967 WT2  1619 TIP3 OH2  OT    -0.834000       15.9994           0
   28968 WT2  1619 TIP3 H1   HT     0.417000        1.0080           0
   28969 WT2  1619 TIP3 H2   HT     0.417000        1.0080           0
   28970 WT2  1620 TIP3 OH2  OT    -0.834000       15.9994           0
   28971 WT2  1620 TIP3 H1   HT     0.417000        1.0080           0
   28972 WT2  1620 TIP3 H2   HT     0.417000        1.0080           0
   28973 WT2  1621 TIP3 OH2  OT    -0.834000       15.9994           0
   28974 WT2  1621 TIP3 H1   HT     0.417000        1.0080           0
   28975 WT2  1621 TIP3 H2   HT     0.417000        1.0080           0
   28976 WT2  1622 TIP3 OH2  OT    -0.834000       15.9994           0
   28977 WT2  1622 TIP3 H1   HT     0.417000        1.0080           0
   28978 WT2  1622 TIP3 H2   HT     0.417000        1.0080           0
   28979 WT2  1623 TIP3 OH2  OT    -0.834000       15.9994           0
   28980 WT2  1623 TIP3 H1   HT     0.417000        1.0080           0
   28981 WT2  1623 TIP3 H2   HT     0.417000        1.0080           0
   28982 WT2  1625 TIP3 OH2  OT    -0.834000       15.9994           0
   28983 WT2  1625 TIP3 H1   HT     0.417000        1.0080           0
   28984 WT2  1625 TIP3 H2   HT     0.417000        1.0080           0
   28985 WT2  1626 TIP3 OH2  OT    -0.834000       15.9994           0
   28986 WT2  1626 TIP3 H1   HT     0.417000        1.0080           0
   28987 WT2  1626 TIP3 H2   HT     0.417000        1.0080           0
   28988 WT2  1627 TIP3 OH2  OT    -0.834000       15.9994           0
   28989 WT2  1627 TIP3 H1   HT     0.417000        1.0080           0
   28990 WT2  1627 TIP3 H2   HT     0.417000        1.0080           0
   28991 WT2  1628 TIP3 OH2  OT    -0.834000       15.9994           0
   28992 WT2  1628 TIP3 H1   HT     0.417000        1.0080           0
   28993 WT2  1628 TIP3 H2   HT     0.417000        1.0080           0
   28994 WT2  1629 TIP3 OH2  OT    -0.834000       15.9994           0
   28995 WT2  1629 TIP3 H1   HT     0.417000        1.0080           0
   28996 WT2  1629 TIP3 H2   HT     0.417000        1.0080           0
   28997 WT2  1630 TIP3 OH2  OT    -0.834000       15.9994           0
   28998 WT2  1630 TIP3 H1   HT     0.417000        1.0080           0
   28999 WT2  1630 TIP3 H2   HT     0.417000        1.0080           0
   29000 WT2  1632 TIP3 OH2  OT    -0.834000       15.9994           0
   29001 WT2  1632 TIP3 H1   HT     0.417000        1.0080           0
   29002 WT2  1632 TIP3 H2   HT     0.417000        1.0080           0
   29003 WT2  1633 TIP3 OH2  OT    -0.834000       15.9994           0
   29004 WT2  1633 TIP3 H1   HT     0.417000        1.0080           0
   29005 WT2  1633 TIP3 H2   HT     0.417000        1.0080           0
   29006 WT2  1634 TIP3 OH2  OT    -0.834000       15.9994           0
   29007 WT2  1634 TIP3 H1   HT     0.417000        1.0080           0
   29008 WT2  1634 TIP3 H2   HT     0.417000        1.0080           0
   29009 WT2  1635 TIP3 OH2  OT    -0.834000       15.9994           0
   29010 WT2  1635 TIP3 H1   HT     0.417000        1.0080           0
   29011 WT2  1635 TIP3 H2   HT     0.417000        1.0080           0
   29012 WT2  1636 TIP3 OH2  OT    -0.834000       15.9994           0
   29013 WT2  1636 TIP3 H1   HT     0.417000        1.0080           0
   29014 WT2  1636 TIP3 H2   HT     0.417000        1.0080           0
   29015 WT2  1637 TIP3 OH2  OT    -0.834000       15.9994           0
   29016 WT2  1637 TIP3 H1   HT     0.417000        1.0080           0
   29017 WT2  1637 TIP3 H2   HT     0.417000        1.0080           0
   29018 WT2  1639 TIP3 OH2  OT    -0.834000       15.9994           0
   29019 WT2  1639 TIP3 H1   HT     0.417000        1.0080           0
   29020 WT2  1639 TIP3 H2   HT     0.417000        1.0080           0
   29021 WT2  1640 TIP3 OH2  OT    -0.834000       15.9994           0
   29022 WT2  1640 TIP3 H1   HT     0.417000        1.0080           0
   29023 WT2  1640 TIP3 H2   HT     0.417000        1.0080           0
   29024 WT2  1641 TIP3 OH2  OT    -0.834000       15.9994           0
   29025 WT2  1641 TIP3 H1   HT     0.417000        1.0080           0
   29026 WT2  1641 TIP3 H2   HT     0.417000        1.0080           0
   29027 WT2  1642 TIP3 OH2  OT    -0.834000       15.9994           0
   29028 WT2  1642 TIP3 H1   HT     0.417000        1.0080           0
   29029 WT2  1642 TIP3 H2   HT     0.417000        1.0080           0
   29030 WT2  1643 TIP3 OH2  OT    -0.834000       15.9994           0
   29031 WT2  1643 TIP3 H1   HT     0.417000        1.0080           0
   29032 WT2  1643 TIP3 H2   HT     0.417000        1.0080           0
   29033 WT2  1644 TIP3 OH2  OT    -0.834000       15.9994           0
   29034 WT2  1644 TIP3 H1   HT     0.417000        1.0080           0
   29035 WT2  1644 TIP3 H2   HT     0.417000        1.0080           0
   29036 WT2  1645 TIP3 OH2  OT    -0.834000       15.9994           0
   29037 WT2  1645 TIP3 H1   HT     0.417000        1.0080           0
   29038 WT2  1645 TIP3 H2   HT     0.417000        1.0080           0
   29039 WT2  1646 TIP3 OH2  OT    -0.834000       15.9994           0
   29040 WT2  1646 TIP3 H1   HT     0.417000        1.0080           0
   29041 WT2  1646 TIP3 H2   HT     0.417000        1.0080           0
   29042 WT2  1647 TIP3 OH2  OT    -0.834000       15.9994           0
   29043 WT2  1647 TIP3 H1   HT     0.417000        1.0080           0
   29044 WT2  1647 TIP3 H2   HT     0.417000        1.0080           0
   29045 WT2  1649 TIP3 OH2  OT    -0.834000       15.9994           0
   29046 WT2  1649 TIP3 H1   HT     0.417000        1.0080           0
   29047 WT2  1649 TIP3 H2   HT     0.417000        1.0080           0
   29048 WT2  1652 TIP3 OH2  OT    -0.834000       15.9994           0
   29049 WT2  1652 TIP3 H1   HT     0.417000        1.0080           0
   29050 WT2  1652 TIP3 H2   HT     0.417000        1.0080           0
   29051 WT2  1653 TIP3 OH2  OT    -0.834000       15.9994           0
   29052 WT2  1653 TIP3 H1   HT     0.417000        1.0080           0
   29053 WT2  1653 TIP3 H2   HT     0.417000        1.0080           0
   29054 WT2  1654 TIP3 OH2  OT    -0.834000       15.9994           0
   29055 WT2  1654 TIP3 H1   HT     0.417000        1.0080           0
   29056 WT2  1654 TIP3 H2   HT     0.417000        1.0080           0
   29057 WT2  1655 TIP3 OH2  OT    -0.834000       15.9994           0
   29058 WT2  1655 TIP3 H1   HT     0.417000        1.0080           0
   29059 WT2  1655 TIP3 H2   HT     0.417000        1.0080           0
   29060 WT2  1656 TIP3 OH2  OT    -0.834000       15.9994           0
   29061 WT2  1656 TIP3 H1   HT     0.417000        1.0080           0
   29062 WT2  1656 TIP3 H2   HT     0.417000        1.0080           0
   29063 WT2  1657 TIP3 OH2  OT    -0.834000       15.9994           0
   29064 WT2  1657 TIP3 H1   HT     0.417000        1.0080           0
   29065 WT2  1657 TIP3 H2   HT     0.417000        1.0080           0
   29066 WT2  1658 TIP3 OH2  OT    -0.834000       15.9994           0
   29067 WT2  1658 TIP3 H1   HT     0.417000        1.0080           0
   29068 WT2  1658 TIP3 H2   HT     0.417000        1.0080           0
   29069 WT2  1659 TIP3 OH2  OT    -0.834000       15.9994           0
   29070 WT2  1659 TIP3 H1   HT     0.417000        1.0080           0
   29071 WT2  1659 TIP3 H2   HT     0.417000        1.0080           0
   29072 WT2  1660 TIP3 OH2  OT    -0.834000       15.9994           0
   29073 WT2  1660 TIP3 H1   HT     0.417000        1.0080           0
   29074 WT2  1660 TIP3 H2   HT     0.417000        1.0080           0
   29075 WT2  1661 TIP3 OH2  OT    -0.834000       15.9994           0
   29076 WT2  1661 TIP3 H1   HT     0.417000        1.0080           0
   29077 WT2  1661 TIP3 H2   HT     0.417000        1.0080           0
   29078 WT2  1662 TIP3 OH2  OT    -0.834000       15.9994           0
   29079 WT2  1662 TIP3 H1   HT     0.417000        1.0080           0
   29080 WT2  1662 TIP3 H2   HT     0.417000        1.0080           0
   29081 WT2  1663 TIP3 OH2  OT    -0.834000       15.9994           0
   29082 WT2  1663 TIP3 H1   HT     0.417000        1.0080           0
   29083 WT2  1663 TIP3 H2   HT     0.417000        1.0080           0
   29084 WT2  1664 TIP3 OH2  OT    -0.834000       15.9994           0
   29085 WT2  1664 TIP3 H1   HT     0.417000        1.0080           0
   29086 WT2  1664 TIP3 H2   HT     0.417000        1.0080           0
   29087 WT2  1665 TIP3 OH2  OT    -0.834000       15.9994           0
   29088 WT2  1665 TIP3 H1   HT     0.417000        1.0080           0
   29089 WT2  1665 TIP3 H2   HT     0.417000        1.0080           0
   29090 WT2  1668 TIP3 OH2  OT    -0.834000       15.9994           0
   29091 WT2  1668 TIP3 H1   HT     0.417000        1.0080           0
   29092 WT2  1668 TIP3 H2   HT     0.417000        1.0080           0
   29093 WT2  1669 TIP3 OH2  OT    -0.834000       15.9994           0
   29094 WT2  1669 TIP3 H1   HT     0.417000        1.0080           0
   29095 WT2  1669 TIP3 H2   HT     0.417000        1.0080           0
   29096 WT2  1670 TIP3 OH2  OT    -0.834000       15.9994           0
   29097 WT2  1670 TIP3 H1   HT     0.417000        1.0080           0
   29098 WT2  1670 TIP3 H2   HT     0.417000        1.0080           0
   29099 WT2  1671 TIP3 OH2  OT    -0.834000       15.9994           0
   29100 WT2  1671 TIP3 H1   HT     0.417000        1.0080           0
   29101 WT2  1671 TIP3 H2   HT     0.417000        1.0080           0
   29102 WT2  1672 TIP3 OH2  OT    -0.834000       15.9994           0
   29103 WT2  1672 TIP3 H1   HT     0.417000        1.0080           0
   29104 WT2  1672 TIP3 H2   HT     0.417000        1.0080           0
   29105 WT2  1673 TIP3 OH2  OT    -0.834000       15.9994           0
   29106 WT2  1673 TIP3 H1   HT     0.417000        1.0080           0
   29107 WT2  1673 TIP3 H2   HT     0.417000        1.0080           0
   29108 WT2  1675 TIP3 OH2  OT    -0.834000       15.9994           0
   29109 WT2  1675 TIP3 H1   HT     0.417000        1.0080           0
   29110 WT2  1675 TIP3 H2   HT     0.417000        1.0080           0
   29111 WT2  1676 TIP3 OH2  OT    -0.834000       15.9994           0
   29112 WT2  1676 TIP3 H1   HT     0.417000        1.0080           0
   29113 WT2  1676 TIP3 H2   HT     0.417000        1.0080           0
   29114 WT2  1677 TIP3 OH2  OT    -0.834000       15.9994           0
   29115 WT2  1677 TIP3 H1   HT     0.417000        1.0080           0
   29116 WT2  1677 TIP3 H2   HT     0.417000        1.0080           0
   29117 WT2  1678 TIP3 OH2  OT    -0.834000       15.9994           0
   29118 WT2  1678 TIP3 H1   HT     0.417000        1.0080           0
   29119 WT2  1678 TIP3 H2   HT     0.417000        1.0080           0
   29120 WT2  1679 TIP3 OH2  OT    -0.834000       15.9994           0
   29121 WT2  1679 TIP3 H1   HT     0.417000        1.0080           0
   29122 WT2  1679 TIP3 H2   HT     0.417000        1.0080           0
   29123 WT2  1680 TIP3 OH2  OT    -0.834000       15.9994           0
   29124 WT2  1680 TIP3 H1   HT     0.417000        1.0080           0
   29125 WT2  1680 TIP3 H2   HT     0.417000        1.0080           0
   29126 WT2  1681 TIP3 OH2  OT    -0.834000       15.9994           0
   29127 WT2  1681 TIP3 H1   HT     0.417000        1.0080           0
   29128 WT2  1681 TIP3 H2   HT     0.417000        1.0080           0
   29129 WT2  1683 TIP3 OH2  OT    -0.834000       15.9994           0
   29130 WT2  1683 TIP3 H1   HT     0.417000        1.0080           0
   29131 WT2  1683 TIP3 H2   HT     0.417000        1.0080           0
   29132 WT2  1684 TIP3 OH2  OT    -0.834000       15.9994           0
   29133 WT2  1684 TIP3 H1   HT     0.417000        1.0080           0
   29134 WT2  1684 TIP3 H2   HT     0.417000        1.0080           0
   29135 WT2  1685 TIP3 OH2  OT    -0.834000       15.9994           0
   29136 WT2  1685 TIP3 H1   HT     0.417000        1.0080           0
   29137 WT2  1685 TIP3 H2   HT     0.417000        1.0080           0
   29138 WT2  1687 TIP3 OH2  OT    -0.834000       15.9994           0
   29139 WT2  1687 TIP3 H1   HT     0.417000        1.0080           0
   29140 WT2  1687 TIP3 H2   HT     0.417000        1.0080           0
   29141 WT2  1688 TIP3 OH2  OT    -0.834000       15.9994           0
   29142 WT2  1688 TIP3 H1   HT     0.417000        1.0080           0
   29143 WT2  1688 TIP3 H2   HT     0.417000        1.0080           0
   29144 WT2  1689 TIP3 OH2  OT    -0.834000       15.9994           0
   29145 WT2  1689 TIP3 H1   HT     0.417000        1.0080           0
   29146 WT2  1689 TIP3 H2   HT     0.417000        1.0080           0
   29147 WT2  1690 TIP3 OH2  OT    -0.834000       15.9994           0
   29148 WT2  1690 TIP3 H1   HT     0.417000        1.0080           0
   29149 WT2  1690 TIP3 H2   HT     0.417000        1.0080           0
   29150 WT2  1691 TIP3 OH2  OT    -0.834000       15.9994           0
   29151 WT2  1691 TIP3 H1   HT     0.417000        1.0080           0
   29152 WT2  1691 TIP3 H2   HT     0.417000        1.0080           0
   29153 WT2  1692 TIP3 OH2  OT    -0.834000       15.9994           0
   29154 WT2  1692 TIP3 H1   HT     0.417000        1.0080           0
   29155 WT2  1692 TIP3 H2   HT     0.417000        1.0080           0
   29156 WT2  1693 TIP3 OH2  OT    -0.834000       15.9994           0
   29157 WT2  1693 TIP3 H1   HT     0.417000        1.0080           0
   29158 WT2  1693 TIP3 H2   HT     0.417000        1.0080           0
   29159 WT2  1694 TIP3 OH2  OT    -0.834000       15.9994           0
   29160 WT2  1694 TIP3 H1   HT     0.417000        1.0080           0
   29161 WT2  1694 TIP3 H2   HT     0.417000        1.0080           0
   29162 WT2  1695 TIP3 OH2  OT    -0.834000       15.9994           0
   29163 WT2  1695 TIP3 H1   HT     0.417000        1.0080           0
   29164 WT2  1695 TIP3 H2   HT     0.417000        1.0080           0
   29165 WT2  1696 TIP3 OH2  OT    -0.834000       15.9994           0
   29166 WT2  1696 TIP3 H1   HT     0.417000        1.0080           0
   29167 WT2  1696 TIP3 H2   HT     0.417000        1.0080           0
   29168 WT2  1698 TIP3 OH2  OT    -0.834000       15.9994           0
   29169 WT2  1698 TIP3 H1   HT     0.417000        1.0080           0
   29170 WT2  1698 TIP3 H2   HT     0.417000        1.0080           0
   29171 WT2  1699 TIP3 OH2  OT    -0.834000       15.9994           0
   29172 WT2  1699 TIP3 H1   HT     0.417000        1.0080           0
   29173 WT2  1699 TIP3 H2   HT     0.417000        1.0080           0
   29174 WT2  1700 TIP3 OH2  OT    -0.834000       15.9994           0
   29175 WT2  1700 TIP3 H1   HT     0.417000        1.0080           0
   29176 WT2  1700 TIP3 H2   HT     0.417000        1.0080           0
   29177 WT2  1701 TIP3 OH2  OT    -0.834000       15.9994           0
   29178 WT2  1701 TIP3 H1   HT     0.417000        1.0080           0
   29179 WT2  1701 TIP3 H2   HT     0.417000        1.0080           0
   29180 WT2  1702 TIP3 OH2  OT    -0.834000       15.9994           0
   29181 WT2  1702 TIP3 H1   HT     0.417000        1.0080           0
   29182 WT2  1702 TIP3 H2   HT     0.417000        1.0080           0
   29183 WT2  1705 TIP3 OH2  OT    -0.834000       15.9994           0
   29184 WT2  1705 TIP3 H1   HT     0.417000        1.0080           0
   29185 WT2  1705 TIP3 H2   HT     0.417000        1.0080           0
   29186 WT2  1706 TIP3 OH2  OT    -0.834000       15.9994           0
   29187 WT2  1706 TIP3 H1   HT     0.417000        1.0080           0
   29188 WT2  1706 TIP3 H2   HT     0.417000        1.0080           0
   29189 WT2  1710 TIP3 OH2  OT    -0.834000       15.9994           0
   29190 WT2  1710 TIP3 H1   HT     0.417000        1.0080           0
   29191 WT2  1710 TIP3 H2   HT     0.417000        1.0080           0
   29192 WT2  1711 TIP3 OH2  OT    -0.834000       15.9994           0
   29193 WT2  1711 TIP3 H1   HT     0.417000        1.0080           0
   29194 WT2  1711 TIP3 H2   HT     0.417000        1.0080           0
   29195 WT2  1713 TIP3 OH2  OT    -0.834000       15.9994           0
   29196 WT2  1713 TIP3 H1   HT     0.417000        1.0080           0
   29197 WT2  1713 TIP3 H2   HT     0.417000        1.0080           0
   29198 WT2  1714 TIP3 OH2  OT    -0.834000       15.9994           0
   29199 WT2  1714 TIP3 H1   HT     0.417000        1.0080           0
   29200 WT2  1714 TIP3 H2   HT     0.417000        1.0080           0
   29201 WT2  1715 TIP3 OH2  OT    -0.834000       15.9994           0
   29202 WT2  1715 TIP3 H1   HT     0.417000        1.0080           0
   29203 WT2  1715 TIP3 H2   HT     0.417000        1.0080           0
   29204 WT2  1717 TIP3 OH2  OT    -0.834000       15.9994           0
   29205 WT2  1717 TIP3 H1   HT     0.417000        1.0080           0
   29206 WT2  1717 TIP3 H2   HT     0.417000        1.0080           0
   29207 WT2  1719 TIP3 OH2  OT    -0.834000       15.9994           0
   29208 WT2  1719 TIP3 H1   HT     0.417000        1.0080           0
   29209 WT2  1719 TIP3 H2   HT     0.417000        1.0080           0
   29210 WT2  1720 TIP3 OH2  OT    -0.834000       15.9994           0
   29211 WT2  1720 TIP3 H1   HT     0.417000        1.0080           0
   29212 WT2  1720 TIP3 H2   HT     0.417000        1.0080           0
   29213 WT2  1721 TIP3 OH2  OT    -0.834000       15.9994           0
   29214 WT2  1721 TIP3 H1   HT     0.417000        1.0080           0
   29215 WT2  1721 TIP3 H2   HT     0.417000        1.0080           0
   29216 WT2  1722 TIP3 OH2  OT    -0.834000       15.9994           0
   29217 WT2  1722 TIP3 H1   HT     0.417000        1.0080           0
   29218 WT2  1722 TIP3 H2   HT     0.417000        1.0080           0
   29219 WT2  1723 TIP3 OH2  OT    -0.834000       15.9994           0
   29220 WT2  1723 TIP3 H1   HT     0.417000        1.0080           0
   29221 WT2  1723 TIP3 H2   HT     0.417000        1.0080           0
   29222 WT2  1724 TIP3 OH2  OT    -0.834000       15.9994           0
   29223 WT2  1724 TIP3 H1   HT     0.417000        1.0080           0
   29224 WT2  1724 TIP3 H2   HT     0.417000        1.0080           0
   29225 WT2  1725 TIP3 OH2  OT    -0.834000       15.9994           0
   29226 WT2  1725 TIP3 H1   HT     0.417000        1.0080           0
   29227 WT2  1725 TIP3 H2   HT     0.417000        1.0080           0
   29228 WT2  1726 TIP3 OH2  OT    -0.834000       15.9994           0
   29229 WT2  1726 TIP3 H1   HT     0.417000        1.0080           0
   29230 WT2  1726 TIP3 H2   HT     0.417000        1.0080           0
   29231 WT2  1727 TIP3 OH2  OT    -0.834000       15.9994           0
   29232 WT2  1727 TIP3 H1   HT     0.417000        1.0080           0
   29233 WT2  1727 TIP3 H2   HT     0.417000        1.0080           0
   29234 WT2  1728 TIP3 OH2  OT    -0.834000       15.9994           0
   29235 WT2  1728 TIP3 H1   HT     0.417000        1.0080           0
   29236 WT2  1728 TIP3 H2   HT     0.417000        1.0080           0
   29237 WT2  1730 TIP3 OH2  OT    -0.834000       15.9994           0
   29238 WT2  1730 TIP3 H1   HT     0.417000        1.0080           0
   29239 WT2  1730 TIP3 H2   HT     0.417000        1.0080           0
   29240 WT2  1731 TIP3 OH2  OT    -0.834000       15.9994           0
   29241 WT2  1731 TIP3 H1   HT     0.417000        1.0080           0
   29242 WT2  1731 TIP3 H2   HT     0.417000        1.0080           0
   29243 WT2  1732 TIP3 OH2  OT    -0.834000       15.9994           0
   29244 WT2  1732 TIP3 H1   HT     0.417000        1.0080           0
   29245 WT2  1732 TIP3 H2   HT     0.417000        1.0080           0
   29246 WT2  1733 TIP3 OH2  OT    -0.834000       15.9994           0
   29247 WT2  1733 TIP3 H1   HT     0.417000        1.0080           0
   29248 WT2  1733 TIP3 H2   HT     0.417000        1.0080           0
   29249 WT2  1734 TIP3 OH2  OT    -0.834000       15.9994           0
   29250 WT2  1734 TIP3 H1   HT     0.417000        1.0080           0
   29251 WT2  1734 TIP3 H2   HT     0.417000        1.0080           0
   29252 WT2  1735 TIP3 OH2  OT    -0.834000       15.9994           0
   29253 WT2  1735 TIP3 H1   HT     0.417000        1.0080           0
   29254 WT2  1735 TIP3 H2   HT     0.417000        1.0080           0
   29255 WT2  1736 TIP3 OH2  OT    -0.834000       15.9994           0
   29256 WT2  1736 TIP3 H1   HT     0.417000        1.0080           0
   29257 WT2  1736 TIP3 H2   HT     0.417000        1.0080           0
   29258 WT2  1737 TIP3 OH2  OT    -0.834000       15.9994           0
   29259 WT2  1737 TIP3 H1   HT     0.417000        1.0080           0
   29260 WT2  1737 TIP3 H2   HT     0.417000        1.0080           0
   29261 WT2  1738 TIP3 OH2  OT    -0.834000       15.9994           0
   29262 WT2  1738 TIP3 H1   HT     0.417000        1.0080           0
   29263 WT2  1738 TIP3 H2   HT     0.417000        1.0080           0
   29264 WT2  1739 TIP3 OH2  OT    -0.834000       15.9994           0
   29265 WT2  1739 TIP3 H1   HT     0.417000        1.0080           0
   29266 WT2  1739 TIP3 H2   HT     0.417000        1.0080           0
   29267 WT2  1742 TIP3 OH2  OT    -0.834000       15.9994           0
   29268 WT2  1742 TIP3 H1   HT     0.417000        1.0080           0
   29269 WT2  1742 TIP3 H2   HT     0.417000        1.0080           0
   29270 WT2  1743 TIP3 OH2  OT    -0.834000       15.9994           0
   29271 WT2  1743 TIP3 H1   HT     0.417000        1.0080           0
   29272 WT2  1743 TIP3 H2   HT     0.417000        1.0080           0
   29273 WT2  1744 TIP3 OH2  OT    -0.834000       15.9994           0
   29274 WT2  1744 TIP3 H1   HT     0.417000        1.0080           0
   29275 WT2  1744 TIP3 H2   HT     0.417000        1.0080           0
   29276 WT2  1745 TIP3 OH2  OT    -0.834000       15.9994           0
   29277 WT2  1745 TIP3 H1   HT     0.417000        1.0080           0
   29278 WT2  1745 TIP3 H2   HT     0.417000        1.0080           0
   29279 WT2  1746 TIP3 OH2  OT    -0.834000       15.9994           0
   29280 WT2  1746 TIP3 H1   HT     0.417000        1.0080           0
   29281 WT2  1746 TIP3 H2   HT     0.417000        1.0080           0
   29282 WT2  1747 TIP3 OH2  OT    -0.834000       15.9994           0
   29283 WT2  1747 TIP3 H1   HT     0.417000        1.0080           0
   29284 WT2  1747 TIP3 H2   HT     0.417000        1.0080           0
   29285 WT2  1748 TIP3 OH2  OT    -0.834000       15.9994           0
   29286 WT2  1748 TIP3 H1   HT     0.417000        1.0080           0
   29287 WT2  1748 TIP3 H2   HT     0.417000        1.0080           0
   29288 WT2  1749 TIP3 OH2  OT    -0.834000       15.9994           0
   29289 WT2  1749 TIP3 H1   HT     0.417000        1.0080           0
   29290 WT2  1749 TIP3 H2   HT     0.417000        1.0080           0
   29291 WT2  1750 TIP3 OH2  OT    -0.834000       15.9994           0
   29292 WT2  1750 TIP3 H1   HT     0.417000        1.0080           0
   29293 WT2  1750 TIP3 H2   HT     0.417000        1.0080           0
   29294 WT2  1751 TIP3 OH2  OT    -0.834000       15.9994           0
   29295 WT2  1751 TIP3 H1   HT     0.417000        1.0080           0
   29296 WT2  1751 TIP3 H2   HT     0.417000        1.0080           0
   29297 WT2  1752 TIP3 OH2  OT    -0.834000       15.9994           0
   29298 WT2  1752 TIP3 H1   HT     0.417000        1.0080           0
   29299 WT2  1752 TIP3 H2   HT     0.417000        1.0080           0
   29300 WT2  1753 TIP3 OH2  OT    -0.834000       15.9994           0
   29301 WT2  1753 TIP3 H1   HT     0.417000        1.0080           0
   29302 WT2  1753 TIP3 H2   HT     0.417000        1.0080           0
   29303 WT2  1754 TIP3 OH2  OT    -0.834000       15.9994           0
   29304 WT2  1754 TIP3 H1   HT     0.417000        1.0080           0
   29305 WT2  1754 TIP3 H2   HT     0.417000        1.0080           0
   29306 WT2  1755 TIP3 OH2  OT    -0.834000       15.9994           0
   29307 WT2  1755 TIP3 H1   HT     0.417000        1.0080           0
   29308 WT2  1755 TIP3 H2   HT     0.417000        1.0080           0
   29309 WT2  1756 TIP3 OH2  OT    -0.834000       15.9994           0
   29310 WT2  1756 TIP3 H1   HT     0.417000        1.0080           0
   29311 WT2  1756 TIP3 H2   HT     0.417000        1.0080           0
   29312 WT2  1758 TIP3 OH2  OT    -0.834000       15.9994           0
   29313 WT2  1758 TIP3 H1   HT     0.417000        1.0080           0
   29314 WT2  1758 TIP3 H2   HT     0.417000        1.0080           0
   29315 WT2  1761 TIP3 OH2  OT    -0.834000       15.9994           0
   29316 WT2  1761 TIP3 H1   HT     0.417000        1.0080           0
   29317 WT2  1761 TIP3 H2   HT     0.417000        1.0080           0
   29318 WT2  1762 TIP3 OH2  OT    -0.834000       15.9994           0
   29319 WT2  1762 TIP3 H1   HT     0.417000        1.0080           0
   29320 WT2  1762 TIP3 H2   HT     0.417000        1.0080           0
   29321 WT2  1763 TIP3 OH2  OT    -0.834000       15.9994           0
   29322 WT2  1763 TIP3 H1   HT     0.417000        1.0080           0
   29323 WT2  1763 TIP3 H2   HT     0.417000        1.0080           0
   29324 WT2  1764 TIP3 OH2  OT    -0.834000       15.9994           0
   29325 WT2  1764 TIP3 H1   HT     0.417000        1.0080           0
   29326 WT2  1764 TIP3 H2   HT     0.417000        1.0080           0
   29327 WT2  1765 TIP3 OH2  OT    -0.834000       15.9994           0
   29328 WT2  1765 TIP3 H1   HT     0.417000        1.0080           0
   29329 WT2  1765 TIP3 H2   HT     0.417000        1.0080           0
   29330 WT2  1766 TIP3 OH2  OT    -0.834000       15.9994           0
   29331 WT2  1766 TIP3 H1   HT     0.417000        1.0080           0
   29332 WT2  1766 TIP3 H2   HT     0.417000        1.0080           0
   29333 WT2  1768 TIP3 OH2  OT    -0.834000       15.9994           0
   29334 WT2  1768 TIP3 H1   HT     0.417000        1.0080           0
   29335 WT2  1768 TIP3 H2   HT     0.417000        1.0080           0
   29336 WT2  1769 TIP3 OH2  OT    -0.834000       15.9994           0
   29337 WT2  1769 TIP3 H1   HT     0.417000        1.0080           0
   29338 WT2  1769 TIP3 H2   HT     0.417000        1.0080           0
   29339 WT2  1770 TIP3 OH2  OT    -0.834000       15.9994           0
   29340 WT2  1770 TIP3 H1   HT     0.417000        1.0080           0
   29341 WT2  1770 TIP3 H2   HT     0.417000        1.0080           0
   29342 WT2  1771 TIP3 OH2  OT    -0.834000       15.9994           0
   29343 WT2  1771 TIP3 H1   HT     0.417000        1.0080           0
   29344 WT2  1771 TIP3 H2   HT     0.417000        1.0080           0
   29345 WT2  1772 TIP3 OH2  OT    -0.834000       15.9994           0
   29346 WT2  1772 TIP3 H1   HT     0.417000        1.0080           0
   29347 WT2  1772 TIP3 H2   HT     0.417000        1.0080           0
   29348 WT2  1773 TIP3 OH2  OT    -0.834000       15.9994           0
   29349 WT2  1773 TIP3 H1   HT     0.417000        1.0080           0
   29350 WT2  1773 TIP3 H2   HT     0.417000        1.0080           0
   29351 WT2  1774 TIP3 OH2  OT    -0.834000       15.9994           0
   29352 WT2  1774 TIP3 H1   HT     0.417000        1.0080           0
   29353 WT2  1774 TIP3 H2   HT     0.417000        1.0080           0
   29354 WT2  1775 TIP3 OH2  OT    -0.834000       15.9994           0
   29355 WT2  1775 TIP3 H1   HT     0.417000        1.0080           0
   29356 WT2  1775 TIP3 H2   HT     0.417000        1.0080           0
   29357 WT2  1776 TIP3 OH2  OT    -0.834000       15.9994           0
   29358 WT2  1776 TIP3 H1   HT     0.417000        1.0080           0
   29359 WT2  1776 TIP3 H2   HT     0.417000        1.0080           0
   29360 WT2  1777 TIP3 OH2  OT    -0.834000       15.9994           0
   29361 WT2  1777 TIP3 H1   HT     0.417000        1.0080           0
   29362 WT2  1777 TIP3 H2   HT     0.417000        1.0080           0
   29363 WT2  1779 TIP3 OH2  OT    -0.834000       15.9994           0
   29364 WT2  1779 TIP3 H1   HT     0.417000        1.0080           0
   29365 WT2  1779 TIP3 H2   HT     0.417000        1.0080           0
   29366 WT2  1780 TIP3 OH2  OT    -0.834000       15.9994           0
   29367 WT2  1780 TIP3 H1   HT     0.417000        1.0080           0
   29368 WT2  1780 TIP3 H2   HT     0.417000        1.0080           0
   29369 WT2  1781 TIP3 OH2  OT    -0.834000       15.9994           0
   29370 WT2  1781 TIP3 H1   HT     0.417000        1.0080           0
   29371 WT2  1781 TIP3 H2   HT     0.417000        1.0080           0
   29372 WT2  1783 TIP3 OH2  OT    -0.834000       15.9994           0
   29373 WT2  1783 TIP3 H1   HT     0.417000        1.0080           0
   29374 WT2  1783 TIP3 H2   HT     0.417000        1.0080           0
   29375 WT2  1784 TIP3 OH2  OT    -0.834000       15.9994           0
   29376 WT2  1784 TIP3 H1   HT     0.417000        1.0080           0
   29377 WT2  1784 TIP3 H2   HT     0.417000        1.0080           0
   29378 WT2  1785 TIP3 OH2  OT    -0.834000       15.9994           0
   29379 WT2  1785 TIP3 H1   HT     0.417000        1.0080           0
   29380 WT2  1785 TIP3 H2   HT     0.417000        1.0080           0
   29381 WT2  1786 TIP3 OH2  OT    -0.834000       15.9994           0
   29382 WT2  1786 TIP3 H1   HT     0.417000        1.0080           0
   29383 WT2  1786 TIP3 H2   HT     0.417000        1.0080           0
   29384 WT2  1787 TIP3 OH2  OT    -0.834000       15.9994           0
   29385 WT2  1787 TIP3 H1   HT     0.417000        1.0080           0
   29386 WT2  1787 TIP3 H2   HT     0.417000        1.0080           0
   29387 WT2  1788 TIP3 OH2  OT    -0.834000       15.9994           0
   29388 WT2  1788 TIP3 H1   HT     0.417000        1.0080           0
   29389 WT2  1788 TIP3 H2   HT     0.417000        1.0080           0
   29390 WT2  1789 TIP3 OH2  OT    -0.834000       15.9994           0
   29391 WT2  1789 TIP3 H1   HT     0.417000        1.0080           0
   29392 WT2  1789 TIP3 H2   HT     0.417000        1.0080           0
   29393 WT2  1790 TIP3 OH2  OT    -0.834000       15.9994           0
   29394 WT2  1790 TIP3 H1   HT     0.417000        1.0080           0
   29395 WT2  1790 TIP3 H2   HT     0.417000        1.0080           0
   29396 WT2  1793 TIP3 OH2  OT    -0.834000       15.9994           0
   29397 WT2  1793 TIP3 H1   HT     0.417000        1.0080           0
   29398 WT2  1793 TIP3 H2   HT     0.417000        1.0080           0
   29399 WT2  1794 TIP3 OH2  OT    -0.834000       15.9994           0
   29400 WT2  1794 TIP3 H1   HT     0.417000        1.0080           0
   29401 WT2  1794 TIP3 H2   HT     0.417000        1.0080           0
   29402 WT2  1795 TIP3 OH2  OT    -0.834000       15.9994           0
   29403 WT2  1795 TIP3 H1   HT     0.417000        1.0080           0
   29404 WT2  1795 TIP3 H2   HT     0.417000        1.0080           0
   29405 WT2  1796 TIP3 OH2  OT    -0.834000       15.9994           0
   29406 WT2  1796 TIP3 H1   HT     0.417000        1.0080           0
   29407 WT2  1796 TIP3 H2   HT     0.417000        1.0080           0
   29408 WT2  1797 TIP3 OH2  OT    -0.834000       15.9994           0
   29409 WT2  1797 TIP3 H1   HT     0.417000        1.0080           0
   29410 WT2  1797 TIP3 H2   HT     0.417000        1.0080           0
   29411 WT2  1799 TIP3 OH2  OT    -0.834000       15.9994           0
   29412 WT2  1799 TIP3 H1   HT     0.417000        1.0080           0
   29413 WT2  1799 TIP3 H2   HT     0.417000        1.0080           0
   29414 WT2  1800 TIP3 OH2  OT    -0.834000       15.9994           0
   29415 WT2  1800 TIP3 H1   HT     0.417000        1.0080           0
   29416 WT2  1800 TIP3 H2   HT     0.417000        1.0080           0
   29417 WT2  1801 TIP3 OH2  OT    -0.834000       15.9994           0
   29418 WT2  1801 TIP3 H1   HT     0.417000        1.0080           0
   29419 WT2  1801 TIP3 H2   HT     0.417000        1.0080           0
   29420 WT2  1802 TIP3 OH2  OT    -0.834000       15.9994           0
   29421 WT2  1802 TIP3 H1   HT     0.417000        1.0080           0
   29422 WT2  1802 TIP3 H2   HT     0.417000        1.0080           0
   29423 WT2  1803 TIP3 OH2  OT    -0.834000       15.9994           0
   29424 WT2  1803 TIP3 H1   HT     0.417000        1.0080           0
   29425 WT2  1803 TIP3 H2   HT     0.417000        1.0080           0
   29426 WT2  1804 TIP3 OH2  OT    -0.834000       15.9994           0
   29427 WT2  1804 TIP3 H1   HT     0.417000        1.0080           0
   29428 WT2  1804 TIP3 H2   HT     0.417000        1.0080           0
   29429 WT2  1805 TIP3 OH2  OT    -0.834000       15.9994           0
   29430 WT2  1805 TIP3 H1   HT     0.417000        1.0080           0
   29431 WT2  1805 TIP3 H2   HT     0.417000        1.0080           0
   29432 WT2  1806 TIP3 OH2  OT    -0.834000       15.9994           0
   29433 WT2  1806 TIP3 H1   HT     0.417000        1.0080           0
   29434 WT2  1806 TIP3 H2   HT     0.417000        1.0080           0
   29435 WT2  1807 TIP3 OH2  OT    -0.834000       15.9994           0
   29436 WT2  1807 TIP3 H1   HT     0.417000        1.0080           0
   29437 WT2  1807 TIP3 H2   HT     0.417000        1.0080           0
   29438 WT2  1808 TIP3 OH2  OT    -0.834000       15.9994           0
   29439 WT2  1808 TIP3 H1   HT     0.417000        1.0080           0
   29440 WT2  1808 TIP3 H2   HT     0.417000        1.0080           0
   29441 WT2  1809 TIP3 OH2  OT    -0.834000       15.9994           0
   29442 WT2  1809 TIP3 H1   HT     0.417000        1.0080           0
   29443 WT2  1809 TIP3 H2   HT     0.417000        1.0080           0
   29444 WT2  1810 TIP3 OH2  OT    -0.834000       15.9994           0
   29445 WT2  1810 TIP3 H1   HT     0.417000        1.0080           0
   29446 WT2  1810 TIP3 H2   HT     0.417000        1.0080           0
   29447 WT2  1811 TIP3 OH2  OT    -0.834000       15.9994           0
   29448 WT2  1811 TIP3 H1   HT     0.417000        1.0080           0
   29449 WT2  1811 TIP3 H2   HT     0.417000        1.0080           0
   29450 WT2  1812 TIP3 OH2  OT    -0.834000       15.9994           0
   29451 WT2  1812 TIP3 H1   HT     0.417000        1.0080           0
   29452 WT2  1812 TIP3 H2   HT     0.417000        1.0080           0
   29453 WT2  1813 TIP3 OH2  OT    -0.834000       15.9994           0
   29454 WT2  1813 TIP3 H1   HT     0.417000        1.0080           0
   29455 WT2  1813 TIP3 H2   HT     0.417000        1.0080           0
   29456 WT2  1814 TIP3 OH2  OT    -0.834000       15.9994           0
   29457 WT2  1814 TIP3 H1   HT     0.417000        1.0080           0
   29458 WT2  1814 TIP3 H2   HT     0.417000        1.0080           0
   29459 WT2  1815 TIP3 OH2  OT    -0.834000       15.9994           0
   29460 WT2  1815 TIP3 H1   HT     0.417000        1.0080           0
   29461 WT2  1815 TIP3 H2   HT     0.417000        1.0080           0
   29462 WT2  1816 TIP3 OH2  OT    -0.834000       15.9994           0
   29463 WT2  1816 TIP3 H1   HT     0.417000        1.0080           0
   29464 WT2  1816 TIP3 H2   HT     0.417000        1.0080           0
   29465 WT2  1817 TIP3 OH2  OT    -0.834000       15.9994           0
   29466 WT2  1817 TIP3 H1   HT     0.417000        1.0080           0
   29467 WT2  1817 TIP3 H2   HT     0.417000        1.0080           0
   29468 WT2  1818 TIP3 OH2  OT    -0.834000       15.9994           0
   29469 WT2  1818 TIP3 H1   HT     0.417000        1.0080           0
   29470 WT2  1818 TIP3 H2   HT     0.417000        1.0080           0
   29471 WT2  1819 TIP3 OH2  OT    -0.834000       15.9994           0
   29472 WT2  1819 TIP3 H1   HT     0.417000        1.0080           0
   29473 WT2  1819 TIP3 H2   HT     0.417000        1.0080           0
   29474 WT2  1820 TIP3 OH2  OT    -0.834000       15.9994           0
   29475 WT2  1820 TIP3 H1   HT     0.417000        1.0080           0
   29476 WT2  1820 TIP3 H2   HT     0.417000        1.0080           0
   29477 WT2  1821 TIP3 OH2  OT    -0.834000       15.9994           0
   29478 WT2  1821 TIP3 H1   HT     0.417000        1.0080           0
   29479 WT2  1821 TIP3 H2   HT     0.417000        1.0080           0
   29480 WT2  1822 TIP3 OH2  OT    -0.834000       15.9994           0
   29481 WT2  1822 TIP3 H1   HT     0.417000        1.0080           0
   29482 WT2  1822 TIP3 H2   HT     0.417000        1.0080           0
   29483 WT2  1823 TIP3 OH2  OT    -0.834000       15.9994           0
   29484 WT2  1823 TIP3 H1   HT     0.417000        1.0080           0
   29485 WT2  1823 TIP3 H2   HT     0.417000        1.0080           0
   29486 WT2  1824 TIP3 OH2  OT    -0.834000       15.9994           0
   29487 WT2  1824 TIP3 H1   HT     0.417000        1.0080           0
   29488 WT2  1824 TIP3 H2   HT     0.417000        1.0080           0
   29489 WT2  1825 TIP3 OH2  OT    -0.834000       15.9994           0
   29490 WT2  1825 TIP3 H1   HT     0.417000        1.0080           0
   29491 WT2  1825 TIP3 H2   HT     0.417000        1.0080           0
   29492 WT2  1826 TIP3 OH2  OT    -0.834000       15.9994           0
   29493 WT2  1826 TIP3 H1   HT     0.417000        1.0080           0
   29494 WT2  1826 TIP3 H2   HT     0.417000        1.0080           0
   29495 WT2  1827 TIP3 OH2  OT    -0.834000       15.9994           0
   29496 WT2  1827 TIP3 H1   HT     0.417000        1.0080           0
   29497 WT2  1827 TIP3 H2   HT     0.417000        1.0080           0
   29498 WT2  1828 TIP3 OH2  OT    -0.834000       15.9994           0
   29499 WT2  1828 TIP3 H1   HT     0.417000        1.0080           0
   29500 WT2  1828 TIP3 H2   HT     0.417000        1.0080           0
   29501 WT2  1829 TIP3 OH2  OT    -0.834000       15.9994           0
   29502 WT2  1829 TIP3 H1   HT     0.417000        1.0080           0
   29503 WT2  1829 TIP3 H2   HT     0.417000        1.0080           0
   29504 WT2  1830 TIP3 OH2  OT    -0.834000       15.9994           0
   29505 WT2  1830 TIP3 H1   HT     0.417000        1.0080           0
   29506 WT2  1830 TIP3 H2   HT     0.417000        1.0080           0
   29507 WT2  1831 TIP3 OH2  OT    -0.834000       15.9994           0
   29508 WT2  1831 TIP3 H1   HT     0.417000        1.0080           0
   29509 WT2  1831 TIP3 H2   HT     0.417000        1.0080           0
   29510 WT2  1832 TIP3 OH2  OT    -0.834000       15.9994           0
   29511 WT2  1832 TIP3 H1   HT     0.417000        1.0080           0
   29512 WT2  1832 TIP3 H2   HT     0.417000        1.0080           0
   29513 WT2  1833 TIP3 OH2  OT    -0.834000       15.9994           0
   29514 WT2  1833 TIP3 H1   HT     0.417000        1.0080           0
   29515 WT2  1833 TIP3 H2   HT     0.417000        1.0080           0
   29516 WT2  1834 TIP3 OH2  OT    -0.834000       15.9994           0
   29517 WT2  1834 TIP3 H1   HT     0.417000        1.0080           0
   29518 WT2  1834 TIP3 H2   HT     0.417000        1.0080           0
   29519 WT2  1836 TIP3 OH2  OT    -0.834000       15.9994           0
   29520 WT2  1836 TIP3 H1   HT     0.417000        1.0080           0
   29521 WT2  1836 TIP3 H2   HT     0.417000        1.0080           0
   29522 WT2  1838 TIP3 OH2  OT    -0.834000       15.9994           0
   29523 WT2  1838 TIP3 H1   HT     0.417000        1.0080           0
   29524 WT2  1838 TIP3 H2   HT     0.417000        1.0080           0
   29525 WT2  1839 TIP3 OH2  OT    -0.834000       15.9994           0
   29526 WT2  1839 TIP3 H1   HT     0.417000        1.0080           0
   29527 WT2  1839 TIP3 H2   HT     0.417000        1.0080           0
   29528 WT2  1840 TIP3 OH2  OT    -0.834000       15.9994           0
   29529 WT2  1840 TIP3 H1   HT     0.417000        1.0080           0
   29530 WT2  1840 TIP3 H2   HT     0.417000        1.0080           0
   29531 WT2  1841 TIP3 OH2  OT    -0.834000       15.9994           0
   29532 WT2  1841 TIP3 H1   HT     0.417000        1.0080           0
   29533 WT2  1841 TIP3 H2   HT     0.417000        1.0080           0
   29534 WT2  1842 TIP3 OH2  OT    -0.834000       15.9994           0
   29535 WT2  1842 TIP3 H1   HT     0.417000        1.0080           0
   29536 WT2  1842 TIP3 H2   HT     0.417000        1.0080           0
   29537 WT2  1843 TIP3 OH2  OT    -0.834000       15.9994           0
   29538 WT2  1843 TIP3 H1   HT     0.417000        1.0080           0
   29539 WT2  1843 TIP3 H2   HT     0.417000        1.0080           0
   29540 WT2  1844 TIP3 OH2  OT    -0.834000       15.9994           0
   29541 WT2  1844 TIP3 H1   HT     0.417000        1.0080           0
   29542 WT2  1844 TIP3 H2   HT     0.417000        1.0080           0
   29543 WT2  1845 TIP3 OH2  OT    -0.834000       15.9994           0
   29544 WT2  1845 TIP3 H1   HT     0.417000        1.0080           0
   29545 WT2  1845 TIP3 H2   HT     0.417000        1.0080           0
   29546 WT2  1847 TIP3 OH2  OT    -0.834000       15.9994           0
   29547 WT2  1847 TIP3 H1   HT     0.417000        1.0080           0
   29548 WT2  1847 TIP3 H2   HT     0.417000        1.0080           0
   29549 WT2  1848 TIP3 OH2  OT    -0.834000       15.9994           0
   29550 WT2  1848 TIP3 H1   HT     0.417000        1.0080           0
   29551 WT2  1848 TIP3 H2   HT     0.417000        1.0080           0
   29552 WT2  1850 TIP3 OH2  OT    -0.834000       15.9994           0
   29553 WT2  1850 TIP3 H1   HT     0.417000        1.0080           0
   29554 WT2  1850 TIP3 H2   HT     0.417000        1.0080           0
   29555 WT2  1851 TIP3 OH2  OT    -0.834000       15.9994           0
   29556 WT2  1851 TIP3 H1   HT     0.417000        1.0080           0
   29557 WT2  1851 TIP3 H2   HT     0.417000        1.0080           0
   29558 WT2  1852 TIP3 OH2  OT    -0.834000       15.9994           0
   29559 WT2  1852 TIP3 H1   HT     0.417000        1.0080           0
   29560 WT2  1852 TIP3 H2   HT     0.417000        1.0080           0
   29561 WT2  1853 TIP3 OH2  OT    -0.834000       15.9994           0
   29562 WT2  1853 TIP3 H1   HT     0.417000        1.0080           0
   29563 WT2  1853 TIP3 H2   HT     0.417000        1.0080           0
   29564 WT2  1855 TIP3 OH2  OT    -0.834000       15.9994           0
   29565 WT2  1855 TIP3 H1   HT     0.417000        1.0080           0
   29566 WT2  1855 TIP3 H2   HT     0.417000        1.0080           0
   29567 WT2  1856 TIP3 OH2  OT    -0.834000       15.9994           0
   29568 WT2  1856 TIP3 H1   HT     0.417000        1.0080           0
   29569 WT2  1856 TIP3 H2   HT     0.417000        1.0080           0
   29570 WT2  1857 TIP3 OH2  OT    -0.834000       15.9994           0
   29571 WT2  1857 TIP3 H1   HT     0.417000        1.0080           0
   29572 WT2  1857 TIP3 H2   HT     0.417000        1.0080           0
   29573 WT2  1858 TIP3 OH2  OT    -0.834000       15.9994           0
   29574 WT2  1858 TIP3 H1   HT     0.417000        1.0080           0
   29575 WT2  1858 TIP3 H2   HT     0.417000        1.0080           0
   29576 WT2  1860 TIP3 OH2  OT    -0.834000       15.9994           0
   29577 WT2  1860 TIP3 H1   HT     0.417000        1.0080           0
   29578 WT2  1860 TIP3 H2   HT     0.417000        1.0080           0
   29579 WT2  1862 TIP3 OH2  OT    -0.834000       15.9994           0
   29580 WT2  1862 TIP3 H1   HT     0.417000        1.0080           0
   29581 WT2  1862 TIP3 H2   HT     0.417000        1.0080           0
   29582 WT2  1863 TIP3 OH2  OT    -0.834000       15.9994           0
   29583 WT2  1863 TIP3 H1   HT     0.417000        1.0080           0
   29584 WT2  1863 TIP3 H2   HT     0.417000        1.0080           0
   29585 WT2  1864 TIP3 OH2  OT    -0.834000       15.9994           0
   29586 WT2  1864 TIP3 H1   HT     0.417000        1.0080           0
   29587 WT2  1864 TIP3 H2   HT     0.417000        1.0080           0
   29588 WT2  1865 TIP3 OH2  OT    -0.834000       15.9994           0
   29589 WT2  1865 TIP3 H1   HT     0.417000        1.0080           0
   29590 WT2  1865 TIP3 H2   HT     0.417000        1.0080           0
   29591 WT2  1866 TIP3 OH2  OT    -0.834000       15.9994           0
   29592 WT2  1866 TIP3 H1   HT     0.417000        1.0080           0
   29593 WT2  1866 TIP3 H2   HT     0.417000        1.0080           0
   29594 WT2  1868 TIP3 OH2  OT    -0.834000       15.9994           0
   29595 WT2  1868 TIP3 H1   HT     0.417000        1.0080           0
   29596 WT2  1868 TIP3 H2   HT     0.417000        1.0080           0
   29597 WT2  1869 TIP3 OH2  OT    -0.834000       15.9994           0
   29598 WT2  1869 TIP3 H1   HT     0.417000        1.0080           0
   29599 WT2  1869 TIP3 H2   HT     0.417000        1.0080           0
   29600 WT2  1870 TIP3 OH2  OT    -0.834000       15.9994           0
   29601 WT2  1870 TIP3 H1   HT     0.417000        1.0080           0
   29602 WT2  1870 TIP3 H2   HT     0.417000        1.0080           0
   29603 WT2  1871 TIP3 OH2  OT    -0.834000       15.9994           0
   29604 WT2  1871 TIP3 H1   HT     0.417000        1.0080           0
   29605 WT2  1871 TIP3 H2   HT     0.417000        1.0080           0
   29606 WT2  1872 TIP3 OH2  OT    -0.834000       15.9994           0
   29607 WT2  1872 TIP3 H1   HT     0.417000        1.0080           0
   29608 WT2  1872 TIP3 H2   HT     0.417000        1.0080           0
   29609 WT2  1873 TIP3 OH2  OT    -0.834000       15.9994           0
   29610 WT2  1873 TIP3 H1   HT     0.417000        1.0080           0
   29611 WT2  1873 TIP3 H2   HT     0.417000        1.0080           0
   29612 WT2  1874 TIP3 OH2  OT    -0.834000       15.9994           0
   29613 WT2  1874 TIP3 H1   HT     0.417000        1.0080           0
   29614 WT2  1874 TIP3 H2   HT     0.417000        1.0080           0
   29615 WT2  1875 TIP3 OH2  OT    -0.834000       15.9994           0
   29616 WT2  1875 TIP3 H1   HT     0.417000        1.0080           0
   29617 WT2  1875 TIP3 H2   HT     0.417000        1.0080           0
   29618 WT2  1876 TIP3 OH2  OT    -0.834000       15.9994           0
   29619 WT2  1876 TIP3 H1   HT     0.417000        1.0080           0
   29620 WT2  1876 TIP3 H2   HT     0.417000        1.0080           0
   29621 WT2  1877 TIP3 OH2  OT    -0.834000       15.9994           0
   29622 WT2  1877 TIP3 H1   HT     0.417000        1.0080           0
   29623 WT2  1877 TIP3 H2   HT     0.417000        1.0080           0
   29624 WT2  1878 TIP3 OH2  OT    -0.834000       15.9994           0
   29625 WT2  1878 TIP3 H1   HT     0.417000        1.0080           0
   29626 WT2  1878 TIP3 H2   HT     0.417000        1.0080           0
   29627 WT2  1879 TIP3 OH2  OT    -0.834000       15.9994           0
   29628 WT2  1879 TIP3 H1   HT     0.417000        1.0080           0
   29629 WT2  1879 TIP3 H2   HT     0.417000        1.0080           0
   29630 WT2  1880 TIP3 OH2  OT    -0.834000       15.9994           0
   29631 WT2  1880 TIP3 H1   HT     0.417000        1.0080           0
   29632 WT2  1880 TIP3 H2   HT     0.417000        1.0080           0
   29633 WT2  1882 TIP3 OH2  OT    -0.834000       15.9994           0
   29634 WT2  1882 TIP3 H1   HT     0.417000        1.0080           0
   29635 WT2  1882 TIP3 H2   HT     0.417000        1.0080           0
   29636 WT2  1884 TIP3 OH2  OT    -0.834000       15.9994           0
   29637 WT2  1884 TIP3 H1   HT     0.417000        1.0080           0
   29638 WT2  1884 TIP3 H2   HT     0.417000        1.0080           0
   29639 WT2  1885 TIP3 OH2  OT    -0.834000       15.9994           0
   29640 WT2  1885 TIP3 H1   HT     0.417000        1.0080           0
   29641 WT2  1885 TIP3 H2   HT     0.417000        1.0080           0
   29642 WT2  1886 TIP3 OH2  OT    -0.834000       15.9994           0
   29643 WT2  1886 TIP3 H1   HT     0.417000        1.0080           0
   29644 WT2  1886 TIP3 H2   HT     0.417000        1.0080           0
   29645 WT2  1888 TIP3 OH2  OT    -0.834000       15.9994           0
   29646 WT2  1888 TIP3 H1   HT     0.417000        1.0080           0
   29647 WT2  1888 TIP3 H2   HT     0.417000        1.0080           0
   29648 WT2  1889 TIP3 OH2  OT    -0.834000       15.9994           0
   29649 WT2  1889 TIP3 H1   HT     0.417000        1.0080           0
   29650 WT2  1889 TIP3 H2   HT     0.417000        1.0080           0
   29651 WT2  1890 TIP3 OH2  OT    -0.834000       15.9994           0
   29652 WT2  1890 TIP3 H1   HT     0.417000        1.0080           0
   29653 WT2  1890 TIP3 H2   HT     0.417000        1.0080           0
   29654 WT2  1892 TIP3 OH2  OT    -0.834000       15.9994           0
   29655 WT2  1892 TIP3 H1   HT     0.417000        1.0080           0
   29656 WT2  1892 TIP3 H2   HT     0.417000        1.0080           0
   29657 WT2  1893 TIP3 OH2  OT    -0.834000       15.9994           0
   29658 WT2  1893 TIP3 H1   HT     0.417000        1.0080           0
   29659 WT2  1893 TIP3 H2   HT     0.417000        1.0080           0
   29660 WT2  1894 TIP3 OH2  OT    -0.834000       15.9994           0
   29661 WT2  1894 TIP3 H1   HT     0.417000        1.0080           0
   29662 WT2  1894 TIP3 H2   HT     0.417000        1.0080           0
   29663 WT2  1895 TIP3 OH2  OT    -0.834000       15.9994           0
   29664 WT2  1895 TIP3 H1   HT     0.417000        1.0080           0
   29665 WT2  1895 TIP3 H2   HT     0.417000        1.0080           0
   29666 WT2  1897 TIP3 OH2  OT    -0.834000       15.9994           0
   29667 WT2  1897 TIP3 H1   HT     0.417000        1.0080           0
   29668 WT2  1897 TIP3 H2   HT     0.417000        1.0080           0
   29669 WT2  1898 TIP3 OH2  OT    -0.834000       15.9994           0
   29670 WT2  1898 TIP3 H1   HT     0.417000        1.0080           0
   29671 WT2  1898 TIP3 H2   HT     0.417000        1.0080           0
   29672 WT2  1899 TIP3 OH2  OT    -0.834000       15.9994           0
   29673 WT2  1899 TIP3 H1   HT     0.417000        1.0080           0
   29674 WT2  1899 TIP3 H2   HT     0.417000        1.0080           0
   29675 WT2  1900 TIP3 OH2  OT    -0.834000       15.9994           0
   29676 WT2  1900 TIP3 H1   HT     0.417000        1.0080           0
   29677 WT2  1900 TIP3 H2   HT     0.417000        1.0080           0
   29678 WT2  1901 TIP3 OH2  OT    -0.834000       15.9994           0
   29679 WT2  1901 TIP3 H1   HT     0.417000        1.0080           0
   29680 WT2  1901 TIP3 H2   HT     0.417000        1.0080           0
   29681 WT2  1902 TIP3 OH2  OT    -0.834000       15.9994           0
   29682 WT2  1902 TIP3 H1   HT     0.417000        1.0080           0
   29683 WT2  1902 TIP3 H2   HT     0.417000        1.0080           0
   29684 WT2  1903 TIP3 OH2  OT    -0.834000       15.9994           0
   29685 WT2  1903 TIP3 H1   HT     0.417000        1.0080           0
   29686 WT2  1903 TIP3 H2   HT     0.417000        1.0080           0
   29687 WT2  1904 TIP3 OH2  OT    -0.834000       15.9994           0
   29688 WT2  1904 TIP3 H1   HT     0.417000        1.0080           0
   29689 WT2  1904 TIP3 H2   HT     0.417000        1.0080           0
   29690 WT2  1905 TIP3 OH2  OT    -0.834000       15.9994           0
   29691 WT2  1905 TIP3 H1   HT     0.417000        1.0080           0
   29692 WT2  1905 TIP3 H2   HT     0.417000        1.0080           0
   29693 WT2  1906 TIP3 OH2  OT    -0.834000       15.9994           0
   29694 WT2  1906 TIP3 H1   HT     0.417000        1.0080           0
   29695 WT2  1906 TIP3 H2   HT     0.417000        1.0080           0
   29696 WT2  1907 TIP3 OH2  OT    -0.834000       15.9994           0
   29697 WT2  1907 TIP3 H1   HT     0.417000        1.0080           0
   29698 WT2  1907 TIP3 H2   HT     0.417000        1.0080           0
   29699 WT2  1908 TIP3 OH2  OT    -0.834000       15.9994           0
   29700 WT2  1908 TIP3 H1   HT     0.417000        1.0080           0
   29701 WT2  1908 TIP3 H2   HT     0.417000        1.0080           0
   29702 WT2  1909 TIP3 OH2  OT    -0.834000       15.9994           0
   29703 WT2  1909 TIP3 H1   HT     0.417000        1.0080           0
   29704 WT2  1909 TIP3 H2   HT     0.417000        1.0080           0
   29705 WT2  1910 TIP3 OH2  OT    -0.834000       15.9994           0
   29706 WT2  1910 TIP3 H1   HT     0.417000        1.0080           0
   29707 WT2  1910 TIP3 H2   HT     0.417000        1.0080           0
   29708 WT2  1912 TIP3 OH2  OT    -0.834000       15.9994           0
   29709 WT2  1912 TIP3 H1   HT     0.417000        1.0080           0
   29710 WT2  1912 TIP3 H2   HT     0.417000        1.0080           0
   29711 WT2  1913 TIP3 OH2  OT    -0.834000       15.9994           0
   29712 WT2  1913 TIP3 H1   HT     0.417000        1.0080           0
   29713 WT2  1913 TIP3 H2   HT     0.417000        1.0080           0
   29714 WT2  1914 TIP3 OH2  OT    -0.834000       15.9994           0
   29715 WT2  1914 TIP3 H1   HT     0.417000        1.0080           0
   29716 WT2  1914 TIP3 H2   HT     0.417000        1.0080           0
   29717 WT2  1915 TIP3 OH2  OT    -0.834000       15.9994           0
   29718 WT2  1915 TIP3 H1   HT     0.417000        1.0080           0
   29719 WT2  1915 TIP3 H2   HT     0.417000        1.0080           0
   29720 WT2  1916 TIP3 OH2  OT    -0.834000       15.9994           0
   29721 WT2  1916 TIP3 H1   HT     0.417000        1.0080           0
   29722 WT2  1916 TIP3 H2   HT     0.417000        1.0080           0
   29723 WT2  1917 TIP3 OH2  OT    -0.834000       15.9994           0
   29724 WT2  1917 TIP3 H1   HT     0.417000        1.0080           0
   29725 WT2  1917 TIP3 H2   HT     0.417000        1.0080           0
   29726 WT2  1918 TIP3 OH2  OT    -0.834000       15.9994           0
   29727 WT2  1918 TIP3 H1   HT     0.417000        1.0080           0
   29728 WT2  1918 TIP3 H2   HT     0.417000        1.0080           0
   29729 WT2  1919 TIP3 OH2  OT    -0.834000       15.9994           0
   29730 WT2  1919 TIP3 H1   HT     0.417000        1.0080           0
   29731 WT2  1919 TIP3 H2   HT     0.417000        1.0080           0
   29732 WT2  1920 TIP3 OH2  OT    -0.834000       15.9994           0
   29733 WT2  1920 TIP3 H1   HT     0.417000        1.0080           0
   29734 WT2  1920 TIP3 H2   HT     0.417000        1.0080           0
   29735 WT2  1921 TIP3 OH2  OT    -0.834000       15.9994           0
   29736 WT2  1921 TIP3 H1   HT     0.417000        1.0080           0
   29737 WT2  1921 TIP3 H2   HT     0.417000        1.0080           0
   29738 WT2  1922 TIP3 OH2  OT    -0.834000       15.9994           0
   29739 WT2  1922 TIP3 H1   HT     0.417000        1.0080           0
   29740 WT2  1922 TIP3 H2   HT     0.417000        1.0080           0
   29741 WT2  1924 TIP3 OH2  OT    -0.834000       15.9994           0
   29742 WT2  1924 TIP3 H1   HT     0.417000        1.0080           0
   29743 WT2  1924 TIP3 H2   HT     0.417000        1.0080           0
   29744 WT2  1925 TIP3 OH2  OT    -0.834000       15.9994           0
   29745 WT2  1925 TIP3 H1   HT     0.417000        1.0080           0
   29746 WT2  1925 TIP3 H2   HT     0.417000        1.0080           0
   29747 WT2  1926 TIP3 OH2  OT    -0.834000       15.9994           0
   29748 WT2  1926 TIP3 H1   HT     0.417000        1.0080           0
   29749 WT2  1926 TIP3 H2   HT     0.417000        1.0080           0
   29750 WT2  1927 TIP3 OH2  OT    -0.834000       15.9994           0
   29751 WT2  1927 TIP3 H1   HT     0.417000        1.0080           0
   29752 WT2  1927 TIP3 H2   HT     0.417000        1.0080           0
   29753 WT2  1928 TIP3 OH2  OT    -0.834000       15.9994           0
   29754 WT2  1928 TIP3 H1   HT     0.417000        1.0080           0
   29755 WT2  1928 TIP3 H2   HT     0.417000        1.0080           0
   29756 WT2  1930 TIP3 OH2  OT    -0.834000       15.9994           0
   29757 WT2  1930 TIP3 H1   HT     0.417000        1.0080           0
   29758 WT2  1930 TIP3 H2   HT     0.417000        1.0080           0
   29759 WT2  1931 TIP3 OH2  OT    -0.834000       15.9994           0
   29760 WT2  1931 TIP3 H1   HT     0.417000        1.0080           0
   29761 WT2  1931 TIP3 H2   HT     0.417000        1.0080           0
   29762 WT2  1932 TIP3 OH2  OT    -0.834000       15.9994           0
   29763 WT2  1932 TIP3 H1   HT     0.417000        1.0080           0
   29764 WT2  1932 TIP3 H2   HT     0.417000        1.0080           0
   29765 WT2  1933 TIP3 OH2  OT    -0.834000       15.9994           0
   29766 WT2  1933 TIP3 H1   HT     0.417000        1.0080           0
   29767 WT2  1933 TIP3 H2   HT     0.417000        1.0080           0
   29768 WT2  1934 TIP3 OH2  OT    -0.834000       15.9994           0
   29769 WT2  1934 TIP3 H1   HT     0.417000        1.0080           0
   29770 WT2  1934 TIP3 H2   HT     0.417000        1.0080           0
   29771 WT2  1935 TIP3 OH2  OT    -0.834000       15.9994           0
   29772 WT2  1935 TIP3 H1   HT     0.417000        1.0080           0
   29773 WT2  1935 TIP3 H2   HT     0.417000        1.0080           0
   29774 WT2  1936 TIP3 OH2  OT    -0.834000       15.9994           0
   29775 WT2  1936 TIP3 H1   HT     0.417000        1.0080           0
   29776 WT2  1936 TIP3 H2   HT     0.417000        1.0080           0
   29777 WT2  1937 TIP3 OH2  OT    -0.834000       15.9994           0
   29778 WT2  1937 TIP3 H1   HT     0.417000        1.0080           0
   29779 WT2  1937 TIP3 H2   HT     0.417000        1.0080           0
   29780 WT2  1938 TIP3 OH2  OT    -0.834000       15.9994           0
   29781 WT2  1938 TIP3 H1   HT     0.417000        1.0080           0
   29782 WT2  1938 TIP3 H2   HT     0.417000        1.0080           0
   29783 WT2  1939 TIP3 OH2  OT    -0.834000       15.9994           0
   29784 WT2  1939 TIP3 H1   HT     0.417000        1.0080           0
   29785 WT2  1939 TIP3 H2   HT     0.417000        1.0080           0
   29786 WT2  1941 TIP3 OH2  OT    -0.834000       15.9994           0
   29787 WT2  1941 TIP3 H1   HT     0.417000        1.0080           0
   29788 WT2  1941 TIP3 H2   HT     0.417000        1.0080           0
   29789 WT2  1942 TIP3 OH2  OT    -0.834000       15.9994           0
   29790 WT2  1942 TIP3 H1   HT     0.417000        1.0080           0
   29791 WT2  1942 TIP3 H2   HT     0.417000        1.0080           0
   29792 WT2  1945 TIP3 OH2  OT    -0.834000       15.9994           0
   29793 WT2  1945 TIP3 H1   HT     0.417000        1.0080           0
   29794 WT2  1945 TIP3 H2   HT     0.417000        1.0080           0
   29795 WT2  1946 TIP3 OH2  OT    -0.834000       15.9994           0
   29796 WT2  1946 TIP3 H1   HT     0.417000        1.0080           0
   29797 WT2  1946 TIP3 H2   HT     0.417000        1.0080           0
   29798 WT2  1947 TIP3 OH2  OT    -0.834000       15.9994           0
   29799 WT2  1947 TIP3 H1   HT     0.417000        1.0080           0
   29800 WT2  1947 TIP3 H2   HT     0.417000        1.0080           0
   29801 WT2  1949 TIP3 OH2  OT    -0.834000       15.9994           0
   29802 WT2  1949 TIP3 H1   HT     0.417000        1.0080           0
   29803 WT2  1949 TIP3 H2   HT     0.417000        1.0080           0
   29804 WT2  1950 TIP3 OH2  OT    -0.834000       15.9994           0
   29805 WT2  1950 TIP3 H1   HT     0.417000        1.0080           0
   29806 WT2  1950 TIP3 H2   HT     0.417000        1.0080           0
   29807 WT2  1951 TIP3 OH2  OT    -0.834000       15.9994           0
   29808 WT2  1951 TIP3 H1   HT     0.417000        1.0080           0
   29809 WT2  1951 TIP3 H2   HT     0.417000        1.0080           0
   29810 WT2  1952 TIP3 OH2  OT    -0.834000       15.9994           0
   29811 WT2  1952 TIP3 H1   HT     0.417000        1.0080           0
   29812 WT2  1952 TIP3 H2   HT     0.417000        1.0080           0
   29813 WT2  1953 TIP3 OH2  OT    -0.834000       15.9994           0
   29814 WT2  1953 TIP3 H1   HT     0.417000        1.0080           0
   29815 WT2  1953 TIP3 H2   HT     0.417000        1.0080           0
   29816 WT2  1954 TIP3 OH2  OT    -0.834000       15.9994           0
   29817 WT2  1954 TIP3 H1   HT     0.417000        1.0080           0
   29818 WT2  1954 TIP3 H2   HT     0.417000        1.0080           0
   29819 WT2  1955 TIP3 OH2  OT    -0.834000       15.9994           0
   29820 WT2  1955 TIP3 H1   HT     0.417000        1.0080           0
   29821 WT2  1955 TIP3 H2   HT     0.417000        1.0080           0
   29822 WT2  1956 TIP3 OH2  OT    -0.834000       15.9994           0
   29823 WT2  1956 TIP3 H1   HT     0.417000        1.0080           0
   29824 WT2  1956 TIP3 H2   HT     0.417000        1.0080           0
   29825 WT2  1958 TIP3 OH2  OT    -0.834000       15.9994           0
   29826 WT2  1958 TIP3 H1   HT     0.417000        1.0080           0
   29827 WT2  1958 TIP3 H2   HT     0.417000        1.0080           0
   29828 WT2  1959 TIP3 OH2  OT    -0.834000       15.9994           0
   29829 WT2  1959 TIP3 H1   HT     0.417000        1.0080           0
   29830 WT2  1959 TIP3 H2   HT     0.417000        1.0080           0
   29831 WT2  1960 TIP3 OH2  OT    -0.834000       15.9994           0
   29832 WT2  1960 TIP3 H1   HT     0.417000        1.0080           0
   29833 WT2  1960 TIP3 H2   HT     0.417000        1.0080           0
   29834 WT2  1962 TIP3 OH2  OT    -0.834000       15.9994           0
   29835 WT2  1962 TIP3 H1   HT     0.417000        1.0080           0
   29836 WT2  1962 TIP3 H2   HT     0.417000        1.0080           0
   29837 WT2  1964 TIP3 OH2  OT    -0.834000       15.9994           0
   29838 WT2  1964 TIP3 H1   HT     0.417000        1.0080           0
   29839 WT2  1964 TIP3 H2   HT     0.417000        1.0080           0
   29840 WT2  1965 TIP3 OH2  OT    -0.834000       15.9994           0
   29841 WT2  1965 TIP3 H1   HT     0.417000        1.0080           0
   29842 WT2  1965 TIP3 H2   HT     0.417000        1.0080           0
   29843 WT2  1966 TIP3 OH2  OT    -0.834000       15.9994           0
   29844 WT2  1966 TIP3 H1   HT     0.417000        1.0080           0
   29845 WT2  1966 TIP3 H2   HT     0.417000        1.0080           0
   29846 WT2  1967 TIP3 OH2  OT    -0.834000       15.9994           0
   29847 WT2  1967 TIP3 H1   HT     0.417000        1.0080           0
   29848 WT2  1967 TIP3 H2   HT     0.417000        1.0080           0
   29849 WT2  1968 TIP3 OH2  OT    -0.834000       15.9994           0
   29850 WT2  1968 TIP3 H1   HT     0.417000        1.0080           0
   29851 WT2  1968 TIP3 H2   HT     0.417000        1.0080           0
   29852 WT2  1969 TIP3 OH2  OT    -0.834000       15.9994           0
   29853 WT2  1969 TIP3 H1   HT     0.417000        1.0080           0
   29854 WT2  1969 TIP3 H2   HT     0.417000        1.0080           0
   29855 WT2  1970 TIP3 OH2  OT    -0.834000       15.9994           0
   29856 WT2  1970 TIP3 H1   HT     0.417000        1.0080           0
   29857 WT2  1970 TIP3 H2   HT     0.417000        1.0080           0
   29858 WT2  1971 TIP3 OH2  OT    -0.834000       15.9994           0
   29859 WT2  1971 TIP3 H1   HT     0.417000        1.0080           0
   29860 WT2  1971 TIP3 H2   HT     0.417000        1.0080           0
   29861 WT2  1972 TIP3 OH2  OT    -0.834000       15.9994           0
   29862 WT2  1972 TIP3 H1   HT     0.417000        1.0080           0
   29863 WT2  1972 TIP3 H2   HT     0.417000        1.0080           0
   29864 WT2  1973 TIP3 OH2  OT    -0.834000       15.9994           0
   29865 WT2  1973 TIP3 H1   HT     0.417000        1.0080           0
   29866 WT2  1973 TIP3 H2   HT     0.417000        1.0080           0
   29867 WT2  1974 TIP3 OH2  OT    -0.834000       15.9994           0
   29868 WT2  1974 TIP3 H1   HT     0.417000        1.0080           0
   29869 WT2  1974 TIP3 H2   HT     0.417000        1.0080           0
   29870 WT2  1975 TIP3 OH2  OT    -0.834000       15.9994           0
   29871 WT2  1975 TIP3 H1   HT     0.417000        1.0080           0
   29872 WT2  1975 TIP3 H2   HT     0.417000        1.0080           0
   29873 WT2  1976 TIP3 OH2  OT    -0.834000       15.9994           0
   29874 WT2  1976 TIP3 H1   HT     0.417000        1.0080           0
   29875 WT2  1976 TIP3 H2   HT     0.417000        1.0080           0
   29876 WT2  1977 TIP3 OH2  OT    -0.834000       15.9994           0
   29877 WT2  1977 TIP3 H1   HT     0.417000        1.0080           0
   29878 WT2  1977 TIP3 H2   HT     0.417000        1.0080           0
   29879 WT2  1979 TIP3 OH2  OT    -0.834000       15.9994           0
   29880 WT2  1979 TIP3 H1   HT     0.417000        1.0080           0
   29881 WT2  1979 TIP3 H2   HT     0.417000        1.0080           0
   29882 WT2  1980 TIP3 OH2  OT    -0.834000       15.9994           0
   29883 WT2  1980 TIP3 H1   HT     0.417000        1.0080           0
   29884 WT2  1980 TIP3 H2   HT     0.417000        1.0080           0
   29885 WT2  1981 TIP3 OH2  OT    -0.834000       15.9994           0
   29886 WT2  1981 TIP3 H1   HT     0.417000        1.0080           0
   29887 WT2  1981 TIP3 H2   HT     0.417000        1.0080           0
   29888 WT2  1982 TIP3 OH2  OT    -0.834000       15.9994           0
   29889 WT2  1982 TIP3 H1   HT     0.417000        1.0080           0
   29890 WT2  1982 TIP3 H2   HT     0.417000        1.0080           0
   29891 WT2  1983 TIP3 OH2  OT    -0.834000       15.9994           0
   29892 WT2  1983 TIP3 H1   HT     0.417000        1.0080           0
   29893 WT2  1983 TIP3 H2   HT     0.417000        1.0080           0
   29894 WT2  1986 TIP3 OH2  OT    -0.834000       15.9994           0
   29895 WT2  1986 TIP3 H1   HT     0.417000        1.0080           0
   29896 WT2  1986 TIP3 H2   HT     0.417000        1.0080           0
   29897 WT2  1987 TIP3 OH2  OT    -0.834000       15.9994           0
   29898 WT2  1987 TIP3 H1   HT     0.417000        1.0080           0
   29899 WT2  1987 TIP3 H2   HT     0.417000        1.0080           0
   29900 WT2  1988 TIP3 OH2  OT    -0.834000       15.9994           0
   29901 WT2  1988 TIP3 H1   HT     0.417000        1.0080           0
   29902 WT2  1988 TIP3 H2   HT     0.417000        1.0080           0
   29903 WT2  1989 TIP3 OH2  OT    -0.834000       15.9994           0
   29904 WT2  1989 TIP3 H1   HT     0.417000        1.0080           0
   29905 WT2  1989 TIP3 H2   HT     0.417000        1.0080           0
   29906 WT2  1990 TIP3 OH2  OT    -0.834000       15.9994           0
   29907 WT2  1990 TIP3 H1   HT     0.417000        1.0080           0
   29908 WT2  1990 TIP3 H2   HT     0.417000        1.0080           0
   29909 WT2  1991 TIP3 OH2  OT    -0.834000       15.9994           0
   29910 WT2  1991 TIP3 H1   HT     0.417000        1.0080           0
   29911 WT2  1991 TIP3 H2   HT     0.417000        1.0080           0
   29912 WT2  1992 TIP3 OH2  OT    -0.834000       15.9994           0
   29913 WT2  1992 TIP3 H1   HT     0.417000        1.0080           0
   29914 WT2  1992 TIP3 H2   HT     0.417000        1.0080           0
   29915 WT2  1993 TIP3 OH2  OT    -0.834000       15.9994           0
   29916 WT2  1993 TIP3 H1   HT     0.417000        1.0080           0
   29917 WT2  1993 TIP3 H2   HT     0.417000        1.0080           0
   29918 WT2  1994 TIP3 OH2  OT    -0.834000       15.9994           0
   29919 WT2  1994 TIP3 H1   HT     0.417000        1.0080           0
   29920 WT2  1994 TIP3 H2   HT     0.417000        1.0080           0
   29921 WT2  1995 TIP3 OH2  OT    -0.834000       15.9994           0
   29922 WT2  1995 TIP3 H1   HT     0.417000        1.0080           0
   29923 WT2  1995 TIP3 H2   HT     0.417000        1.0080           0
   29924 WT2  1996 TIP3 OH2  OT    -0.834000       15.9994           0
   29925 WT2  1996 TIP3 H1   HT     0.417000        1.0080           0
   29926 WT2  1996 TIP3 H2   HT     0.417000        1.0080           0
   29927 WT2  1997 TIP3 OH2  OT    -0.834000       15.9994           0
   29928 WT2  1997 TIP3 H1   HT     0.417000        1.0080           0
   29929 WT2  1997 TIP3 H2   HT     0.417000        1.0080           0
   29930 WT2  1998 TIP3 OH2  OT    -0.834000       15.9994           0
   29931 WT2  1998 TIP3 H1   HT     0.417000        1.0080           0
   29932 WT2  1998 TIP3 H2   HT     0.417000        1.0080           0
   29933 WT2  1999 TIP3 OH2  OT    -0.834000       15.9994           0
   29934 WT2  1999 TIP3 H1   HT     0.417000        1.0080           0
   29935 WT2  1999 TIP3 H2   HT     0.417000        1.0080           0
   29936 WT2  2000 TIP3 OH2  OT    -0.834000       15.9994           0
   29937 WT2  2000 TIP3 H1   HT     0.417000        1.0080           0
   29938 WT2  2000 TIP3 H2   HT     0.417000        1.0080           0
   29939 WT2  2001 TIP3 OH2  OT    -0.834000       15.9994           0
   29940 WT2  2001 TIP3 H1   HT     0.417000        1.0080           0
   29941 WT2  2001 TIP3 H2   HT     0.417000        1.0080           0
   29942 WT2  2002 TIP3 OH2  OT    -0.834000       15.9994           0
   29943 WT2  2002 TIP3 H1   HT     0.417000        1.0080           0
   29944 WT2  2002 TIP3 H2   HT     0.417000        1.0080           0
   29945 WT2  2003 TIP3 OH2  OT    -0.834000       15.9994           0
   29946 WT2  2003 TIP3 H1   HT     0.417000        1.0080           0
   29947 WT2  2003 TIP3 H2   HT     0.417000        1.0080           0
   29948 WT2  2004 TIP3 OH2  OT    -0.834000       15.9994           0
   29949 WT2  2004 TIP3 H1   HT     0.417000        1.0080           0
   29950 WT2  2004 TIP3 H2   HT     0.417000        1.0080           0
   29951 WT2  2005 TIP3 OH2  OT    -0.834000       15.9994           0
   29952 WT2  2005 TIP3 H1   HT     0.417000        1.0080           0
   29953 WT2  2005 TIP3 H2   HT     0.417000        1.0080           0
   29954 WT2  2006 TIP3 OH2  OT    -0.834000       15.9994           0
   29955 WT2  2006 TIP3 H1   HT     0.417000        1.0080           0
   29956 WT2  2006 TIP3 H2   HT     0.417000        1.0080           0
   29957 WT2  2007 TIP3 OH2  OT    -0.834000       15.9994           0
   29958 WT2  2007 TIP3 H1   HT     0.417000        1.0080           0
   29959 WT2  2007 TIP3 H2   HT     0.417000        1.0080           0
   29960 WT2  2008 TIP3 OH2  OT    -0.834000       15.9994           0
   29961 WT2  2008 TIP3 H1   HT     0.417000        1.0080           0
   29962 WT2  2008 TIP3 H2   HT     0.417000        1.0080           0
   29963 WT2  2009 TIP3 OH2  OT    -0.834000       15.9994           0
   29964 WT2  2009 TIP3 H1   HT     0.417000        1.0080           0
   29965 WT2  2009 TIP3 H2   HT     0.417000        1.0080           0
   29966 WT2  2010 TIP3 OH2  OT    -0.834000       15.9994           0
   29967 WT2  2010 TIP3 H1   HT     0.417000        1.0080           0
   29968 WT2  2010 TIP3 H2   HT     0.417000        1.0080           0
   29969 WT2  2011 TIP3 OH2  OT    -0.834000       15.9994           0
   29970 WT2  2011 TIP3 H1   HT     0.417000        1.0080           0
   29971 WT2  2011 TIP3 H2   HT     0.417000        1.0080           0
   29972 WT2  2012 TIP3 OH2  OT    -0.834000       15.9994           0
   29973 WT2  2012 TIP3 H1   HT     0.417000        1.0080           0
   29974 WT2  2012 TIP3 H2   HT     0.417000        1.0080           0
   29975 WT2  2014 TIP3 OH2  OT    -0.834000       15.9994           0
   29976 WT2  2014 TIP3 H1   HT     0.417000        1.0080           0
   29977 WT2  2014 TIP3 H2   HT     0.417000        1.0080           0
   29978 WT2  2015 TIP3 OH2  OT    -0.834000       15.9994           0
   29979 WT2  2015 TIP3 H1   HT     0.417000        1.0080           0
   29980 WT2  2015 TIP3 H2   HT     0.417000        1.0080           0
   29981 WT2  2017 TIP3 OH2  OT    -0.834000       15.9994           0
   29982 WT2  2017 TIP3 H1   HT     0.417000        1.0080           0
   29983 WT2  2017 TIP3 H2   HT     0.417000        1.0080           0
   29984 WT2  2018 TIP3 OH2  OT    -0.834000       15.9994           0
   29985 WT2  2018 TIP3 H1   HT     0.417000        1.0080           0
   29986 WT2  2018 TIP3 H2   HT     0.417000        1.0080           0
   29987 WT2  2020 TIP3 OH2  OT    -0.834000       15.9994           0
   29988 WT2  2020 TIP3 H1   HT     0.417000        1.0080           0
   29989 WT2  2020 TIP3 H2   HT     0.417000        1.0080           0
   29990 WT2  2021 TIP3 OH2  OT    -0.834000       15.9994           0
   29991 WT2  2021 TIP3 H1   HT     0.417000        1.0080           0
   29992 WT2  2021 TIP3 H2   HT     0.417000        1.0080           0
   29993 WT2  2022 TIP3 OH2  OT    -0.834000       15.9994           0
   29994 WT2  2022 TIP3 H1   HT     0.417000        1.0080           0
   29995 WT2  2022 TIP3 H2   HT     0.417000        1.0080           0
   29996 WT2  2024 TIP3 OH2  OT    -0.834000       15.9994           0
   29997 WT2  2024 TIP3 H1   HT     0.417000        1.0080           0
   29998 WT2  2024 TIP3 H2   HT     0.417000        1.0080           0
   29999 WT2  2025 TIP3 OH2  OT    -0.834000       15.9994           0
   30000 WT2  2025 TIP3 H1   HT     0.417000        1.0080           0
   30001 WT2  2025 TIP3 H2   HT     0.417000        1.0080           0
   30002 WT2  2026 TIP3 OH2  OT    -0.834000       15.9994           0
   30003 WT2  2026 TIP3 H1   HT     0.417000        1.0080           0
   30004 WT2  2026 TIP3 H2   HT     0.417000        1.0080           0
   30005 WT2  2028 TIP3 OH2  OT    -0.834000       15.9994           0
   30006 WT2  2028 TIP3 H1   HT     0.417000        1.0080           0
   30007 WT2  2028 TIP3 H2   HT     0.417000        1.0080           0
   30008 WT2  2030 TIP3 OH2  OT    -0.834000       15.9994           0
   30009 WT2  2030 TIP3 H1   HT     0.417000        1.0080           0
   30010 WT2  2030 TIP3 H2   HT     0.417000        1.0080           0
   30011 WT2  2031 TIP3 OH2  OT    -0.834000       15.9994           0
   30012 WT2  2031 TIP3 H1   HT     0.417000        1.0080           0
   30013 WT2  2031 TIP3 H2   HT     0.417000        1.0080           0
   30014 WT2  2032 TIP3 OH2  OT    -0.834000       15.9994           0
   30015 WT2  2032 TIP3 H1   HT     0.417000        1.0080           0
   30016 WT2  2032 TIP3 H2   HT     0.417000        1.0080           0
   30017 WT2  2033 TIP3 OH2  OT    -0.834000       15.9994           0
   30018 WT2  2033 TIP3 H1   HT     0.417000        1.0080           0
   30019 WT2  2033 TIP3 H2   HT     0.417000        1.0080           0
   30020 WT2  2034 TIP3 OH2  OT    -0.834000       15.9994           0
   30021 WT2  2034 TIP3 H1   HT     0.417000        1.0080           0
   30022 WT2  2034 TIP3 H2   HT     0.417000        1.0080           0
   30023 WT2  2035 TIP3 OH2  OT    -0.834000       15.9994           0
   30024 WT2  2035 TIP3 H1   HT     0.417000        1.0080           0
   30025 WT2  2035 TIP3 H2   HT     0.417000        1.0080           0
   30026 WT2  2036 TIP3 OH2  OT    -0.834000       15.9994           0
   30027 WT2  2036 TIP3 H1   HT     0.417000        1.0080           0
   30028 WT2  2036 TIP3 H2   HT     0.417000        1.0080           0
   30029 WT2  2037 TIP3 OH2  OT    -0.834000       15.9994           0
   30030 WT2  2037 TIP3 H1   HT     0.417000        1.0080           0
   30031 WT2  2037 TIP3 H2   HT     0.417000        1.0080           0
   30032 WT2  2040 TIP3 OH2  OT    -0.834000       15.9994           0
   30033 WT2  2040 TIP3 H1   HT     0.417000        1.0080           0
   30034 WT2  2040 TIP3 H2   HT     0.417000        1.0080           0
   30035 WT2  2041 TIP3 OH2  OT    -0.834000       15.9994           0
   30036 WT2  2041 TIP3 H1   HT     0.417000        1.0080           0
   30037 WT2  2041 TIP3 H2   HT     0.417000        1.0080           0
   30038 WT2  2045 TIP3 OH2  OT    -0.834000       15.9994           0
   30039 WT2  2045 TIP3 H1   HT     0.417000        1.0080           0
   30040 WT2  2045 TIP3 H2   HT     0.417000        1.0080           0
   30041 WT2  2048 TIP3 OH2  OT    -0.834000       15.9994           0
   30042 WT2  2048 TIP3 H1   HT     0.417000        1.0080           0
   30043 WT2  2048 TIP3 H2   HT     0.417000        1.0080           0
   30044 WT2  2049 TIP3 OH2  OT    -0.834000       15.9994           0
   30045 WT2  2049 TIP3 H1   HT     0.417000        1.0080           0
   30046 WT2  2049 TIP3 H2   HT     0.417000        1.0080           0
   30047 WT2  2050 TIP3 OH2  OT    -0.834000       15.9994           0
   30048 WT2  2050 TIP3 H1   HT     0.417000        1.0080           0
   30049 WT2  2050 TIP3 H2   HT     0.417000        1.0080           0
   30050 WT2  2051 TIP3 OH2  OT    -0.834000       15.9994           0
   30051 WT2  2051 TIP3 H1   HT     0.417000        1.0080           0
   30052 WT2  2051 TIP3 H2   HT     0.417000        1.0080           0
   30053 WT2  2052 TIP3 OH2  OT    -0.834000       15.9994           0
   30054 WT2  2052 TIP3 H1   HT     0.417000        1.0080           0
   30055 WT2  2052 TIP3 H2   HT     0.417000        1.0080           0
   30056 WT2  2053 TIP3 OH2  OT    -0.834000       15.9994           0
   30057 WT2  2053 TIP3 H1   HT     0.417000        1.0080           0
   30058 WT2  2053 TIP3 H2   HT     0.417000        1.0080           0
   30059 WT2  2054 TIP3 OH2  OT    -0.834000       15.9994           0
   30060 WT2  2054 TIP3 H1   HT     0.417000        1.0080           0
   30061 WT2  2054 TIP3 H2   HT     0.417000        1.0080           0
   30062 WT2  2055 TIP3 OH2  OT    -0.834000       15.9994           0
   30063 WT2  2055 TIP3 H1   HT     0.417000        1.0080           0
   30064 WT2  2055 TIP3 H2   HT     0.417000        1.0080           0
   30065 WT2  2056 TIP3 OH2  OT    -0.834000       15.9994           0
   30066 WT2  2056 TIP3 H1   HT     0.417000        1.0080           0
   30067 WT2  2056 TIP3 H2   HT     0.417000        1.0080           0
   30068 WT2  2057 TIP3 OH2  OT    -0.834000       15.9994           0
   30069 WT2  2057 TIP3 H1   HT     0.417000        1.0080           0
   30070 WT2  2057 TIP3 H2   HT     0.417000        1.0080           0
   30071 WT2  2058 TIP3 OH2  OT    -0.834000       15.9994           0
   30072 WT2  2058 TIP3 H1   HT     0.417000        1.0080           0
   30073 WT2  2058 TIP3 H2   HT     0.417000        1.0080           0
   30074 WT2  2059 TIP3 OH2  OT    -0.834000       15.9994           0
   30075 WT2  2059 TIP3 H1   HT     0.417000        1.0080           0
   30076 WT2  2059 TIP3 H2   HT     0.417000        1.0080           0
   30077 WT2  2060 TIP3 OH2  OT    -0.834000       15.9994           0
   30078 WT2  2060 TIP3 H1   HT     0.417000        1.0080           0
   30079 WT2  2060 TIP3 H2   HT     0.417000        1.0080           0
   30080 WT2  2061 TIP3 OH2  OT    -0.834000       15.9994           0
   30081 WT2  2061 TIP3 H1   HT     0.417000        1.0080           0
   30082 WT2  2061 TIP3 H2   HT     0.417000        1.0080           0
   30083 WT2  2062 TIP3 OH2  OT    -0.834000       15.9994           0
   30084 WT2  2062 TIP3 H1   HT     0.417000        1.0080           0
   30085 WT2  2062 TIP3 H2   HT     0.417000        1.0080           0
   30086 WT2  2063 TIP3 OH2  OT    -0.834000       15.9994           0
   30087 WT2  2063 TIP3 H1   HT     0.417000        1.0080           0
   30088 WT2  2063 TIP3 H2   HT     0.417000        1.0080           0
   30089 WT2  2065 TIP3 OH2  OT    -0.834000       15.9994           0
   30090 WT2  2065 TIP3 H1   HT     0.417000        1.0080           0
   30091 WT2  2065 TIP3 H2   HT     0.417000        1.0080           0
   30092 WT2  2066 TIP3 OH2  OT    -0.834000       15.9994           0
   30093 WT2  2066 TIP3 H1   HT     0.417000        1.0080           0
   30094 WT2  2066 TIP3 H2   HT     0.417000        1.0080           0
   30095 WT2  2067 TIP3 OH2  OT    -0.834000       15.9994           0
   30096 WT2  2067 TIP3 H1   HT     0.417000        1.0080           0
   30097 WT2  2067 TIP3 H2   HT     0.417000        1.0080           0
   30098 WT2  2068 TIP3 OH2  OT    -0.834000       15.9994           0
   30099 WT2  2068 TIP3 H1   HT     0.417000        1.0080           0
   30100 WT2  2068 TIP3 H2   HT     0.417000        1.0080           0
   30101 WT2  2069 TIP3 OH2  OT    -0.834000       15.9994           0
   30102 WT2  2069 TIP3 H1   HT     0.417000        1.0080           0
   30103 WT2  2069 TIP3 H2   HT     0.417000        1.0080           0
   30104 WT2  2070 TIP3 OH2  OT    -0.834000       15.9994           0
   30105 WT2  2070 TIP3 H1   HT     0.417000        1.0080           0
   30106 WT2  2070 TIP3 H2   HT     0.417000        1.0080           0
   30107 WT2  2071 TIP3 OH2  OT    -0.834000       15.9994           0
   30108 WT2  2071 TIP3 H1   HT     0.417000        1.0080           0
   30109 WT2  2071 TIP3 H2   HT     0.417000        1.0080           0
   30110 WT2  2072 TIP3 OH2  OT    -0.834000       15.9994           0
   30111 WT2  2072 TIP3 H1   HT     0.417000        1.0080           0
   30112 WT2  2072 TIP3 H2   HT     0.417000        1.0080           0
   30113 WT2  2073 TIP3 OH2  OT    -0.834000       15.9994           0
   30114 WT2  2073 TIP3 H1   HT     0.417000        1.0080           0
   30115 WT2  2073 TIP3 H2   HT     0.417000        1.0080           0
   30116 WT2  2075 TIP3 OH2  OT    -0.834000       15.9994           0
   30117 WT2  2075 TIP3 H1   HT     0.417000        1.0080           0
   30118 WT2  2075 TIP3 H2   HT     0.417000        1.0080           0
   30119 WT2  2076 TIP3 OH2  OT    -0.834000       15.9994           0
   30120 WT2  2076 TIP3 H1   HT     0.417000        1.0080           0
   30121 WT2  2076 TIP3 H2   HT     0.417000        1.0080           0
   30122 WT2  2077 TIP3 OH2  OT    -0.834000       15.9994           0
   30123 WT2  2077 TIP3 H1   HT     0.417000        1.0080           0
   30124 WT2  2077 TIP3 H2   HT     0.417000        1.0080           0
   30125 WT2  2078 TIP3 OH2  OT    -0.834000       15.9994           0
   30126 WT2  2078 TIP3 H1   HT     0.417000        1.0080           0
   30127 WT2  2078 TIP3 H2   HT     0.417000        1.0080           0
   30128 WT2  2079 TIP3 OH2  OT    -0.834000       15.9994           0
   30129 WT2  2079 TIP3 H1   HT     0.417000        1.0080           0
   30130 WT2  2079 TIP3 H2   HT     0.417000        1.0080           0
   30131 WT2  2082 TIP3 OH2  OT    -0.834000       15.9994           0
   30132 WT2  2082 TIP3 H1   HT     0.417000        1.0080           0
   30133 WT2  2082 TIP3 H2   HT     0.417000        1.0080           0
   30134 WT2  2083 TIP3 OH2  OT    -0.834000       15.9994           0
   30135 WT2  2083 TIP3 H1   HT     0.417000        1.0080           0
   30136 WT2  2083 TIP3 H2   HT     0.417000        1.0080           0
   30137 WT2  2084 TIP3 OH2  OT    -0.834000       15.9994           0
   30138 WT2  2084 TIP3 H1   HT     0.417000        1.0080           0
   30139 WT2  2084 TIP3 H2   HT     0.417000        1.0080           0
   30140 WT2  2087 TIP3 OH2  OT    -0.834000       15.9994           0
   30141 WT2  2087 TIP3 H1   HT     0.417000        1.0080           0
   30142 WT2  2087 TIP3 H2   HT     0.417000        1.0080           0
   30143 WT2  2088 TIP3 OH2  OT    -0.834000       15.9994           0
   30144 WT2  2088 TIP3 H1   HT     0.417000        1.0080           0
   30145 WT2  2088 TIP3 H2   HT     0.417000        1.0080           0
   30146 WT2  2089 TIP3 OH2  OT    -0.834000       15.9994           0
   30147 WT2  2089 TIP3 H1   HT     0.417000        1.0080           0
   30148 WT2  2089 TIP3 H2   HT     0.417000        1.0080           0
   30149 WT2  2091 TIP3 OH2  OT    -0.834000       15.9994           0
   30150 WT2  2091 TIP3 H1   HT     0.417000        1.0080           0
   30151 WT2  2091 TIP3 H2   HT     0.417000        1.0080           0
   30152 WT2  2094 TIP3 OH2  OT    -0.834000       15.9994           0
   30153 WT2  2094 TIP3 H1   HT     0.417000        1.0080           0
   30154 WT2  2094 TIP3 H2   HT     0.417000        1.0080           0
   30155 WT2  2095 TIP3 OH2  OT    -0.834000       15.9994           0
   30156 WT2  2095 TIP3 H1   HT     0.417000        1.0080           0
   30157 WT2  2095 TIP3 H2   HT     0.417000        1.0080           0
   30158 WT2  2096 TIP3 OH2  OT    -0.834000       15.9994           0
   30159 WT2  2096 TIP3 H1   HT     0.417000        1.0080           0
   30160 WT2  2096 TIP3 H2   HT     0.417000        1.0080           0
   30161 WT2  2097 TIP3 OH2  OT    -0.834000       15.9994           0
   30162 WT2  2097 TIP3 H1   HT     0.417000        1.0080           0
   30163 WT2  2097 TIP3 H2   HT     0.417000        1.0080           0
   30164 WT2  2098 TIP3 OH2  OT    -0.834000       15.9994           0
   30165 WT2  2098 TIP3 H1   HT     0.417000        1.0080           0
   30166 WT2  2098 TIP3 H2   HT     0.417000        1.0080           0
   30167 WT2  2099 TIP3 OH2  OT    -0.834000       15.9994           0
   30168 WT2  2099 TIP3 H1   HT     0.417000        1.0080           0
   30169 WT2  2099 TIP3 H2   HT     0.417000        1.0080           0
   30170 WT2  2100 TIP3 OH2  OT    -0.834000       15.9994           0
   30171 WT2  2100 TIP3 H1   HT     0.417000        1.0080           0
   30172 WT2  2100 TIP3 H2   HT     0.417000        1.0080           0
   30173 WT2  2101 TIP3 OH2  OT    -0.834000       15.9994           0
   30174 WT2  2101 TIP3 H1   HT     0.417000        1.0080           0
   30175 WT2  2101 TIP3 H2   HT     0.417000        1.0080           0
   30176 WT2  2102 TIP3 OH2  OT    -0.834000       15.9994           0
   30177 WT2  2102 TIP3 H1   HT     0.417000        1.0080           0
   30178 WT2  2102 TIP3 H2   HT     0.417000        1.0080           0
   30179 WT2  2103 TIP3 OH2  OT    -0.834000       15.9994           0
   30180 WT2  2103 TIP3 H1   HT     0.417000        1.0080           0
   30181 WT2  2103 TIP3 H2   HT     0.417000        1.0080           0
   30182 WT2  2104 TIP3 OH2  OT    -0.834000       15.9994           0
   30183 WT2  2104 TIP3 H1   HT     0.417000        1.0080           0
   30184 WT2  2104 TIP3 H2   HT     0.417000        1.0080           0
   30185 WT2  2105 TIP3 OH2  OT    -0.834000       15.9994           0
   30186 WT2  2105 TIP3 H1   HT     0.417000        1.0080           0
   30187 WT2  2105 TIP3 H2   HT     0.417000        1.0080           0
   30188 WT2  2106 TIP3 OH2  OT    -0.834000       15.9994           0
   30189 WT2  2106 TIP3 H1   HT     0.417000        1.0080           0
   30190 WT2  2106 TIP3 H2   HT     0.417000        1.0080           0
   30191 WT2  2107 TIP3 OH2  OT    -0.834000       15.9994           0
   30192 WT2  2107 TIP3 H1   HT     0.417000        1.0080           0
   30193 WT2  2107 TIP3 H2   HT     0.417000        1.0080           0
   30194 WT2  2108 TIP3 OH2  OT    -0.834000       15.9994           0
   30195 WT2  2108 TIP3 H1   HT     0.417000        1.0080           0
   30196 WT2  2108 TIP3 H2   HT     0.417000        1.0080           0
   30197 WT2  2109 TIP3 OH2  OT    -0.834000       15.9994           0
   30198 WT2  2109 TIP3 H1   HT     0.417000        1.0080           0
   30199 WT2  2109 TIP3 H2   HT     0.417000        1.0080           0
   30200 WT2  2111 TIP3 OH2  OT    -0.834000       15.9994           0
   30201 WT2  2111 TIP3 H1   HT     0.417000        1.0080           0
   30202 WT2  2111 TIP3 H2   HT     0.417000        1.0080           0
   30203 WT2  2112 TIP3 OH2  OT    -0.834000       15.9994           0
   30204 WT2  2112 TIP3 H1   HT     0.417000        1.0080           0
   30205 WT2  2112 TIP3 H2   HT     0.417000        1.0080           0
   30206 WT2  2113 TIP3 OH2  OT    -0.834000       15.9994           0
   30207 WT2  2113 TIP3 H1   HT     0.417000        1.0080           0
   30208 WT2  2113 TIP3 H2   HT     0.417000        1.0080           0
   30209 WT2  2114 TIP3 OH2  OT    -0.834000       15.9994           0
   30210 WT2  2114 TIP3 H1   HT     0.417000        1.0080           0
   30211 WT2  2114 TIP3 H2   HT     0.417000        1.0080           0
   30212 WT2  2115 TIP3 OH2  OT    -0.834000       15.9994           0
   30213 WT2  2115 TIP3 H1   HT     0.417000        1.0080           0
   30214 WT2  2115 TIP3 H2   HT     0.417000        1.0080           0
   30215 WT2  2116 TIP3 OH2  OT    -0.834000       15.9994           0
   30216 WT2  2116 TIP3 H1   HT     0.417000        1.0080           0
   30217 WT2  2116 TIP3 H2   HT     0.417000        1.0080           0
   30218 WT2  2117 TIP3 OH2  OT    -0.834000       15.9994           0
   30219 WT2  2117 TIP3 H1   HT     0.417000        1.0080           0
   30220 WT2  2117 TIP3 H2   HT     0.417000        1.0080           0
   30221 WT2  2118 TIP3 OH2  OT    -0.834000       15.9994           0
   30222 WT2  2118 TIP3 H1   HT     0.417000        1.0080           0
   30223 WT2  2118 TIP3 H2   HT     0.417000        1.0080           0
   30224 WT2  2119 TIP3 OH2  OT    -0.834000       15.9994           0
   30225 WT2  2119 TIP3 H1   HT     0.417000        1.0080           0
   30226 WT2  2119 TIP3 H2   HT     0.417000        1.0080           0
   30227 WT2  2120 TIP3 OH2  OT    -0.834000       15.9994           0
   30228 WT2  2120 TIP3 H1   HT     0.417000        1.0080           0
   30229 WT2  2120 TIP3 H2   HT     0.417000        1.0080           0
   30230 WT2  2121 TIP3 OH2  OT    -0.834000       15.9994           0
   30231 WT2  2121 TIP3 H1   HT     0.417000        1.0080           0
   30232 WT2  2121 TIP3 H2   HT     0.417000        1.0080           0
   30233 WT2  2122 TIP3 OH2  OT    -0.834000       15.9994           0
   30234 WT2  2122 TIP3 H1   HT     0.417000        1.0080           0
   30235 WT2  2122 TIP3 H2   HT     0.417000        1.0080           0
   30236 WT2  2123 TIP3 OH2  OT    -0.834000       15.9994           0
   30237 WT2  2123 TIP3 H1   HT     0.417000        1.0080           0
   30238 WT2  2123 TIP3 H2   HT     0.417000        1.0080           0
   30239 WT2  2125 TIP3 OH2  OT    -0.834000       15.9994           0
   30240 WT2  2125 TIP3 H1   HT     0.417000        1.0080           0
   30241 WT2  2125 TIP3 H2   HT     0.417000        1.0080           0
   30242 WT2  2126 TIP3 OH2  OT    -0.834000       15.9994           0
   30243 WT2  2126 TIP3 H1   HT     0.417000        1.0080           0
   30244 WT2  2126 TIP3 H2   HT     0.417000        1.0080           0
   30245 WT2  2127 TIP3 OH2  OT    -0.834000       15.9994           0
   30246 WT2  2127 TIP3 H1   HT     0.417000        1.0080           0
   30247 WT2  2127 TIP3 H2   HT     0.417000        1.0080           0
   30248 WT2  2128 TIP3 OH2  OT    -0.834000       15.9994           0
   30249 WT2  2128 TIP3 H1   HT     0.417000        1.0080           0
   30250 WT2  2128 TIP3 H2   HT     0.417000        1.0080           0
   30251 WT2  2129 TIP3 OH2  OT    -0.834000       15.9994           0
   30252 WT2  2129 TIP3 H1   HT     0.417000        1.0080           0
   30253 WT2  2129 TIP3 H2   HT     0.417000        1.0080           0
   30254 WT2  2130 TIP3 OH2  OT    -0.834000       15.9994           0
   30255 WT2  2130 TIP3 H1   HT     0.417000        1.0080           0
   30256 WT2  2130 TIP3 H2   HT     0.417000        1.0080           0
   30257 WT2  2131 TIP3 OH2  OT    -0.834000       15.9994           0
   30258 WT2  2131 TIP3 H1   HT     0.417000        1.0080           0
   30259 WT2  2131 TIP3 H2   HT     0.417000        1.0080           0
   30260 WT2  2133 TIP3 OH2  OT    -0.834000       15.9994           0
   30261 WT2  2133 TIP3 H1   HT     0.417000        1.0080           0
   30262 WT2  2133 TIP3 H2   HT     0.417000        1.0080           0
   30263 WT2  2134 TIP3 OH2  OT    -0.834000       15.9994           0
   30264 WT2  2134 TIP3 H1   HT     0.417000        1.0080           0
   30265 WT2  2134 TIP3 H2   HT     0.417000        1.0080           0
   30266 WT2  2135 TIP3 OH2  OT    -0.834000       15.9994           0
   30267 WT2  2135 TIP3 H1   HT     0.417000        1.0080           0
   30268 WT2  2135 TIP3 H2   HT     0.417000        1.0080           0
   30269 WT2  2136 TIP3 OH2  OT    -0.834000       15.9994           0
   30270 WT2  2136 TIP3 H1   HT     0.417000        1.0080           0
   30271 WT2  2136 TIP3 H2   HT     0.417000        1.0080           0
   30272 WT2  2137 TIP3 OH2  OT    -0.834000       15.9994           0
   30273 WT2  2137 TIP3 H1   HT     0.417000        1.0080           0
   30274 WT2  2137 TIP3 H2   HT     0.417000        1.0080           0
   30275 WT2  2138 TIP3 OH2  OT    -0.834000       15.9994           0
   30276 WT2  2138 TIP3 H1   HT     0.417000        1.0080           0
   30277 WT2  2138 TIP3 H2   HT     0.417000        1.0080           0
   30278 WT2  2139 TIP3 OH2  OT    -0.834000       15.9994           0
   30279 WT2  2139 TIP3 H1   HT     0.417000        1.0080           0
   30280 WT2  2139 TIP3 H2   HT     0.417000        1.0080           0
   30281 WT2  2140 TIP3 OH2  OT    -0.834000       15.9994           0
   30282 WT2  2140 TIP3 H1   HT     0.417000        1.0080           0
   30283 WT2  2140 TIP3 H2   HT     0.417000        1.0080           0
   30284 WT2  2141 TIP3 OH2  OT    -0.834000       15.9994           0
   30285 WT2  2141 TIP3 H1   HT     0.417000        1.0080           0
   30286 WT2  2141 TIP3 H2   HT     0.417000        1.0080           0
   30287 WT2  2142 TIP3 OH2  OT    -0.834000       15.9994           0
   30288 WT2  2142 TIP3 H1   HT     0.417000        1.0080           0
   30289 WT2  2142 TIP3 H2   HT     0.417000        1.0080           0
   30290 WT2  2143 TIP3 OH2  OT    -0.834000       15.9994           0
   30291 WT2  2143 TIP3 H1   HT     0.417000        1.0080           0
   30292 WT2  2143 TIP3 H2   HT     0.417000        1.0080           0
   30293 WT2  2144 TIP3 OH2  OT    -0.834000       15.9994           0
   30294 WT2  2144 TIP3 H1   HT     0.417000        1.0080           0
   30295 WT2  2144 TIP3 H2   HT     0.417000        1.0080           0
   30296 WT2  2145 TIP3 OH2  OT    -0.834000       15.9994           0
   30297 WT2  2145 TIP3 H1   HT     0.417000        1.0080           0
   30298 WT2  2145 TIP3 H2   HT     0.417000        1.0080           0
   30299 WT2  2146 TIP3 OH2  OT    -0.834000       15.9994           0
   30300 WT2  2146 TIP3 H1   HT     0.417000        1.0080           0
   30301 WT2  2146 TIP3 H2   HT     0.417000        1.0080           0
   30302 WT2  2147 TIP3 OH2  OT    -0.834000       15.9994           0
   30303 WT2  2147 TIP3 H1   HT     0.417000        1.0080           0
   30304 WT2  2147 TIP3 H2   HT     0.417000        1.0080           0
   30305 WT2  2148 TIP3 OH2  OT    -0.834000       15.9994           0
   30306 WT2  2148 TIP3 H1   HT     0.417000        1.0080           0
   30307 WT2  2148 TIP3 H2   HT     0.417000        1.0080           0
   30308 WT2  2149 TIP3 OH2  OT    -0.834000       15.9994           0
   30309 WT2  2149 TIP3 H1   HT     0.417000        1.0080           0
   30310 WT2  2149 TIP3 H2   HT     0.417000        1.0080           0
   30311 WT2  2150 TIP3 OH2  OT    -0.834000       15.9994           0
   30312 WT2  2150 TIP3 H1   HT     0.417000        1.0080           0
   30313 WT2  2150 TIP3 H2   HT     0.417000        1.0080           0
   30314 WT2  2151 TIP3 OH2  OT    -0.834000       15.9994           0
   30315 WT2  2151 TIP3 H1   HT     0.417000        1.0080           0
   30316 WT2  2151 TIP3 H2   HT     0.417000        1.0080           0
   30317 WT2  2152 TIP3 OH2  OT    -0.834000       15.9994           0
   30318 WT2  2152 TIP3 H1   HT     0.417000        1.0080           0
   30319 WT2  2152 TIP3 H2   HT     0.417000        1.0080           0
   30320 WT2  2153 TIP3 OH2  OT    -0.834000       15.9994           0
   30321 WT2  2153 TIP3 H1   HT     0.417000        1.0080           0
   30322 WT2  2153 TIP3 H2   HT     0.417000        1.0080           0
   30323 WT2  2154 TIP3 OH2  OT    -0.834000       15.9994           0
   30324 WT2  2154 TIP3 H1   HT     0.417000        1.0080           0
   30325 WT2  2154 TIP3 H2   HT     0.417000        1.0080           0
   30326 WT2  2155 TIP3 OH2  OT    -0.834000       15.9994           0
   30327 WT2  2155 TIP3 H1   HT     0.417000        1.0080           0
   30328 WT2  2155 TIP3 H2   HT     0.417000        1.0080           0
   30329 WT2  2156 TIP3 OH2  OT    -0.834000       15.9994           0
   30330 WT2  2156 TIP3 H1   HT     0.417000        1.0080           0
   30331 WT2  2156 TIP3 H2   HT     0.417000        1.0080           0
   30332 WT2  2157 TIP3 OH2  OT    -0.834000       15.9994           0
   30333 WT2  2157 TIP3 H1   HT     0.417000        1.0080           0
   30334 WT2  2157 TIP3 H2   HT     0.417000        1.0080           0
   30335 WT2  2158 TIP3 OH2  OT    -0.834000       15.9994           0
   30336 WT2  2158 TIP3 H1   HT     0.417000        1.0080           0
   30337 WT2  2158 TIP3 H2   HT     0.417000        1.0080           0
   30338 WT2  2159 TIP3 OH2  OT    -0.834000       15.9994           0
   30339 WT2  2159 TIP3 H1   HT     0.417000        1.0080           0
   30340 WT2  2159 TIP3 H2   HT     0.417000        1.0080           0
   30341 WT2  2160 TIP3 OH2  OT    -0.834000       15.9994           0
   30342 WT2  2160 TIP3 H1   HT     0.417000        1.0080           0
   30343 WT2  2160 TIP3 H2   HT     0.417000        1.0080           0
   30344 WT2  2161 TIP3 OH2  OT    -0.834000       15.9994           0
   30345 WT2  2161 TIP3 H1   HT     0.417000        1.0080           0
   30346 WT2  2161 TIP3 H2   HT     0.417000        1.0080           0
   30347 WT2  2163 TIP3 OH2  OT    -0.834000       15.9994           0
   30348 WT2  2163 TIP3 H1   HT     0.417000        1.0080           0
   30349 WT2  2163 TIP3 H2   HT     0.417000        1.0080           0
   30350 WT2  2164 TIP3 OH2  OT    -0.834000       15.9994           0
   30351 WT2  2164 TIP3 H1   HT     0.417000        1.0080           0
   30352 WT2  2164 TIP3 H2   HT     0.417000        1.0080           0
   30353 WT2  2165 TIP3 OH2  OT    -0.834000       15.9994           0
   30354 WT2  2165 TIP3 H1   HT     0.417000        1.0080           0
   30355 WT2  2165 TIP3 H2   HT     0.417000        1.0080           0
   30356 WT2  2167 TIP3 OH2  OT    -0.834000       15.9994           0
   30357 WT2  2167 TIP3 H1   HT     0.417000        1.0080           0
   30358 WT2  2167 TIP3 H2   HT     0.417000        1.0080           0
   30359 WT2  2168 TIP3 OH2  OT    -0.834000       15.9994           0
   30360 WT2  2168 TIP3 H1   HT     0.417000        1.0080           0
   30361 WT2  2168 TIP3 H2   HT     0.417000        1.0080           0
   30362 WT2  2169 TIP3 OH2  OT    -0.834000       15.9994           0
   30363 WT2  2169 TIP3 H1   HT     0.417000        1.0080           0
   30364 WT2  2169 TIP3 H2   HT     0.417000        1.0080           0
   30365 WT2  2170 TIP3 OH2  OT    -0.834000       15.9994           0
   30366 WT2  2170 TIP3 H1   HT     0.417000        1.0080           0
   30367 WT2  2170 TIP3 H2   HT     0.417000        1.0080           0
   30368 WT2  2171 TIP3 OH2  OT    -0.834000       15.9994           0
   30369 WT2  2171 TIP3 H1   HT     0.417000        1.0080           0
   30370 WT2  2171 TIP3 H2   HT     0.417000        1.0080           0
   30371 WT2  2172 TIP3 OH2  OT    -0.834000       15.9994           0
   30372 WT2  2172 TIP3 H1   HT     0.417000        1.0080           0
   30373 WT2  2172 TIP3 H2   HT     0.417000        1.0080           0
   30374 WT2  2173 TIP3 OH2  OT    -0.834000       15.9994           0
   30375 WT2  2173 TIP3 H1   HT     0.417000        1.0080           0
   30376 WT2  2173 TIP3 H2   HT     0.417000        1.0080           0
   30377 WT2  2174 TIP3 OH2  OT    -0.834000       15.9994           0
   30378 WT2  2174 TIP3 H1   HT     0.417000        1.0080           0
   30379 WT2  2174 TIP3 H2   HT     0.417000        1.0080           0
   30380 WT2  2175 TIP3 OH2  OT    -0.834000       15.9994           0
   30381 WT2  2175 TIP3 H1   HT     0.417000        1.0080           0
   30382 WT2  2175 TIP3 H2   HT     0.417000        1.0080           0
   30383 WT2  2176 TIP3 OH2  OT    -0.834000       15.9994           0
   30384 WT2  2176 TIP3 H1   HT     0.417000        1.0080           0
   30385 WT2  2176 TIP3 H2   HT     0.417000        1.0080           0
   30386 WT2  2178 TIP3 OH2  OT    -0.834000       15.9994           0
   30387 WT2  2178 TIP3 H1   HT     0.417000        1.0080           0
   30388 WT2  2178 TIP3 H2   HT     0.417000        1.0080           0
   30389 WT2  2180 TIP3 OH2  OT    -0.834000       15.9994           0
   30390 WT2  2180 TIP3 H1   HT     0.417000        1.0080           0
   30391 WT2  2180 TIP3 H2   HT     0.417000        1.0080           0
   30392 WT2  2181 TIP3 OH2  OT    -0.834000       15.9994           0
   30393 WT2  2181 TIP3 H1   HT     0.417000        1.0080           0
   30394 WT2  2181 TIP3 H2   HT     0.417000        1.0080           0
   30395 WT2  2184 TIP3 OH2  OT    -0.834000       15.9994           0
   30396 WT2  2184 TIP3 H1   HT     0.417000        1.0080           0
   30397 WT2  2184 TIP3 H2   HT     0.417000        1.0080           0
   30398 WT2  2185 TIP3 OH2  OT    -0.834000       15.9994           0
   30399 WT2  2185 TIP3 H1   HT     0.417000        1.0080           0
   30400 WT2  2185 TIP3 H2   HT     0.417000        1.0080           0
   30401 WT2  2187 TIP3 OH2  OT    -0.834000       15.9994           0
   30402 WT2  2187 TIP3 H1   HT     0.417000        1.0080           0
   30403 WT2  2187 TIP3 H2   HT     0.417000        1.0080           0
   30404 WT2  2188 TIP3 OH2  OT    -0.834000       15.9994           0
   30405 WT2  2188 TIP3 H1   HT     0.417000        1.0080           0
   30406 WT2  2188 TIP3 H2   HT     0.417000        1.0080           0
   30407 WT2  2189 TIP3 OH2  OT    -0.834000       15.9994           0
   30408 WT2  2189 TIP3 H1   HT     0.417000        1.0080           0
   30409 WT2  2189 TIP3 H2   HT     0.417000        1.0080           0
   30410 WT2  2190 TIP3 OH2  OT    -0.834000       15.9994           0
   30411 WT2  2190 TIP3 H1   HT     0.417000        1.0080           0
   30412 WT2  2190 TIP3 H2   HT     0.417000        1.0080           0
   30413 WT2  2191 TIP3 OH2  OT    -0.834000       15.9994           0
   30414 WT2  2191 TIP3 H1   HT     0.417000        1.0080           0
   30415 WT2  2191 TIP3 H2   HT     0.417000        1.0080           0
   30416 WT2  2193 TIP3 OH2  OT    -0.834000       15.9994           0
   30417 WT2  2193 TIP3 H1   HT     0.417000        1.0080           0
   30418 WT2  2193 TIP3 H2   HT     0.417000        1.0080           0
   30419 WT2  2194 TIP3 OH2  OT    -0.834000       15.9994           0
   30420 WT2  2194 TIP3 H1   HT     0.417000        1.0080           0
   30421 WT2  2194 TIP3 H2   HT     0.417000        1.0080           0
   30422 WT2  2195 TIP3 OH2  OT    -0.834000       15.9994           0
   30423 WT2  2195 TIP3 H1   HT     0.417000        1.0080           0
   30424 WT2  2195 TIP3 H2   HT     0.417000        1.0080           0
   30425 WT2  2196 TIP3 OH2  OT    -0.834000       15.9994           0
   30426 WT2  2196 TIP3 H1   HT     0.417000        1.0080           0
   30427 WT2  2196 TIP3 H2   HT     0.417000        1.0080           0
   30428 WT2  2197 TIP3 OH2  OT    -0.834000       15.9994           0
   30429 WT2  2197 TIP3 H1   HT     0.417000        1.0080           0
   30430 WT2  2197 TIP3 H2   HT     0.417000        1.0080           0
   30431 WT2  2198 TIP3 OH2  OT    -0.834000       15.9994           0
   30432 WT2  2198 TIP3 H1   HT     0.417000        1.0080           0
   30433 WT2  2198 TIP3 H2   HT     0.417000        1.0080           0
   30434 WT2  2200 TIP3 OH2  OT    -0.834000       15.9994           0
   30435 WT2  2200 TIP3 H1   HT     0.417000        1.0080           0
   30436 WT2  2200 TIP3 H2   HT     0.417000        1.0080           0
   30437 WT2  2201 TIP3 OH2  OT    -0.834000       15.9994           0
   30438 WT2  2201 TIP3 H1   HT     0.417000        1.0080           0
   30439 WT2  2201 TIP3 H2   HT     0.417000        1.0080           0
   30440 WT2  2202 TIP3 OH2  OT    -0.834000       15.9994           0
   30441 WT2  2202 TIP3 H1   HT     0.417000        1.0080           0
   30442 WT2  2202 TIP3 H2   HT     0.417000        1.0080           0
   30443 WT2  2203 TIP3 OH2  OT    -0.834000       15.9994           0
   30444 WT2  2203 TIP3 H1   HT     0.417000        1.0080           0
   30445 WT2  2203 TIP3 H2   HT     0.417000        1.0080           0
   30446 WT2  2204 TIP3 OH2  OT    -0.834000       15.9994           0
   30447 WT2  2204 TIP3 H1   HT     0.417000        1.0080           0
   30448 WT2  2204 TIP3 H2   HT     0.417000        1.0080           0
   30449 WT2  2205 TIP3 OH2  OT    -0.834000       15.9994           0
   30450 WT2  2205 TIP3 H1   HT     0.417000        1.0080           0
   30451 WT2  2205 TIP3 H2   HT     0.417000        1.0080           0
   30452 WT2  2206 TIP3 OH2  OT    -0.834000       15.9994           0
   30453 WT2  2206 TIP3 H1   HT     0.417000        1.0080           0
   30454 WT2  2206 TIP3 H2   HT     0.417000        1.0080           0
   30455 WT2  2207 TIP3 OH2  OT    -0.834000       15.9994           0
   30456 WT2  2207 TIP3 H1   HT     0.417000        1.0080           0
   30457 WT2  2207 TIP3 H2   HT     0.417000        1.0080           0
   30458 WT2  2209 TIP3 OH2  OT    -0.834000       15.9994           0
   30459 WT2  2209 TIP3 H1   HT     0.417000        1.0080           0
   30460 WT2  2209 TIP3 H2   HT     0.417000        1.0080           0
   30461 WT2  2210 TIP3 OH2  OT    -0.834000       15.9994           0
   30462 WT2  2210 TIP3 H1   HT     0.417000        1.0080           0
   30463 WT2  2210 TIP3 H2   HT     0.417000        1.0080           0
   30464 WT2  2211 TIP3 OH2  OT    -0.834000       15.9994           0
   30465 WT2  2211 TIP3 H1   HT     0.417000        1.0080           0
   30466 WT2  2211 TIP3 H2   HT     0.417000        1.0080           0
   30467 WT2  2212 TIP3 OH2  OT    -0.834000       15.9994           0
   30468 WT2  2212 TIP3 H1   HT     0.417000        1.0080           0
   30469 WT2  2212 TIP3 H2   HT     0.417000        1.0080           0
   30470 WT2  2213 TIP3 OH2  OT    -0.834000       15.9994           0
   30471 WT2  2213 TIP3 H1   HT     0.417000        1.0080           0
   30472 WT2  2213 TIP3 H2   HT     0.417000        1.0080           0
   30473 WT2  2214 TIP3 OH2  OT    -0.834000       15.9994           0
   30474 WT2  2214 TIP3 H1   HT     0.417000        1.0080           0
   30475 WT2  2214 TIP3 H2   HT     0.417000        1.0080           0
   30476 WT2  2215 TIP3 OH2  OT    -0.834000       15.9994           0
   30477 WT2  2215 TIP3 H1   HT     0.417000        1.0080           0
   30478 WT2  2215 TIP3 H2   HT     0.417000        1.0080           0
   30479 WT2  2216 TIP3 OH2  OT    -0.834000       15.9994           0
   30480 WT2  2216 TIP3 H1   HT     0.417000        1.0080           0
   30481 WT2  2216 TIP3 H2   HT     0.417000        1.0080           0
   30482 WT2  2217 TIP3 OH2  OT    -0.834000       15.9994           0
   30483 WT2  2217 TIP3 H1   HT     0.417000        1.0080           0
   30484 WT2  2217 TIP3 H2   HT     0.417000        1.0080           0
   30485 WT2  2218 TIP3 OH2  OT    -0.834000       15.9994           0
   30486 WT2  2218 TIP3 H1   HT     0.417000        1.0080           0
   30487 WT2  2218 TIP3 H2   HT     0.417000        1.0080           0
   30488 WT2  2219 TIP3 OH2  OT    -0.834000       15.9994           0
   30489 WT2  2219 TIP3 H1   HT     0.417000        1.0080           0
   30490 WT2  2219 TIP3 H2   HT     0.417000        1.0080           0
   30491 WT2  2220 TIP3 OH2  OT    -0.834000       15.9994           0
   30492 WT2  2220 TIP3 H1   HT     0.417000        1.0080           0
   30493 WT2  2220 TIP3 H2   HT     0.417000        1.0080           0
   30494 WT2  2222 TIP3 OH2  OT    -0.834000       15.9994           0
   30495 WT2  2222 TIP3 H1   HT     0.417000        1.0080           0
   30496 WT2  2222 TIP3 H2   HT     0.417000        1.0080           0
   30497 WT2  2223 TIP3 OH2  OT    -0.834000       15.9994           0
   30498 WT2  2223 TIP3 H1   HT     0.417000        1.0080           0
   30499 WT2  2223 TIP3 H2   HT     0.417000        1.0080           0
   30500 WT2  2224 TIP3 OH2  OT    -0.834000       15.9994           0
   30501 WT2  2224 TIP3 H1   HT     0.417000        1.0080           0
   30502 WT2  2224 TIP3 H2   HT     0.417000        1.0080           0
   30503 WT2  2227 TIP3 OH2  OT    -0.834000       15.9994           0
   30504 WT2  2227 TIP3 H1   HT     0.417000        1.0080           0
   30505 WT2  2227 TIP3 H2   HT     0.417000        1.0080           0
   30506 WT2  2228 TIP3 OH2  OT    -0.834000       15.9994           0
   30507 WT2  2228 TIP3 H1   HT     0.417000        1.0080           0
   30508 WT2  2228 TIP3 H2   HT     0.417000        1.0080           0
   30509 WT2  2229 TIP3 OH2  OT    -0.834000       15.9994           0
   30510 WT2  2229 TIP3 H1   HT     0.417000        1.0080           0
   30511 WT2  2229 TIP3 H2   HT     0.417000        1.0080           0
   30512 WT2  2230 TIP3 OH2  OT    -0.834000       15.9994           0
   30513 WT2  2230 TIP3 H1   HT     0.417000        1.0080           0
   30514 WT2  2230 TIP3 H2   HT     0.417000        1.0080           0
   30515 WT2  2233 TIP3 OH2  OT    -0.834000       15.9994           0
   30516 WT2  2233 TIP3 H1   HT     0.417000        1.0080           0
   30517 WT2  2233 TIP3 H2   HT     0.417000        1.0080           0
   30518 WT2  2234 TIP3 OH2  OT    -0.834000       15.9994           0
   30519 WT2  2234 TIP3 H1   HT     0.417000        1.0080           0
   30520 WT2  2234 TIP3 H2   HT     0.417000        1.0080           0
   30521 WT2  2235 TIP3 OH2  OT    -0.834000       15.9994           0
   30522 WT2  2235 TIP3 H1   HT     0.417000        1.0080           0
   30523 WT2  2235 TIP3 H2   HT     0.417000        1.0080           0
   30524 WT2  2236 TIP3 OH2  OT    -0.834000       15.9994           0
   30525 WT2  2236 TIP3 H1   HT     0.417000        1.0080           0
   30526 WT2  2236 TIP3 H2   HT     0.417000        1.0080           0
   30527 WT2  2237 TIP3 OH2  OT    -0.834000       15.9994           0
   30528 WT2  2237 TIP3 H1   HT     0.417000        1.0080           0
   30529 WT2  2237 TIP3 H2   HT     0.417000        1.0080           0
   30530 WT2  2239 TIP3 OH2  OT    -0.834000       15.9994           0
   30531 WT2  2239 TIP3 H1   HT     0.417000        1.0080           0
   30532 WT2  2239 TIP3 H2   HT     0.417000        1.0080           0
   30533 WT2  2240 TIP3 OH2  OT    -0.834000       15.9994           0
   30534 WT2  2240 TIP3 H1   HT     0.417000        1.0080           0
   30535 WT2  2240 TIP3 H2   HT     0.417000        1.0080           0
   30536 WT2  2241 TIP3 OH2  OT    -0.834000       15.9994           0
   30537 WT2  2241 TIP3 H1   HT     0.417000        1.0080           0
   30538 WT2  2241 TIP3 H2   HT     0.417000        1.0080           0
   30539 WT2  2243 TIP3 OH2  OT    -0.834000       15.9994           0
   30540 WT2  2243 TIP3 H1   HT     0.417000        1.0080           0
   30541 WT2  2243 TIP3 H2   HT     0.417000        1.0080           0
   30542 WT2  2244 TIP3 OH2  OT    -0.834000       15.9994           0
   30543 WT2  2244 TIP3 H1   HT     0.417000        1.0080           0
   30544 WT2  2244 TIP3 H2   HT     0.417000        1.0080           0
   30545 WT2  2245 TIP3 OH2  OT    -0.834000       15.9994           0
   30546 WT2  2245 TIP3 H1   HT     0.417000        1.0080           0
   30547 WT2  2245 TIP3 H2   HT     0.417000        1.0080           0
   30548 WT2  2246 TIP3 OH2  OT    -0.834000       15.9994           0
   30549 WT2  2246 TIP3 H1   HT     0.417000        1.0080           0
   30550 WT2  2246 TIP3 H2   HT     0.417000        1.0080           0
   30551 WT2  2247 TIP3 OH2  OT    -0.834000       15.9994           0
   30552 WT2  2247 TIP3 H1   HT     0.417000        1.0080           0
   30553 WT2  2247 TIP3 H2   HT     0.417000        1.0080           0
   30554 WT2  2248 TIP3 OH2  OT    -0.834000       15.9994           0
   30555 WT2  2248 TIP3 H1   HT     0.417000        1.0080           0
   30556 WT2  2248 TIP3 H2   HT     0.417000        1.0080           0
   30557 WT2  2249 TIP3 OH2  OT    -0.834000       15.9994           0
   30558 WT2  2249 TIP3 H1   HT     0.417000        1.0080           0
   30559 WT2  2249 TIP3 H2   HT     0.417000        1.0080           0
   30560 WT2  2250 TIP3 OH2  OT    -0.834000       15.9994           0
   30561 WT2  2250 TIP3 H1   HT     0.417000        1.0080           0
   30562 WT2  2250 TIP3 H2   HT     0.417000        1.0080           0
   30563 WT2  2251 TIP3 OH2  OT    -0.834000       15.9994           0
   30564 WT2  2251 TIP3 H1   HT     0.417000        1.0080           0
   30565 WT2  2251 TIP3 H2   HT     0.417000        1.0080           0
   30566 WT2  2252 TIP3 OH2  OT    -0.834000       15.9994           0
   30567 WT2  2252 TIP3 H1   HT     0.417000        1.0080           0
   30568 WT2  2252 TIP3 H2   HT     0.417000        1.0080           0
   30569 WT2  2253 TIP3 OH2  OT    -0.834000       15.9994           0
   30570 WT2  2253 TIP3 H1   HT     0.417000        1.0080           0
   30571 WT2  2253 TIP3 H2   HT     0.417000        1.0080           0
   30572 WT2  2254 TIP3 OH2  OT    -0.834000       15.9994           0
   30573 WT2  2254 TIP3 H1   HT     0.417000        1.0080           0
   30574 WT2  2254 TIP3 H2   HT     0.417000        1.0080           0
   30575 WT2  2255 TIP3 OH2  OT    -0.834000       15.9994           0
   30576 WT2  2255 TIP3 H1   HT     0.417000        1.0080           0
   30577 WT2  2255 TIP3 H2   HT     0.417000        1.0080           0
   30578 WT2  2257 TIP3 OH2  OT    -0.834000       15.9994           0
   30579 WT2  2257 TIP3 H1   HT     0.417000        1.0080           0
   30580 WT2  2257 TIP3 H2   HT     0.417000        1.0080           0
   30581 WT2  2258 TIP3 OH2  OT    -0.834000       15.9994           0
   30582 WT2  2258 TIP3 H1   HT     0.417000        1.0080           0
   30583 WT2  2258 TIP3 H2   HT     0.417000        1.0080           0
   30584 WT2  2259 TIP3 OH2  OT    -0.834000       15.9994           0
   30585 WT2  2259 TIP3 H1   HT     0.417000        1.0080           0
   30586 WT2  2259 TIP3 H2   HT     0.417000        1.0080           0
   30587 WT2  2260 TIP3 OH2  OT    -0.834000       15.9994           0
   30588 WT2  2260 TIP3 H1   HT     0.417000        1.0080           0
   30589 WT2  2260 TIP3 H2   HT     0.417000        1.0080           0
   30590 WT2  2261 TIP3 OH2  OT    -0.834000       15.9994           0
   30591 WT2  2261 TIP3 H1   HT     0.417000        1.0080           0
   30592 WT2  2261 TIP3 H2   HT     0.417000        1.0080           0
   30593 WT2  2262 TIP3 OH2  OT    -0.834000       15.9994           0
   30594 WT2  2262 TIP3 H1   HT     0.417000        1.0080           0
   30595 WT2  2262 TIP3 H2   HT     0.417000        1.0080           0
   30596 WT2  2263 TIP3 OH2  OT    -0.834000       15.9994           0
   30597 WT2  2263 TIP3 H1   HT     0.417000        1.0080           0
   30598 WT2  2263 TIP3 H2   HT     0.417000        1.0080           0
   30599 WT2  2264 TIP3 OH2  OT    -0.834000       15.9994           0
   30600 WT2  2264 TIP3 H1   HT     0.417000        1.0080           0
   30601 WT2  2264 TIP3 H2   HT     0.417000        1.0080           0
   30602 WT2  2265 TIP3 OH2  OT    -0.834000       15.9994           0
   30603 WT2  2265 TIP3 H1   HT     0.417000        1.0080           0
   30604 WT2  2265 TIP3 H2   HT     0.417000        1.0080           0
   30605 WT2  2266 TIP3 OH2  OT    -0.834000       15.9994           0
   30606 WT2  2266 TIP3 H1   HT     0.417000        1.0080           0
   30607 WT2  2266 TIP3 H2   HT     0.417000        1.0080           0
   30608 WT2  2267 TIP3 OH2  OT    -0.834000       15.9994           0
   30609 WT2  2267 TIP3 H1   HT     0.417000        1.0080           0
   30610 WT2  2267 TIP3 H2   HT     0.417000        1.0080           0
   30611 WT2  2268 TIP3 OH2  OT    -0.834000       15.9994           0
   30612 WT2  2268 TIP3 H1   HT     0.417000        1.0080           0
   30613 WT2  2268 TIP3 H2   HT     0.417000        1.0080           0
   30614 WT2  2269 TIP3 OH2  OT    -0.834000       15.9994           0
   30615 WT2  2269 TIP3 H1   HT     0.417000        1.0080           0
   30616 WT2  2269 TIP3 H2   HT     0.417000        1.0080           0
   30617 WT2  2270 TIP3 OH2  OT    -0.834000       15.9994           0
   30618 WT2  2270 TIP3 H1   HT     0.417000        1.0080           0
   30619 WT2  2270 TIP3 H2   HT     0.417000        1.0080           0
   30620 WT2  2271 TIP3 OH2  OT    -0.834000       15.9994           0
   30621 WT2  2271 TIP3 H1   HT     0.417000        1.0080           0
   30622 WT2  2271 TIP3 H2   HT     0.417000        1.0080           0
   30623 WT2  2272 TIP3 OH2  OT    -0.834000       15.9994           0
   30624 WT2  2272 TIP3 H1   HT     0.417000        1.0080           0
   30625 WT2  2272 TIP3 H2   HT     0.417000        1.0080           0
   30626 WT2  2273 TIP3 OH2  OT    -0.834000       15.9994           0
   30627 WT2  2273 TIP3 H1   HT     0.417000        1.0080           0
   30628 WT2  2273 TIP3 H2   HT     0.417000        1.0080           0
   30629 WT2  2274 TIP3 OH2  OT    -0.834000       15.9994           0
   30630 WT2  2274 TIP3 H1   HT     0.417000        1.0080           0
   30631 WT2  2274 TIP3 H2   HT     0.417000        1.0080           0
   30632 WT2  2275 TIP3 OH2  OT    -0.834000       15.9994           0
   30633 WT2  2275 TIP3 H1   HT     0.417000        1.0080           0
   30634 WT2  2275 TIP3 H2   HT     0.417000        1.0080           0
   30635 WT2  2276 TIP3 OH2  OT    -0.834000       15.9994           0
   30636 WT2  2276 TIP3 H1   HT     0.417000        1.0080           0
   30637 WT2  2276 TIP3 H2   HT     0.417000        1.0080           0
   30638 WT2  2278 TIP3 OH2  OT    -0.834000       15.9994           0
   30639 WT2  2278 TIP3 H1   HT     0.417000        1.0080           0
   30640 WT2  2278 TIP3 H2   HT     0.417000        1.0080           0
   30641 WT2  2279 TIP3 OH2  OT    -0.834000       15.9994           0
   30642 WT2  2279 TIP3 H1   HT     0.417000        1.0080           0
   30643 WT2  2279 TIP3 H2   HT     0.417000        1.0080           0
   30644 WT2  2280 TIP3 OH2  OT    -0.834000       15.9994           0
   30645 WT2  2280 TIP3 H1   HT     0.417000        1.0080           0
   30646 WT2  2280 TIP3 H2   HT     0.417000        1.0080           0
   30647 WT2  2281 TIP3 OH2  OT    -0.834000       15.9994           0
   30648 WT2  2281 TIP3 H1   HT     0.417000        1.0080           0
   30649 WT2  2281 TIP3 H2   HT     0.417000        1.0080           0
   30650 WT2  2282 TIP3 OH2  OT    -0.834000       15.9994           0
   30651 WT2  2282 TIP3 H1   HT     0.417000        1.0080           0
   30652 WT2  2282 TIP3 H2   HT     0.417000        1.0080           0
   30653 WT2  2283 TIP3 OH2  OT    -0.834000       15.9994           0
   30654 WT2  2283 TIP3 H1   HT     0.417000        1.0080           0
   30655 WT2  2283 TIP3 H2   HT     0.417000        1.0080           0
   30656 WT2  2284 TIP3 OH2  OT    -0.834000       15.9994           0
   30657 WT2  2284 TIP3 H1   HT     0.417000        1.0080           0
   30658 WT2  2284 TIP3 H2   HT     0.417000        1.0080           0
   30659 WT2  2285 TIP3 OH2  OT    -0.834000       15.9994           0
   30660 WT2  2285 TIP3 H1   HT     0.417000        1.0080           0
   30661 WT2  2285 TIP3 H2   HT     0.417000        1.0080           0
   30662 WT2  2286 TIP3 OH2  OT    -0.834000       15.9994           0
   30663 WT2  2286 TIP3 H1   HT     0.417000        1.0080           0
   30664 WT2  2286 TIP3 H2   HT     0.417000        1.0080           0
   30665 WT2  2287 TIP3 OH2  OT    -0.834000       15.9994           0
   30666 WT2  2287 TIP3 H1   HT     0.417000        1.0080           0
   30667 WT2  2287 TIP3 H2   HT     0.417000        1.0080           0
   30668 WT2  2289 TIP3 OH2  OT    -0.834000       15.9994           0
   30669 WT2  2289 TIP3 H1   HT     0.417000        1.0080           0
   30670 WT2  2289 TIP3 H2   HT     0.417000        1.0080           0
   30671 WT2  2290 TIP3 OH2  OT    -0.834000       15.9994           0
   30672 WT2  2290 TIP3 H1   HT     0.417000        1.0080           0
   30673 WT2  2290 TIP3 H2   HT     0.417000        1.0080           0
   30674 WT2  2291 TIP3 OH2  OT    -0.834000       15.9994           0
   30675 WT2  2291 TIP3 H1   HT     0.417000        1.0080           0
   30676 WT2  2291 TIP3 H2   HT     0.417000        1.0080           0
   30677 WT2  2292 TIP3 OH2  OT    -0.834000       15.9994           0
   30678 WT2  2292 TIP3 H1   HT     0.417000        1.0080           0
   30679 WT2  2292 TIP3 H2   HT     0.417000        1.0080           0
   30680 WT2  2293 TIP3 OH2  OT    -0.834000       15.9994           0
   30681 WT2  2293 TIP3 H1   HT     0.417000        1.0080           0
   30682 WT2  2293 TIP3 H2   HT     0.417000        1.0080           0
   30683 WT2  2294 TIP3 OH2  OT    -0.834000       15.9994           0
   30684 WT2  2294 TIP3 H1   HT     0.417000        1.0080           0
   30685 WT2  2294 TIP3 H2   HT     0.417000        1.0080           0
   30686 WT2  2296 TIP3 OH2  OT    -0.834000       15.9994           0
   30687 WT2  2296 TIP3 H1   HT     0.417000        1.0080           0
   30688 WT2  2296 TIP3 H2   HT     0.417000        1.0080           0
   30689 WT2  2297 TIP3 OH2  OT    -0.834000       15.9994           0
   30690 WT2  2297 TIP3 H1   HT     0.417000        1.0080           0
   30691 WT2  2297 TIP3 H2   HT     0.417000        1.0080           0
   30692 WT2  2298 TIP3 OH2  OT    -0.834000       15.9994           0
   30693 WT2  2298 TIP3 H1   HT     0.417000        1.0080           0
   30694 WT2  2298 TIP3 H2   HT     0.417000        1.0080           0
   30695 WT2  2299 TIP3 OH2  OT    -0.834000       15.9994           0
   30696 WT2  2299 TIP3 H1   HT     0.417000        1.0080           0
   30697 WT2  2299 TIP3 H2   HT     0.417000        1.0080           0
   30698 WT2  2300 TIP3 OH2  OT    -0.834000       15.9994           0
   30699 WT2  2300 TIP3 H1   HT     0.417000        1.0080           0
   30700 WT2  2300 TIP3 H2   HT     0.417000        1.0080           0
   30701 WT2  2301 TIP3 OH2  OT    -0.834000       15.9994           0
   30702 WT2  2301 TIP3 H1   HT     0.417000        1.0080           0
   30703 WT2  2301 TIP3 H2   HT     0.417000        1.0080           0
   30704 WT2  2302 TIP3 OH2  OT    -0.834000       15.9994           0
   30705 WT2  2302 TIP3 H1   HT     0.417000        1.0080           0
   30706 WT2  2302 TIP3 H2   HT     0.417000        1.0080           0
   30707 WT2  2303 TIP3 OH2  OT    -0.834000       15.9994           0
   30708 WT2  2303 TIP3 H1   HT     0.417000        1.0080           0
   30709 WT2  2303 TIP3 H2   HT     0.417000        1.0080           0
   30710 WT2  2305 TIP3 OH2  OT    -0.834000       15.9994           0
   30711 WT2  2305 TIP3 H1   HT     0.417000        1.0080           0
   30712 WT2  2305 TIP3 H2   HT     0.417000        1.0080           0
   30713 WT2  2306 TIP3 OH2  OT    -0.834000       15.9994           0
   30714 WT2  2306 TIP3 H1   HT     0.417000        1.0080           0
   30715 WT2  2306 TIP3 H2   HT     0.417000        1.0080           0
   30716 WT2  2307 TIP3 OH2  OT    -0.834000       15.9994           0
   30717 WT2  2307 TIP3 H1   HT     0.417000        1.0080           0
   30718 WT2  2307 TIP3 H2   HT     0.417000        1.0080           0
   30719 WT2  2308 TIP3 OH2  OT    -0.834000       15.9994           0
   30720 WT2  2308 TIP3 H1   HT     0.417000        1.0080           0
   30721 WT2  2308 TIP3 H2   HT     0.417000        1.0080           0
   30722 WT2  2309 TIP3 OH2  OT    -0.834000       15.9994           0
   30723 WT2  2309 TIP3 H1   HT     0.417000        1.0080           0
   30724 WT2  2309 TIP3 H2   HT     0.417000        1.0080           0
   30725 WT2  2310 TIP3 OH2  OT    -0.834000       15.9994           0
   30726 WT2  2310 TIP3 H1   HT     0.417000        1.0080           0
   30727 WT2  2310 TIP3 H2   HT     0.417000        1.0080           0
   30728 WT2  2311 TIP3 OH2  OT    -0.834000       15.9994           0
   30729 WT2  2311 TIP3 H1   HT     0.417000        1.0080           0
   30730 WT2  2311 TIP3 H2   HT     0.417000        1.0080           0
   30731 WT2  2312 TIP3 OH2  OT    -0.834000       15.9994           0
   30732 WT2  2312 TIP3 H1   HT     0.417000        1.0080           0
   30733 WT2  2312 TIP3 H2   HT     0.417000        1.0080           0
   30734 WT2  2313 TIP3 OH2  OT    -0.834000       15.9994           0
   30735 WT2  2313 TIP3 H1   HT     0.417000        1.0080           0
   30736 WT2  2313 TIP3 H2   HT     0.417000        1.0080           0
   30737 WT2  2315 TIP3 OH2  OT    -0.834000       15.9994           0
   30738 WT2  2315 TIP3 H1   HT     0.417000        1.0080           0
   30739 WT2  2315 TIP3 H2   HT     0.417000        1.0080           0
   30740 WT2  2316 TIP3 OH2  OT    -0.834000       15.9994           0
   30741 WT2  2316 TIP3 H1   HT     0.417000        1.0080           0
   30742 WT2  2316 TIP3 H2   HT     0.417000        1.0080           0
   30743 WT2  2317 TIP3 OH2  OT    -0.834000       15.9994           0
   30744 WT2  2317 TIP3 H1   HT     0.417000        1.0080           0
   30745 WT2  2317 TIP3 H2   HT     0.417000        1.0080           0
   30746 WT2  2318 TIP3 OH2  OT    -0.834000       15.9994           0
   30747 WT2  2318 TIP3 H1   HT     0.417000        1.0080           0
   30748 WT2  2318 TIP3 H2   HT     0.417000        1.0080           0
   30749 WT2  2319 TIP3 OH2  OT    -0.834000       15.9994           0
   30750 WT2  2319 TIP3 H1   HT     0.417000        1.0080           0
   30751 WT2  2319 TIP3 H2   HT     0.417000        1.0080           0
   30752 WT2  2320 TIP3 OH2  OT    -0.834000       15.9994           0
   30753 WT2  2320 TIP3 H1   HT     0.417000        1.0080           0
   30754 WT2  2320 TIP3 H2   HT     0.417000        1.0080           0
   30755 WT2  2322 TIP3 OH2  OT    -0.834000       15.9994           0
   30756 WT2  2322 TIP3 H1   HT     0.417000        1.0080           0
   30757 WT2  2322 TIP3 H2   HT     0.417000        1.0080           0
   30758 WT2  2323 TIP3 OH2  OT    -0.834000       15.9994           0
   30759 WT2  2323 TIP3 H1   HT     0.417000        1.0080           0
   30760 WT2  2323 TIP3 H2   HT     0.417000        1.0080           0
   30761 WT2  2324 TIP3 OH2  OT    -0.834000       15.9994           0
   30762 WT2  2324 TIP3 H1   HT     0.417000        1.0080           0
   30763 WT2  2324 TIP3 H2   HT     0.417000        1.0080           0
   30764 WT2  2325 TIP3 OH2  OT    -0.834000       15.9994           0
   30765 WT2  2325 TIP3 H1   HT     0.417000        1.0080           0
   30766 WT2  2325 TIP3 H2   HT     0.417000        1.0080           0
   30767 WT2  2326 TIP3 OH2  OT    -0.834000       15.9994           0
   30768 WT2  2326 TIP3 H1   HT     0.417000        1.0080           0
   30769 WT2  2326 TIP3 H2   HT     0.417000        1.0080           0
   30770 WT2  2327 TIP3 OH2  OT    -0.834000       15.9994           0
   30771 WT2  2327 TIP3 H1   HT     0.417000        1.0080           0
   30772 WT2  2327 TIP3 H2   HT     0.417000        1.0080           0
   30773 WT2  2328 TIP3 OH2  OT    -0.834000       15.9994           0
   30774 WT2  2328 TIP3 H1   HT     0.417000        1.0080           0
   30775 WT2  2328 TIP3 H2   HT     0.417000        1.0080           0
   30776 WT2  2329 TIP3 OH2  OT    -0.834000       15.9994           0
   30777 WT2  2329 TIP3 H1   HT     0.417000        1.0080           0
   30778 WT2  2329 TIP3 H2   HT     0.417000        1.0080           0
   30779 WT2  2330 TIP3 OH2  OT    -0.834000       15.9994           0
   30780 WT2  2330 TIP3 H1   HT     0.417000        1.0080           0
   30781 WT2  2330 TIP3 H2   HT     0.417000        1.0080           0
   30782 WT2  2331 TIP3 OH2  OT    -0.834000       15.9994           0
   30783 WT2  2331 TIP3 H1   HT     0.417000        1.0080           0
   30784 WT2  2331 TIP3 H2   HT     0.417000        1.0080           0
   30785 WT2  2332 TIP3 OH2  OT    -0.834000       15.9994           0
   30786 WT2  2332 TIP3 H1   HT     0.417000        1.0080           0
   30787 WT2  2332 TIP3 H2   HT     0.417000        1.0080           0
   30788 WT2  2333 TIP3 OH2  OT    -0.834000       15.9994           0
   30789 WT2  2333 TIP3 H1   HT     0.417000        1.0080           0
   30790 WT2  2333 TIP3 H2   HT     0.417000        1.0080           0
   30791 WT2  2334 TIP3 OH2  OT    -0.834000       15.9994           0
   30792 WT2  2334 TIP3 H1   HT     0.417000        1.0080           0
   30793 WT2  2334 TIP3 H2   HT     0.417000        1.0080           0
   30794 WT2  2335 TIP3 OH2  OT    -0.834000       15.9994           0
   30795 WT2  2335 TIP3 H1   HT     0.417000        1.0080           0
   30796 WT2  2335 TIP3 H2   HT     0.417000        1.0080           0
   30797 WT2  2336 TIP3 OH2  OT    -0.834000       15.9994           0
   30798 WT2  2336 TIP3 H1   HT     0.417000        1.0080           0
   30799 WT2  2336 TIP3 H2   HT     0.417000        1.0080           0
   30800 WT2  2337 TIP3 OH2  OT    -0.834000       15.9994           0
   30801 WT2  2337 TIP3 H1   HT     0.417000        1.0080           0
   30802 WT2  2337 TIP3 H2   HT     0.417000        1.0080           0
   30803 WT2  2338 TIP3 OH2  OT    -0.834000       15.9994           0
   30804 WT2  2338 TIP3 H1   HT     0.417000        1.0080           0
   30805 WT2  2338 TIP3 H2   HT     0.417000        1.0080           0
   30806 WT2  2339 TIP3 OH2  OT    -0.834000       15.9994           0
   30807 WT2  2339 TIP3 H1   HT     0.417000        1.0080           0
   30808 WT2  2339 TIP3 H2   HT     0.417000        1.0080           0
   30809 WT2  2340 TIP3 OH2  OT    -0.834000       15.9994           0
   30810 WT2  2340 TIP3 H1   HT     0.417000        1.0080           0
   30811 WT2  2340 TIP3 H2   HT     0.417000        1.0080           0
   30812 WT2  2341 TIP3 OH2  OT    -0.834000       15.9994           0
   30813 WT2  2341 TIP3 H1   HT     0.417000        1.0080           0
   30814 WT2  2341 TIP3 H2   HT     0.417000        1.0080           0
   30815 WT2  2342 TIP3 OH2  OT    -0.834000       15.9994           0
   30816 WT2  2342 TIP3 H1   HT     0.417000        1.0080           0
   30817 WT2  2342 TIP3 H2   HT     0.417000        1.0080           0
   30818 WT2  2344 TIP3 OH2  OT    -0.834000       15.9994           0
   30819 WT2  2344 TIP3 H1   HT     0.417000        1.0080           0
   30820 WT2  2344 TIP3 H2   HT     0.417000        1.0080           0
   30821 WT2  2345 TIP3 OH2  OT    -0.834000       15.9994           0
   30822 WT2  2345 TIP3 H1   HT     0.417000        1.0080           0
   30823 WT2  2345 TIP3 H2   HT     0.417000        1.0080           0
   30824 WT2  2346 TIP3 OH2  OT    -0.834000       15.9994           0
   30825 WT2  2346 TIP3 H1   HT     0.417000        1.0080           0
   30826 WT2  2346 TIP3 H2   HT     0.417000        1.0080           0
   30827 WT2  2347 TIP3 OH2  OT    -0.834000       15.9994           0
   30828 WT2  2347 TIP3 H1   HT     0.417000        1.0080           0
   30829 WT2  2347 TIP3 H2   HT     0.417000        1.0080           0
   30830 WT2  2348 TIP3 OH2  OT    -0.834000       15.9994           0
   30831 WT2  2348 TIP3 H1   HT     0.417000        1.0080           0
   30832 WT2  2348 TIP3 H2   HT     0.417000        1.0080           0
   30833 WT2  2349 TIP3 OH2  OT    -0.834000       15.9994           0
   30834 WT2  2349 TIP3 H1   HT     0.417000        1.0080           0
   30835 WT2  2349 TIP3 H2   HT     0.417000        1.0080           0
   30836 WT2  2350 TIP3 OH2  OT    -0.834000       15.9994           0
   30837 WT2  2350 TIP3 H1   HT     0.417000        1.0080           0
   30838 WT2  2350 TIP3 H2   HT     0.417000        1.0080           0
   30839 WT2  2351 TIP3 OH2  OT    -0.834000       15.9994           0
   30840 WT2  2351 TIP3 H1   HT     0.417000        1.0080           0
   30841 WT2  2351 TIP3 H2   HT     0.417000        1.0080           0
   30842 WT2  2352 TIP3 OH2  OT    -0.834000       15.9994           0
   30843 WT2  2352 TIP3 H1   HT     0.417000        1.0080           0
   30844 WT2  2352 TIP3 H2   HT     0.417000        1.0080           0
   30845 WT2  2353 TIP3 OH2  OT    -0.834000       15.9994           0
   30846 WT2  2353 TIP3 H1   HT     0.417000        1.0080           0
   30847 WT2  2353 TIP3 H2   HT     0.417000        1.0080           0
   30848 WT2  2354 TIP3 OH2  OT    -0.834000       15.9994           0
   30849 WT2  2354 TIP3 H1   HT     0.417000        1.0080           0
   30850 WT2  2354 TIP3 H2   HT     0.417000        1.0080           0
   30851 WT2  2355 TIP3 OH2  OT    -0.834000       15.9994           0
   30852 WT2  2355 TIP3 H1   HT     0.417000        1.0080           0
   30853 WT2  2355 TIP3 H2   HT     0.417000        1.0080           0
   30854 WT2  2356 TIP3 OH2  OT    -0.834000       15.9994           0
   30855 WT2  2356 TIP3 H1   HT     0.417000        1.0080           0
   30856 WT2  2356 TIP3 H2   HT     0.417000        1.0080           0
   30857 WT2  2357 TIP3 OH2  OT    -0.834000       15.9994           0
   30858 WT2  2357 TIP3 H1   HT     0.417000        1.0080           0
   30859 WT2  2357 TIP3 H2   HT     0.417000        1.0080           0
   30860 WT2  2358 TIP3 OH2  OT    -0.834000       15.9994           0
   30861 WT2  2358 TIP3 H1   HT     0.417000        1.0080           0
   30862 WT2  2358 TIP3 H2   HT     0.417000        1.0080           0
   30863 WT2  2359 TIP3 OH2  OT    -0.834000       15.9994           0
   30864 WT2  2359 TIP3 H1   HT     0.417000        1.0080           0
   30865 WT2  2359 TIP3 H2   HT     0.417000        1.0080           0
   30866 WT2  2360 TIP3 OH2  OT    -0.834000       15.9994           0
   30867 WT2  2360 TIP3 H1   HT     0.417000        1.0080           0
   30868 WT2  2360 TIP3 H2   HT     0.417000        1.0080           0
   30869 WT2  2361 TIP3 OH2  OT    -0.834000       15.9994           0
   30870 WT2  2361 TIP3 H1   HT     0.417000        1.0080           0
   30871 WT2  2361 TIP3 H2   HT     0.417000        1.0080           0
   30872 WT2  2362 TIP3 OH2  OT    -0.834000       15.9994           0
   30873 WT2  2362 TIP3 H1   HT     0.417000        1.0080           0
   30874 WT2  2362 TIP3 H2   HT     0.417000        1.0080           0
   30875 WT2  2363 TIP3 OH2  OT    -0.834000       15.9994           0
   30876 WT2  2363 TIP3 H1   HT     0.417000        1.0080           0
   30877 WT2  2363 TIP3 H2   HT     0.417000        1.0080           0
   30878 WT2  2364 TIP3 OH2  OT    -0.834000       15.9994           0
   30879 WT2  2364 TIP3 H1   HT     0.417000        1.0080           0
   30880 WT2  2364 TIP3 H2   HT     0.417000        1.0080           0
   30881 WT2  2365 TIP3 OH2  OT    -0.834000       15.9994           0
   30882 WT2  2365 TIP3 H1   HT     0.417000        1.0080           0
   30883 WT2  2365 TIP3 H2   HT     0.417000        1.0080           0
   30884 WT2  2366 TIP3 OH2  OT    -0.834000       15.9994           0
   30885 WT2  2366 TIP3 H1   HT     0.417000        1.0080           0
   30886 WT2  2366 TIP3 H2   HT     0.417000        1.0080           0
   30887 WT2  2367 TIP3 OH2  OT    -0.834000       15.9994           0
   30888 WT2  2367 TIP3 H1   HT     0.417000        1.0080           0
   30889 WT2  2367 TIP3 H2   HT     0.417000        1.0080           0
   30890 WT2  2368 TIP3 OH2  OT    -0.834000       15.9994           0
   30891 WT2  2368 TIP3 H1   HT     0.417000        1.0080           0
   30892 WT2  2368 TIP3 H2   HT     0.417000        1.0080           0
   30893 WT2  2369 TIP3 OH2  OT    -0.834000       15.9994           0
   30894 WT2  2369 TIP3 H1   HT     0.417000        1.0080           0
   30895 WT2  2369 TIP3 H2   HT     0.417000        1.0080           0
   30896 WT2  2370 TIP3 OH2  OT    -0.834000       15.9994           0
   30897 WT2  2370 TIP3 H1   HT     0.417000        1.0080           0
   30898 WT2  2370 TIP3 H2   HT     0.417000        1.0080           0
   30899 WT2  2371 TIP3 OH2  OT    -0.834000       15.9994           0
   30900 WT2  2371 TIP3 H1   HT     0.417000        1.0080           0
   30901 WT2  2371 TIP3 H2   HT     0.417000        1.0080           0
   30902 WT2  2373 TIP3 OH2  OT    -0.834000       15.9994           0
   30903 WT2  2373 TIP3 H1   HT     0.417000        1.0080           0
   30904 WT2  2373 TIP3 H2   HT     0.417000        1.0080           0
   30905 WT2  2374 TIP3 OH2  OT    -0.834000       15.9994           0
   30906 WT2  2374 TIP3 H1   HT     0.417000        1.0080           0
   30907 WT2  2374 TIP3 H2   HT     0.417000        1.0080           0
   30908 WT2  2375 TIP3 OH2  OT    -0.834000       15.9994           0
   30909 WT2  2375 TIP3 H1   HT     0.417000        1.0080           0
   30910 WT2  2375 TIP3 H2   HT     0.417000        1.0080           0
   30911 WT2  2376 TIP3 OH2  OT    -0.834000       15.9994           0
   30912 WT2  2376 TIP3 H1   HT     0.417000        1.0080           0
   30913 WT2  2376 TIP3 H2   HT     0.417000        1.0080           0
   30914 WT2  2377 TIP3 OH2  OT    -0.834000       15.9994           0
   30915 WT2  2377 TIP3 H1   HT     0.417000        1.0080           0
   30916 WT2  2377 TIP3 H2   HT     0.417000        1.0080           0
   30917 WT2  2378 TIP3 OH2  OT    -0.834000       15.9994           0
   30918 WT2  2378 TIP3 H1   HT     0.417000        1.0080           0
   30919 WT2  2378 TIP3 H2   HT     0.417000        1.0080           0
   30920 WT2  2379 TIP3 OH2  OT    -0.834000       15.9994           0
   30921 WT2  2379 TIP3 H1   HT     0.417000        1.0080           0
   30922 WT2  2379 TIP3 H2   HT     0.417000        1.0080           0
   30923 WT2  2380 TIP3 OH2  OT    -0.834000       15.9994           0
   30924 WT2  2380 TIP3 H1   HT     0.417000        1.0080           0
   30925 WT2  2380 TIP3 H2   HT     0.417000        1.0080           0
   30926 WT2  2381 TIP3 OH2  OT    -0.834000       15.9994           0
   30927 WT2  2381 TIP3 H1   HT     0.417000        1.0080           0
   30928 WT2  2381 TIP3 H2   HT     0.417000        1.0080           0
   30929 WT2  2382 TIP3 OH2  OT    -0.834000       15.9994           0
   30930 WT2  2382 TIP3 H1   HT     0.417000        1.0080           0
   30931 WT2  2382 TIP3 H2   HT     0.417000        1.0080           0
   30932 WT2  2383 TIP3 OH2  OT    -0.834000       15.9994           0
   30933 WT2  2383 TIP3 H1   HT     0.417000        1.0080           0
   30934 WT2  2383 TIP3 H2   HT     0.417000        1.0080           0
   30935 WT2  2384 TIP3 OH2  OT    -0.834000       15.9994           0
   30936 WT2  2384 TIP3 H1   HT     0.417000        1.0080           0
   30937 WT2  2384 TIP3 H2   HT     0.417000        1.0080           0
   30938 WT2  2385 TIP3 OH2  OT    -0.834000       15.9994           0
   30939 WT2  2385 TIP3 H1   HT     0.417000        1.0080           0
   30940 WT2  2385 TIP3 H2   HT     0.417000        1.0080           0
   30941 WT2  2386 TIP3 OH2  OT    -0.834000       15.9994           0
   30942 WT2  2386 TIP3 H1   HT     0.417000        1.0080           0
   30943 WT2  2386 TIP3 H2   HT     0.417000        1.0080           0
   30944 WT2  2387 TIP3 OH2  OT    -0.834000       15.9994           0
   30945 WT2  2387 TIP3 H1   HT     0.417000        1.0080           0
   30946 WT2  2387 TIP3 H2   HT     0.417000        1.0080           0
   30947 WT2  2389 TIP3 OH2  OT    -0.834000       15.9994           0
   30948 WT2  2389 TIP3 H1   HT     0.417000        1.0080           0
   30949 WT2  2389 TIP3 H2   HT     0.417000        1.0080           0
   30950 WT2  2390 TIP3 OH2  OT    -0.834000       15.9994           0
   30951 WT2  2390 TIP3 H1   HT     0.417000        1.0080           0
   30952 WT2  2390 TIP3 H2   HT     0.417000        1.0080           0
   30953 WT2  2391 TIP3 OH2  OT    -0.834000       15.9994           0
   30954 WT2  2391 TIP3 H1   HT     0.417000        1.0080           0
   30955 WT2  2391 TIP3 H2   HT     0.417000        1.0080           0
   30956 WT2  2392 TIP3 OH2  OT    -0.834000       15.9994           0
   30957 WT2  2392 TIP3 H1   HT     0.417000        1.0080           0
   30958 WT2  2392 TIP3 H2   HT     0.417000        1.0080           0
   30959 WT2  2393 TIP3 OH2  OT    -0.834000       15.9994           0
   30960 WT2  2393 TIP3 H1   HT     0.417000        1.0080           0
   30961 WT2  2393 TIP3 H2   HT     0.417000        1.0080           0
   30962 WT2  2394 TIP3 OH2  OT    -0.834000       15.9994           0
   30963 WT2  2394 TIP3 H1   HT     0.417000        1.0080           0
   30964 WT2  2394 TIP3 H2   HT     0.417000        1.0080           0
   30965 WT2  2395 TIP3 OH2  OT    -0.834000       15.9994           0
   30966 WT2  2395 TIP3 H1   HT     0.417000        1.0080           0
   30967 WT2  2395 TIP3 H2   HT     0.417000        1.0080           0
   30968 WT2  2397 TIP3 OH2  OT    -0.834000       15.9994           0
   30969 WT2  2397 TIP3 H1   HT     0.417000        1.0080           0
   30970 WT2  2397 TIP3 H2   HT     0.417000        1.0080           0
   30971 WT2  2399 TIP3 OH2  OT    -0.834000       15.9994           0
   30972 WT2  2399 TIP3 H1   HT     0.417000        1.0080           0
   30973 WT2  2399 TIP3 H2   HT     0.417000        1.0080           0
   30974 WT2  2400 TIP3 OH2  OT    -0.834000       15.9994           0
   30975 WT2  2400 TIP3 H1   HT     0.417000        1.0080           0
   30976 WT2  2400 TIP3 H2   HT     0.417000        1.0080           0
   30977 WT2  2401 TIP3 OH2  OT    -0.834000       15.9994           0
   30978 WT2  2401 TIP3 H1   HT     0.417000        1.0080           0
   30979 WT2  2401 TIP3 H2   HT     0.417000        1.0080           0
   30980 WT2  2402 TIP3 OH2  OT    -0.834000       15.9994           0
   30981 WT2  2402 TIP3 H1   HT     0.417000        1.0080           0
   30982 WT2  2402 TIP3 H2   HT     0.417000        1.0080           0
   30983 WT2  2403 TIP3 OH2  OT    -0.834000       15.9994           0
   30984 WT2  2403 TIP3 H1   HT     0.417000        1.0080           0
   30985 WT2  2403 TIP3 H2   HT     0.417000        1.0080           0
   30986 WT2  2405 TIP3 OH2  OT    -0.834000       15.9994           0
   30987 WT2  2405 TIP3 H1   HT     0.417000        1.0080           0
   30988 WT2  2405 TIP3 H2   HT     0.417000        1.0080           0
   30989 WT2  2406 TIP3 OH2  OT    -0.834000       15.9994           0
   30990 WT2  2406 TIP3 H1   HT     0.417000        1.0080           0
   30991 WT2  2406 TIP3 H2   HT     0.417000        1.0080           0
   30992 WT2  2407 TIP3 OH2  OT    -0.834000       15.9994           0
   30993 WT2  2407 TIP3 H1   HT     0.417000        1.0080           0
   30994 WT2  2407 TIP3 H2   HT     0.417000        1.0080           0
   30995 WT2  2408 TIP3 OH2  OT    -0.834000       15.9994           0
   30996 WT2  2408 TIP3 H1   HT     0.417000        1.0080           0
   30997 WT2  2408 TIP3 H2   HT     0.417000        1.0080           0
   30998 WT2  2409 TIP3 OH2  OT    -0.834000       15.9994           0
   30999 WT2  2409 TIP3 H1   HT     0.417000        1.0080           0
   31000 WT2  2409 TIP3 H2   HT     0.417000        1.0080           0
   31001 WT2  2411 TIP3 OH2  OT    -0.834000       15.9994           0
   31002 WT2  2411 TIP3 H1   HT     0.417000        1.0080           0
   31003 WT2  2411 TIP3 H2   HT     0.417000        1.0080           0
   31004 WT2  2412 TIP3 OH2  OT    -0.834000       15.9994           0
   31005 WT2  2412 TIP3 H1   HT     0.417000        1.0080           0
   31006 WT2  2412 TIP3 H2   HT     0.417000        1.0080           0
   31007 WT2  2413 TIP3 OH2  OT    -0.834000       15.9994           0
   31008 WT2  2413 TIP3 H1   HT     0.417000        1.0080           0
   31009 WT2  2413 TIP3 H2   HT     0.417000        1.0080           0
   31010 WT2  2414 TIP3 OH2  OT    -0.834000       15.9994           0
   31011 WT2  2414 TIP3 H1   HT     0.417000        1.0080           0
   31012 WT2  2414 TIP3 H2   HT     0.417000        1.0080           0
   31013 WT2  2415 TIP3 OH2  OT    -0.834000       15.9994           0
   31014 WT2  2415 TIP3 H1   HT     0.417000        1.0080           0
   31015 WT2  2415 TIP3 H2   HT     0.417000        1.0080           0
   31016 WT2  2416 TIP3 OH2  OT    -0.834000       15.9994           0
   31017 WT2  2416 TIP3 H1   HT     0.417000        1.0080           0
   31018 WT2  2416 TIP3 H2   HT     0.417000        1.0080           0
   31019 WT2  2417 TIP3 OH2  OT    -0.834000       15.9994           0
   31020 WT2  2417 TIP3 H1   HT     0.417000        1.0080           0
   31021 WT2  2417 TIP3 H2   HT     0.417000        1.0080           0
   31022 WT2  2418 TIP3 OH2  OT    -0.834000       15.9994           0
   31023 WT2  2418 TIP3 H1   HT     0.417000        1.0080           0
   31024 WT2  2418 TIP3 H2   HT     0.417000        1.0080           0
   31025 WT2  2419 TIP3 OH2  OT    -0.834000       15.9994           0
   31026 WT2  2419 TIP3 H1   HT     0.417000        1.0080           0
   31027 WT2  2419 TIP3 H2   HT     0.417000        1.0080           0
   31028 WT2  2421 TIP3 OH2  OT    -0.834000       15.9994           0
   31029 WT2  2421 TIP3 H1   HT     0.417000        1.0080           0
   31030 WT2  2421 TIP3 H2   HT     0.417000        1.0080           0
   31031 WT2  2425 TIP3 OH2  OT    -0.834000       15.9994           0
   31032 WT2  2425 TIP3 H1   HT     0.417000        1.0080           0
   31033 WT2  2425 TIP3 H2   HT     0.417000        1.0080           0
   31034 WT2  2426 TIP3 OH2  OT    -0.834000       15.9994           0
   31035 WT2  2426 TIP3 H1   HT     0.417000        1.0080           0
   31036 WT2  2426 TIP3 H2   HT     0.417000        1.0080           0
   31037 WT2  2427 TIP3 OH2  OT    -0.834000       15.9994           0
   31038 WT2  2427 TIP3 H1   HT     0.417000        1.0080           0
   31039 WT2  2427 TIP3 H2   HT     0.417000        1.0080           0
   31040 WT2  2429 TIP3 OH2  OT    -0.834000       15.9994           0
   31041 WT2  2429 TIP3 H1   HT     0.417000        1.0080           0
   31042 WT2  2429 TIP3 H2   HT     0.417000        1.0080           0
   31043 WT2  2430 TIP3 OH2  OT    -0.834000       15.9994           0
   31044 WT2  2430 TIP3 H1   HT     0.417000        1.0080           0
   31045 WT2  2430 TIP3 H2   HT     0.417000        1.0080           0
   31046 WT2  2431 TIP3 OH2  OT    -0.834000       15.9994           0
   31047 WT2  2431 TIP3 H1   HT     0.417000        1.0080           0
   31048 WT2  2431 TIP3 H2   HT     0.417000        1.0080           0
   31049 WT2  2432 TIP3 OH2  OT    -0.834000       15.9994           0
   31050 WT2  2432 TIP3 H1   HT     0.417000        1.0080           0
   31051 WT2  2432 TIP3 H2   HT     0.417000        1.0080           0
   31052 WT2  2433 TIP3 OH2  OT    -0.834000       15.9994           0
   31053 WT2  2433 TIP3 H1   HT     0.417000        1.0080           0
   31054 WT2  2433 TIP3 H2   HT     0.417000        1.0080           0
   31055 WT2  2434 TIP3 OH2  OT    -0.834000       15.9994           0
   31056 WT2  2434 TIP3 H1   HT     0.417000        1.0080           0
   31057 WT2  2434 TIP3 H2   HT     0.417000        1.0080           0
   31058 WT2  2435 TIP3 OH2  OT    -0.834000       15.9994           0
   31059 WT2  2435 TIP3 H1   HT     0.417000        1.0080           0
   31060 WT2  2435 TIP3 H2   HT     0.417000        1.0080           0
   31061 WT2  2436 TIP3 OH2  OT    -0.834000       15.9994           0
   31062 WT2  2436 TIP3 H1   HT     0.417000        1.0080           0
   31063 WT2  2436 TIP3 H2   HT     0.417000        1.0080           0
   31064 WT2  2437 TIP3 OH2  OT    -0.834000       15.9994           0
   31065 WT2  2437 TIP3 H1   HT     0.417000        1.0080           0
   31066 WT2  2437 TIP3 H2   HT     0.417000        1.0080           0
   31067 WT2  2439 TIP3 OH2  OT    -0.834000       15.9994           0
   31068 WT2  2439 TIP3 H1   HT     0.417000        1.0080           0
   31069 WT2  2439 TIP3 H2   HT     0.417000        1.0080           0
   31070 WT2  2440 TIP3 OH2  OT    -0.834000       15.9994           0
   31071 WT2  2440 TIP3 H1   HT     0.417000        1.0080           0
   31072 WT2  2440 TIP3 H2   HT     0.417000        1.0080           0
   31073 WT2  2441 TIP3 OH2  OT    -0.834000       15.9994           0
   31074 WT2  2441 TIP3 H1   HT     0.417000        1.0080           0
   31075 WT2  2441 TIP3 H2   HT     0.417000        1.0080           0
   31076 WT2  2442 TIP3 OH2  OT    -0.834000       15.9994           0
   31077 WT2  2442 TIP3 H1   HT     0.417000        1.0080           0
   31078 WT2  2442 TIP3 H2   HT     0.417000        1.0080           0
   31079 WT2  2443 TIP3 OH2  OT    -0.834000       15.9994           0
   31080 WT2  2443 TIP3 H1   HT     0.417000        1.0080           0
   31081 WT2  2443 TIP3 H2   HT     0.417000        1.0080           0
   31082 WT2  2444 TIP3 OH2  OT    -0.834000       15.9994           0
   31083 WT2  2444 TIP3 H1   HT     0.417000        1.0080           0
   31084 WT2  2444 TIP3 H2   HT     0.417000        1.0080           0
   31085 WT2  2445 TIP3 OH2  OT    -0.834000       15.9994           0
   31086 WT2  2445 TIP3 H1   HT     0.417000        1.0080           0
   31087 WT2  2445 TIP3 H2   HT     0.417000        1.0080           0
   31088 WT2  2446 TIP3 OH2  OT    -0.834000       15.9994           0
   31089 WT2  2446 TIP3 H1   HT     0.417000        1.0080           0
   31090 WT2  2446 TIP3 H2   HT     0.417000        1.0080           0
   31091 WT2  2447 TIP3 OH2  OT    -0.834000       15.9994           0
   31092 WT2  2447 TIP3 H1   HT     0.417000        1.0080           0
   31093 WT2  2447 TIP3 H2   HT     0.417000        1.0080           0
   31094 WT2  2448 TIP3 OH2  OT    -0.834000       15.9994           0
   31095 WT2  2448 TIP3 H1   HT     0.417000        1.0080           0
   31096 WT2  2448 TIP3 H2   HT     0.417000        1.0080           0
   31097 WT2  2449 TIP3 OH2  OT    -0.834000       15.9994           0
   31098 WT2  2449 TIP3 H1   HT     0.417000        1.0080           0
   31099 WT2  2449 TIP3 H2   HT     0.417000        1.0080           0
   31100 WT2  2450 TIP3 OH2  OT    -0.834000       15.9994           0
   31101 WT2  2450 TIP3 H1   HT     0.417000        1.0080           0
   31102 WT2  2450 TIP3 H2   HT     0.417000        1.0080           0
   31103 WT2  2451 TIP3 OH2  OT    -0.834000       15.9994           0
   31104 WT2  2451 TIP3 H1   HT     0.417000        1.0080           0
   31105 WT2  2451 TIP3 H2   HT     0.417000        1.0080           0
   31106 WT2  2452 TIP3 OH2  OT    -0.834000       15.9994           0
   31107 WT2  2452 TIP3 H1   HT     0.417000        1.0080           0
   31108 WT2  2452 TIP3 H2   HT     0.417000        1.0080           0
   31109 WT2  2453 TIP3 OH2  OT    -0.834000       15.9994           0
   31110 WT2  2453 TIP3 H1   HT     0.417000        1.0080           0
   31111 WT2  2453 TIP3 H2   HT     0.417000        1.0080           0
   31112 WT2  2457 TIP3 OH2  OT    -0.834000       15.9994           0
   31113 WT2  2457 TIP3 H1   HT     0.417000        1.0080           0
   31114 WT2  2457 TIP3 H2   HT     0.417000        1.0080           0
   31115 WT2  2459 TIP3 OH2  OT    -0.834000       15.9994           0
   31116 WT2  2459 TIP3 H1   HT     0.417000        1.0080           0
   31117 WT2  2459 TIP3 H2   HT     0.417000        1.0080           0
   31118 WT2  2460 TIP3 OH2  OT    -0.834000       15.9994           0
   31119 WT2  2460 TIP3 H1   HT     0.417000        1.0080           0
   31120 WT2  2460 TIP3 H2   HT     0.417000        1.0080           0
   31121 WT2  2461 TIP3 OH2  OT    -0.834000       15.9994           0
   31122 WT2  2461 TIP3 H1   HT     0.417000        1.0080           0
   31123 WT2  2461 TIP3 H2   HT     0.417000        1.0080           0
   31124 WT2  2462 TIP3 OH2  OT    -0.834000       15.9994           0
   31125 WT2  2462 TIP3 H1   HT     0.417000        1.0080           0
   31126 WT2  2462 TIP3 H2   HT     0.417000        1.0080           0
   31127 WT2  2463 TIP3 OH2  OT    -0.834000       15.9994           0
   31128 WT2  2463 TIP3 H1   HT     0.417000        1.0080           0
   31129 WT2  2463 TIP3 H2   HT     0.417000        1.0080           0
   31130 WT2  2464 TIP3 OH2  OT    -0.834000       15.9994           0
   31131 WT2  2464 TIP3 H1   HT     0.417000        1.0080           0
   31132 WT2  2464 TIP3 H2   HT     0.417000        1.0080           0
   31133 WT2  2465 TIP3 OH2  OT    -0.834000       15.9994           0
   31134 WT2  2465 TIP3 H1   HT     0.417000        1.0080           0
   31135 WT2  2465 TIP3 H2   HT     0.417000        1.0080           0
   31136 WT2  2466 TIP3 OH2  OT    -0.834000       15.9994           0
   31137 WT2  2466 TIP3 H1   HT     0.417000        1.0080           0
   31138 WT2  2466 TIP3 H2   HT     0.417000        1.0080           0
   31139 WT2  2467 TIP3 OH2  OT    -0.834000       15.9994           0
   31140 WT2  2467 TIP3 H1   HT     0.417000        1.0080           0
   31141 WT2  2467 TIP3 H2   HT     0.417000        1.0080           0
   31142 WT2  2468 TIP3 OH2  OT    -0.834000       15.9994           0
   31143 WT2  2468 TIP3 H1   HT     0.417000        1.0080           0
   31144 WT2  2468 TIP3 H2   HT     0.417000        1.0080           0
   31145 WT2  2469 TIP3 OH2  OT    -0.834000       15.9994           0
   31146 WT2  2469 TIP3 H1   HT     0.417000        1.0080           0
   31147 WT2  2469 TIP3 H2   HT     0.417000        1.0080           0
   31148 WT2  2471 TIP3 OH2  OT    -0.834000       15.9994           0
   31149 WT2  2471 TIP3 H1   HT     0.417000        1.0080           0
   31150 WT2  2471 TIP3 H2   HT     0.417000        1.0080           0
   31151 WT2  2472 TIP3 OH2  OT    -0.834000       15.9994           0
   31152 WT2  2472 TIP3 H1   HT     0.417000        1.0080           0
   31153 WT2  2472 TIP3 H2   HT     0.417000        1.0080           0
   31154 WT2  2473 TIP3 OH2  OT    -0.834000       15.9994           0
   31155 WT2  2473 TIP3 H1   HT     0.417000        1.0080           0
   31156 WT2  2473 TIP3 H2   HT     0.417000        1.0080           0
   31157 WT2  2474 TIP3 OH2  OT    -0.834000       15.9994           0
   31158 WT2  2474 TIP3 H1   HT     0.417000        1.0080           0
   31159 WT2  2474 TIP3 H2   HT     0.417000        1.0080           0
   31160 WT2  2475 TIP3 OH2  OT    -0.834000       15.9994           0
   31161 WT2  2475 TIP3 H1   HT     0.417000        1.0080           0
   31162 WT2  2475 TIP3 H2   HT     0.417000        1.0080           0
   31163 WT2  2477 TIP3 OH2  OT    -0.834000       15.9994           0
   31164 WT2  2477 TIP3 H1   HT     0.417000        1.0080           0
   31165 WT2  2477 TIP3 H2   HT     0.417000        1.0080           0
   31166 WT2  2478 TIP3 OH2  OT    -0.834000       15.9994           0
   31167 WT2  2478 TIP3 H1   HT     0.417000        1.0080           0
   31168 WT2  2478 TIP3 H2   HT     0.417000        1.0080           0
   31169 WT2  2479 TIP3 OH2  OT    -0.834000       15.9994           0
   31170 WT2  2479 TIP3 H1   HT     0.417000        1.0080           0
   31171 WT2  2479 TIP3 H2   HT     0.417000        1.0080           0
   31172 WT2  2481 TIP3 OH2  OT    -0.834000       15.9994           0
   31173 WT2  2481 TIP3 H1   HT     0.417000        1.0080           0
   31174 WT2  2481 TIP3 H2   HT     0.417000        1.0080           0
   31175 WT2  2482 TIP3 OH2  OT    -0.834000       15.9994           0
   31176 WT2  2482 TIP3 H1   HT     0.417000        1.0080           0
   31177 WT2  2482 TIP3 H2   HT     0.417000        1.0080           0
   31178 WT2  2483 TIP3 OH2  OT    -0.834000       15.9994           0
   31179 WT2  2483 TIP3 H1   HT     0.417000        1.0080           0
   31180 WT2  2483 TIP3 H2   HT     0.417000        1.0080           0
   31181 WT2  2485 TIP3 OH2  OT    -0.834000       15.9994           0
   31182 WT2  2485 TIP3 H1   HT     0.417000        1.0080           0
   31183 WT2  2485 TIP3 H2   HT     0.417000        1.0080           0
   31184 WT2  2486 TIP3 OH2  OT    -0.834000       15.9994           0
   31185 WT2  2486 TIP3 H1   HT     0.417000        1.0080           0
   31186 WT2  2486 TIP3 H2   HT     0.417000        1.0080           0
   31187 WT2  2488 TIP3 OH2  OT    -0.834000       15.9994           0
   31188 WT2  2488 TIP3 H1   HT     0.417000        1.0080           0
   31189 WT2  2488 TIP3 H2   HT     0.417000        1.0080           0
   31190 WT2  2490 TIP3 OH2  OT    -0.834000       15.9994           0
   31191 WT2  2490 TIP3 H1   HT     0.417000        1.0080           0
   31192 WT2  2490 TIP3 H2   HT     0.417000        1.0080           0
   31193 WT2  2491 TIP3 OH2  OT    -0.834000       15.9994           0
   31194 WT2  2491 TIP3 H1   HT     0.417000        1.0080           0
   31195 WT2  2491 TIP3 H2   HT     0.417000        1.0080           0
   31196 WT2  2492 TIP3 OH2  OT    -0.834000       15.9994           0
   31197 WT2  2492 TIP3 H1   HT     0.417000        1.0080           0
   31198 WT2  2492 TIP3 H2   HT     0.417000        1.0080           0
   31199 WT2  2493 TIP3 OH2  OT    -0.834000       15.9994           0
   31200 WT2  2493 TIP3 H1   HT     0.417000        1.0080           0
   31201 WT2  2493 TIP3 H2   HT     0.417000        1.0080           0
   31202 WT2  2494 TIP3 OH2  OT    -0.834000       15.9994           0
   31203 WT2  2494 TIP3 H1   HT     0.417000        1.0080           0
   31204 WT2  2494 TIP3 H2   HT     0.417000        1.0080           0
   31205 WT2  2495 TIP3 OH2  OT    -0.834000       15.9994           0
   31206 WT2  2495 TIP3 H1   HT     0.417000        1.0080           0
   31207 WT2  2495 TIP3 H2   HT     0.417000        1.0080           0
   31208 WT2  2496 TIP3 OH2  OT    -0.834000       15.9994           0
   31209 WT2  2496 TIP3 H1   HT     0.417000        1.0080           0
   31210 WT2  2496 TIP3 H2   HT     0.417000        1.0080           0
   31211 WT2  2497 TIP3 OH2  OT    -0.834000       15.9994           0
   31212 WT2  2497 TIP3 H1   HT     0.417000        1.0080           0
   31213 WT2  2497 TIP3 H2   HT     0.417000        1.0080           0
   31214 WT2  2498 TIP3 OH2  OT    -0.834000       15.9994           0
   31215 WT2  2498 TIP3 H1   HT     0.417000        1.0080           0
   31216 WT2  2498 TIP3 H2   HT     0.417000        1.0080           0
   31217 WT2  2499 TIP3 OH2  OT    -0.834000       15.9994           0
   31218 WT2  2499 TIP3 H1   HT     0.417000        1.0080           0
   31219 WT2  2499 TIP3 H2   HT     0.417000        1.0080           0
   31220 WT2  2500 TIP3 OH2  OT    -0.834000       15.9994           0
   31221 WT2  2500 TIP3 H1   HT     0.417000        1.0080           0
   31222 WT2  2500 TIP3 H2   HT     0.417000        1.0080           0
   31223 WT2  2503 TIP3 OH2  OT    -0.834000       15.9994           0
   31224 WT2  2503 TIP3 H1   HT     0.417000        1.0080           0
   31225 WT2  2503 TIP3 H2   HT     0.417000        1.0080           0
   31226 WT2  2504 TIP3 OH2  OT    -0.834000       15.9994           0
   31227 WT2  2504 TIP3 H1   HT     0.417000        1.0080           0
   31228 WT2  2504 TIP3 H2   HT     0.417000        1.0080           0
   31229 WT2  2505 TIP3 OH2  OT    -0.834000       15.9994           0
   31230 WT2  2505 TIP3 H1   HT     0.417000        1.0080           0
   31231 WT2  2505 TIP3 H2   HT     0.417000        1.0080           0
   31232 WT2  2506 TIP3 OH2  OT    -0.834000       15.9994           0
   31233 WT2  2506 TIP3 H1   HT     0.417000        1.0080           0
   31234 WT2  2506 TIP3 H2   HT     0.417000        1.0080           0
   31235 WT2  2507 TIP3 OH2  OT    -0.834000       15.9994           0
   31236 WT2  2507 TIP3 H1   HT     0.417000        1.0080           0
   31237 WT2  2507 TIP3 H2   HT     0.417000        1.0080           0
   31238 WT2  2508 TIP3 OH2  OT    -0.834000       15.9994           0
   31239 WT2  2508 TIP3 H1   HT     0.417000        1.0080           0
   31240 WT2  2508 TIP3 H2   HT     0.417000        1.0080           0
   31241 WT2  2509 TIP3 OH2  OT    -0.834000       15.9994           0
   31242 WT2  2509 TIP3 H1   HT     0.417000        1.0080           0
   31243 WT2  2509 TIP3 H2   HT     0.417000        1.0080           0
   31244 WT2  2510 TIP3 OH2  OT    -0.834000       15.9994           0
   31245 WT2  2510 TIP3 H1   HT     0.417000        1.0080           0
   31246 WT2  2510 TIP3 H2   HT     0.417000        1.0080           0
   31247 WT2  2512 TIP3 OH2  OT    -0.834000       15.9994           0
   31248 WT2  2512 TIP3 H1   HT     0.417000        1.0080           0
   31249 WT2  2512 TIP3 H2   HT     0.417000        1.0080           0
   31250 WT2  2513 TIP3 OH2  OT    -0.834000       15.9994           0
   31251 WT2  2513 TIP3 H1   HT     0.417000        1.0080           0
   31252 WT2  2513 TIP3 H2   HT     0.417000        1.0080           0
   31253 WT2  2514 TIP3 OH2  OT    -0.834000       15.9994           0
   31254 WT2  2514 TIP3 H1   HT     0.417000        1.0080           0
   31255 WT2  2514 TIP3 H2   HT     0.417000        1.0080           0
   31256 WT2  2516 TIP3 OH2  OT    -0.834000       15.9994           0
   31257 WT2  2516 TIP3 H1   HT     0.417000        1.0080           0
   31258 WT2  2516 TIP3 H2   HT     0.417000        1.0080           0
   31259 WT2  2517 TIP3 OH2  OT    -0.834000       15.9994           0
   31260 WT2  2517 TIP3 H1   HT     0.417000        1.0080           0
   31261 WT2  2517 TIP3 H2   HT     0.417000        1.0080           0
   31262 WT2  2518 TIP3 OH2  OT    -0.834000       15.9994           0
   31263 WT2  2518 TIP3 H1   HT     0.417000        1.0080           0
   31264 WT2  2518 TIP3 H2   HT     0.417000        1.0080           0
   31265 WT2  2519 TIP3 OH2  OT    -0.834000       15.9994           0
   31266 WT2  2519 TIP3 H1   HT     0.417000        1.0080           0
   31267 WT2  2519 TIP3 H2   HT     0.417000        1.0080           0
   31268 WT2  2520 TIP3 OH2  OT    -0.834000       15.9994           0
   31269 WT2  2520 TIP3 H1   HT     0.417000        1.0080           0
   31270 WT2  2520 TIP3 H2   HT     0.417000        1.0080           0
   31271 WT2  2521 TIP3 OH2  OT    -0.834000       15.9994           0
   31272 WT2  2521 TIP3 H1   HT     0.417000        1.0080           0
   31273 WT2  2521 TIP3 H2   HT     0.417000        1.0080           0
   31274 WT2  2522 TIP3 OH2  OT    -0.834000       15.9994           0
   31275 WT2  2522 TIP3 H1   HT     0.417000        1.0080           0
   31276 WT2  2522 TIP3 H2   HT     0.417000        1.0080           0
   31277 WT2  2523 TIP3 OH2  OT    -0.834000       15.9994           0
   31278 WT2  2523 TIP3 H1   HT     0.417000        1.0080           0
   31279 WT2  2523 TIP3 H2   HT     0.417000        1.0080           0
   31280 WT2  2525 TIP3 OH2  OT    -0.834000       15.9994           0
   31281 WT2  2525 TIP3 H1   HT     0.417000        1.0080           0
   31282 WT2  2525 TIP3 H2   HT     0.417000        1.0080           0
   31283 WT2  2526 TIP3 OH2  OT    -0.834000       15.9994           0
   31284 WT2  2526 TIP3 H1   HT     0.417000        1.0080           0
   31285 WT2  2526 TIP3 H2   HT     0.417000        1.0080           0
   31286 WT2  2527 TIP3 OH2  OT    -0.834000       15.9994           0
   31287 WT2  2527 TIP3 H1   HT     0.417000        1.0080           0
   31288 WT2  2527 TIP3 H2   HT     0.417000        1.0080           0
   31289 WT2  2528 TIP3 OH2  OT    -0.834000       15.9994           0
   31290 WT2  2528 TIP3 H1   HT     0.417000        1.0080           0
   31291 WT2  2528 TIP3 H2   HT     0.417000        1.0080           0
   31292 WT2  2529 TIP3 OH2  OT    -0.834000       15.9994           0
   31293 WT2  2529 TIP3 H1   HT     0.417000        1.0080           0
   31294 WT2  2529 TIP3 H2   HT     0.417000        1.0080           0
   31295 WT2  2530 TIP3 OH2  OT    -0.834000       15.9994           0
   31296 WT2  2530 TIP3 H1   HT     0.417000        1.0080           0
   31297 WT2  2530 TIP3 H2   HT     0.417000        1.0080           0
   31298 WT2  2531 TIP3 OH2  OT    -0.834000       15.9994           0
   31299 WT2  2531 TIP3 H1   HT     0.417000        1.0080           0
   31300 WT2  2531 TIP3 H2   HT     0.417000        1.0080           0
   31301 WT2  2533 TIP3 OH2  OT    -0.834000       15.9994           0
   31302 WT2  2533 TIP3 H1   HT     0.417000        1.0080           0
   31303 WT2  2533 TIP3 H2   HT     0.417000        1.0080           0
   31304 WT2  2534 TIP3 OH2  OT    -0.834000       15.9994           0
   31305 WT2  2534 TIP3 H1   HT     0.417000        1.0080           0
   31306 WT2  2534 TIP3 H2   HT     0.417000        1.0080           0
   31307 WT2  2535 TIP3 OH2  OT    -0.834000       15.9994           0
   31308 WT2  2535 TIP3 H1   HT     0.417000        1.0080           0
   31309 WT2  2535 TIP3 H2   HT     0.417000        1.0080           0
   31310 WT2  2536 TIP3 OH2  OT    -0.834000       15.9994           0
   31311 WT2  2536 TIP3 H1   HT     0.417000        1.0080           0
   31312 WT2  2536 TIP3 H2   HT     0.417000        1.0080           0
   31313 WT2  2537 TIP3 OH2  OT    -0.834000       15.9994           0
   31314 WT2  2537 TIP3 H1   HT     0.417000        1.0080           0
   31315 WT2  2537 TIP3 H2   HT     0.417000        1.0080           0
   31316 WT2  2538 TIP3 OH2  OT    -0.834000       15.9994           0
   31317 WT2  2538 TIP3 H1   HT     0.417000        1.0080           0
   31318 WT2  2538 TIP3 H2   HT     0.417000        1.0080           0
   31319 WT2  2539 TIP3 OH2  OT    -0.834000       15.9994           0
   31320 WT2  2539 TIP3 H1   HT     0.417000        1.0080           0
   31321 WT2  2539 TIP3 H2   HT     0.417000        1.0080           0
   31322 WT2  2541 TIP3 OH2  OT    -0.834000       15.9994           0
   31323 WT2  2541 TIP3 H1   HT     0.417000        1.0080           0
   31324 WT2  2541 TIP3 H2   HT     0.417000        1.0080           0
   31325 WT2  2542 TIP3 OH2  OT    -0.834000       15.9994           0
   31326 WT2  2542 TIP3 H1   HT     0.417000        1.0080           0
   31327 WT2  2542 TIP3 H2   HT     0.417000        1.0080           0
   31328 WT2  2544 TIP3 OH2  OT    -0.834000       15.9994           0
   31329 WT2  2544 TIP3 H1   HT     0.417000        1.0080           0
   31330 WT2  2544 TIP3 H2   HT     0.417000        1.0080           0
   31331 WT2  2545 TIP3 OH2  OT    -0.834000       15.9994           0
   31332 WT2  2545 TIP3 H1   HT     0.417000        1.0080           0
   31333 WT2  2545 TIP3 H2   HT     0.417000        1.0080           0
   31334 WT2  2546 TIP3 OH2  OT    -0.834000       15.9994           0
   31335 WT2  2546 TIP3 H1   HT     0.417000        1.0080           0
   31336 WT2  2546 TIP3 H2   HT     0.417000        1.0080           0
   31337 WT2  2547 TIP3 OH2  OT    -0.834000       15.9994           0
   31338 WT2  2547 TIP3 H1   HT     0.417000        1.0080           0
   31339 WT2  2547 TIP3 H2   HT     0.417000        1.0080           0
   31340 WT2  2548 TIP3 OH2  OT    -0.834000       15.9994           0
   31341 WT2  2548 TIP3 H1   HT     0.417000        1.0080           0
   31342 WT2  2548 TIP3 H2   HT     0.417000        1.0080           0
   31343 WT2  2550 TIP3 OH2  OT    -0.834000       15.9994           0
   31344 WT2  2550 TIP3 H1   HT     0.417000        1.0080           0
   31345 WT2  2550 TIP3 H2   HT     0.417000        1.0080           0
   31346 WT2  2551 TIP3 OH2  OT    -0.834000       15.9994           0
   31347 WT2  2551 TIP3 H1   HT     0.417000        1.0080           0
   31348 WT2  2551 TIP3 H2   HT     0.417000        1.0080           0
   31349 WT2  2552 TIP3 OH2  OT    -0.834000       15.9994           0
   31350 WT2  2552 TIP3 H1   HT     0.417000        1.0080           0
   31351 WT2  2552 TIP3 H2   HT     0.417000        1.0080           0
   31352 WT2  2553 TIP3 OH2  OT    -0.834000       15.9994           0
   31353 WT2  2553 TIP3 H1   HT     0.417000        1.0080           0
   31354 WT2  2553 TIP3 H2   HT     0.417000        1.0080           0
   31355 WT2  2554 TIP3 OH2  OT    -0.834000       15.9994           0
   31356 WT2  2554 TIP3 H1   HT     0.417000        1.0080           0
   31357 WT2  2554 TIP3 H2   HT     0.417000        1.0080           0
   31358 WT2  2555 TIP3 OH2  OT    -0.834000       15.9994           0
   31359 WT2  2555 TIP3 H1   HT     0.417000        1.0080           0
   31360 WT2  2555 TIP3 H2   HT     0.417000        1.0080           0
   31361 WT2  2556 TIP3 OH2  OT    -0.834000       15.9994           0
   31362 WT2  2556 TIP3 H1   HT     0.417000        1.0080           0
   31363 WT2  2556 TIP3 H2   HT     0.417000        1.0080           0
   31364 WT2  2557 TIP3 OH2  OT    -0.834000       15.9994           0
   31365 WT2  2557 TIP3 H1   HT     0.417000        1.0080           0
   31366 WT2  2557 TIP3 H2   HT     0.417000        1.0080           0
   31367 WT2  2558 TIP3 OH2  OT    -0.834000       15.9994           0
   31368 WT2  2558 TIP3 H1   HT     0.417000        1.0080           0
   31369 WT2  2558 TIP3 H2   HT     0.417000        1.0080           0
   31370 WT2  2559 TIP3 OH2  OT    -0.834000       15.9994           0
   31371 WT2  2559 TIP3 H1   HT     0.417000        1.0080           0
   31372 WT2  2559 TIP3 H2   HT     0.417000        1.0080           0
   31373 WT2  2560 TIP3 OH2  OT    -0.834000       15.9994           0
   31374 WT2  2560 TIP3 H1   HT     0.417000        1.0080           0
   31375 WT2  2560 TIP3 H2   HT     0.417000        1.0080           0
   31376 WT2  2561 TIP3 OH2  OT    -0.834000       15.9994           0
   31377 WT2  2561 TIP3 H1   HT     0.417000        1.0080           0
   31378 WT2  2561 TIP3 H2   HT     0.417000        1.0080           0
   31379 WT2  2562 TIP3 OH2  OT    -0.834000       15.9994           0
   31380 WT2  2562 TIP3 H1   HT     0.417000        1.0080           0
   31381 WT2  2562 TIP3 H2   HT     0.417000        1.0080           0
   31382 WT2  2563 TIP3 OH2  OT    -0.834000       15.9994           0
   31383 WT2  2563 TIP3 H1   HT     0.417000        1.0080           0
   31384 WT2  2563 TIP3 H2   HT     0.417000        1.0080           0
   31385 WT2  2564 TIP3 OH2  OT    -0.834000       15.9994           0
   31386 WT2  2564 TIP3 H1   HT     0.417000        1.0080           0
   31387 WT2  2564 TIP3 H2   HT     0.417000        1.0080           0
   31388 WT2  2565 TIP3 OH2  OT    -0.834000       15.9994           0
   31389 WT2  2565 TIP3 H1   HT     0.417000        1.0080           0
   31390 WT2  2565 TIP3 H2   HT     0.417000        1.0080           0
   31391 WT2  2566 TIP3 OH2  OT    -0.834000       15.9994           0
   31392 WT2  2566 TIP3 H1   HT     0.417000        1.0080           0
   31393 WT2  2566 TIP3 H2   HT     0.417000        1.0080           0
   31394 WT2  2568 TIP3 OH2  OT    -0.834000       15.9994           0
   31395 WT2  2568 TIP3 H1   HT     0.417000        1.0080           0
   31396 WT2  2568 TIP3 H2   HT     0.417000        1.0080           0
   31397 WT2  2569 TIP3 OH2  OT    -0.834000       15.9994           0
   31398 WT2  2569 TIP3 H1   HT     0.417000        1.0080           0
   31399 WT2  2569 TIP3 H2   HT     0.417000        1.0080           0
   31400 WT2  2570 TIP3 OH2  OT    -0.834000       15.9994           0
   31401 WT2  2570 TIP3 H1   HT     0.417000        1.0080           0
   31402 WT2  2570 TIP3 H2   HT     0.417000        1.0080           0
   31403 WT2  2571 TIP3 OH2  OT    -0.834000       15.9994           0
   31404 WT2  2571 TIP3 H1   HT     0.417000        1.0080           0
   31405 WT2  2571 TIP3 H2   HT     0.417000        1.0080           0
   31406 WT2  2572 TIP3 OH2  OT    -0.834000       15.9994           0
   31407 WT2  2572 TIP3 H1   HT     0.417000        1.0080           0
   31408 WT2  2572 TIP3 H2   HT     0.417000        1.0080           0
   31409 WT2  2573 TIP3 OH2  OT    -0.834000       15.9994           0
   31410 WT2  2573 TIP3 H1   HT     0.417000        1.0080           0
   31411 WT2  2573 TIP3 H2   HT     0.417000        1.0080           0
   31412 WT2  2574 TIP3 OH2  OT    -0.834000       15.9994           0
   31413 WT2  2574 TIP3 H1   HT     0.417000        1.0080           0
   31414 WT2  2574 TIP3 H2   HT     0.417000        1.0080           0
   31415 WT2  2575 TIP3 OH2  OT    -0.834000       15.9994           0
   31416 WT2  2575 TIP3 H1   HT     0.417000        1.0080           0
   31417 WT2  2575 TIP3 H2   HT     0.417000        1.0080           0
   31418 WT2  2576 TIP3 OH2  OT    -0.834000       15.9994           0
   31419 WT2  2576 TIP3 H1   HT     0.417000        1.0080           0
   31420 WT2  2576 TIP3 H2   HT     0.417000        1.0080           0
   31421 WT2  2577 TIP3 OH2  OT    -0.834000       15.9994           0
   31422 WT2  2577 TIP3 H1   HT     0.417000        1.0080           0
   31423 WT2  2577 TIP3 H2   HT     0.417000        1.0080           0
   31424 WT2  2578 TIP3 OH2  OT    -0.834000       15.9994           0
   31425 WT2  2578 TIP3 H1   HT     0.417000        1.0080           0
   31426 WT2  2578 TIP3 H2   HT     0.417000        1.0080           0
   31427 WT2  2579 TIP3 OH2  OT    -0.834000       15.9994           0
   31428 WT2  2579 TIP3 H1   HT     0.417000        1.0080           0
   31429 WT2  2579 TIP3 H2   HT     0.417000        1.0080           0
   31430 WT2  2580 TIP3 OH2  OT    -0.834000       15.9994           0
   31431 WT2  2580 TIP3 H1   HT     0.417000        1.0080           0
   31432 WT2  2580 TIP3 H2   HT     0.417000        1.0080           0
   31433 WT2  2581 TIP3 OH2  OT    -0.834000       15.9994           0
   31434 WT2  2581 TIP3 H1   HT     0.417000        1.0080           0
   31435 WT2  2581 TIP3 H2   HT     0.417000        1.0080           0
   31436 WT2  2582 TIP3 OH2  OT    -0.834000       15.9994           0
   31437 WT2  2582 TIP3 H1   HT     0.417000        1.0080           0
   31438 WT2  2582 TIP3 H2   HT     0.417000        1.0080           0
   31439 WT2  2583 TIP3 OH2  OT    -0.834000       15.9994           0
   31440 WT2  2583 TIP3 H1   HT     0.417000        1.0080           0
   31441 WT2  2583 TIP3 H2   HT     0.417000        1.0080           0
   31442 WT2  2584 TIP3 OH2  OT    -0.834000       15.9994           0
   31443 WT2  2584 TIP3 H1   HT     0.417000        1.0080           0
   31444 WT2  2584 TIP3 H2   HT     0.417000        1.0080           0
   31445 WT2  2585 TIP3 OH2  OT    -0.834000       15.9994           0
   31446 WT2  2585 TIP3 H1   HT     0.417000        1.0080           0
   31447 WT2  2585 TIP3 H2   HT     0.417000        1.0080           0
   31448 WT2  2586 TIP3 OH2  OT    -0.834000       15.9994           0
   31449 WT2  2586 TIP3 H1   HT     0.417000        1.0080           0
   31450 WT2  2586 TIP3 H2   HT     0.417000        1.0080           0
   31451 WT2  2587 TIP3 OH2  OT    -0.834000       15.9994           0
   31452 WT2  2587 TIP3 H1   HT     0.417000        1.0080           0
   31453 WT2  2587 TIP3 H2   HT     0.417000        1.0080           0
   31454 WT2  2588 TIP3 OH2  OT    -0.834000       15.9994           0
   31455 WT2  2588 TIP3 H1   HT     0.417000        1.0080           0
   31456 WT2  2588 TIP3 H2   HT     0.417000        1.0080           0
   31457 WT2  2589 TIP3 OH2  OT    -0.834000       15.9994           0
   31458 WT2  2589 TIP3 H1   HT     0.417000        1.0080           0
   31459 WT2  2589 TIP3 H2   HT     0.417000        1.0080           0
   31460 WT2  2590 TIP3 OH2  OT    -0.834000       15.9994           0
   31461 WT2  2590 TIP3 H1   HT     0.417000        1.0080           0
   31462 WT2  2590 TIP3 H2   HT     0.417000        1.0080           0
   31463 WT2  2591 TIP3 OH2  OT    -0.834000       15.9994           0
   31464 WT2  2591 TIP3 H1   HT     0.417000        1.0080           0
   31465 WT2  2591 TIP3 H2   HT     0.417000        1.0080           0
   31466 WT2  2592 TIP3 OH2  OT    -0.834000       15.9994           0
   31467 WT2  2592 TIP3 H1   HT     0.417000        1.0080           0
   31468 WT2  2592 TIP3 H2   HT     0.417000        1.0080           0
   31469 WT2  2593 TIP3 OH2  OT    -0.834000       15.9994           0
   31470 WT2  2593 TIP3 H1   HT     0.417000        1.0080           0
   31471 WT2  2593 TIP3 H2   HT     0.417000        1.0080           0
   31472 WT2  2595 TIP3 OH2  OT    -0.834000       15.9994           0
   31473 WT2  2595 TIP3 H1   HT     0.417000        1.0080           0
   31474 WT2  2595 TIP3 H2   HT     0.417000        1.0080           0
   31475 WT2  2597 TIP3 OH2  OT    -0.834000       15.9994           0
   31476 WT2  2597 TIP3 H1   HT     0.417000        1.0080           0
   31477 WT2  2597 TIP3 H2   HT     0.417000        1.0080           0
   31478 WT2  2598 TIP3 OH2  OT    -0.834000       15.9994           0
   31479 WT2  2598 TIP3 H1   HT     0.417000        1.0080           0
   31480 WT2  2598 TIP3 H2   HT     0.417000        1.0080           0
   31481 WT2  2599 TIP3 OH2  OT    -0.834000       15.9994           0
   31482 WT2  2599 TIP3 H1   HT     0.417000        1.0080           0
   31483 WT2  2599 TIP3 H2   HT     0.417000        1.0080           0
   31484 WT2  2600 TIP3 OH2  OT    -0.834000       15.9994           0
   31485 WT2  2600 TIP3 H1   HT     0.417000        1.0080           0
   31486 WT2  2600 TIP3 H2   HT     0.417000        1.0080           0
   31487 WT2  2602 TIP3 OH2  OT    -0.834000       15.9994           0
   31488 WT2  2602 TIP3 H1   HT     0.417000        1.0080           0
   31489 WT2  2602 TIP3 H2   HT     0.417000        1.0080           0
   31490 WT2  2603 TIP3 OH2  OT    -0.834000       15.9994           0
   31491 WT2  2603 TIP3 H1   HT     0.417000        1.0080           0
   31492 WT2  2603 TIP3 H2   HT     0.417000        1.0080           0
   31493 WT2  2604 TIP3 OH2  OT    -0.834000       15.9994           0
   31494 WT2  2604 TIP3 H1   HT     0.417000        1.0080           0
   31495 WT2  2604 TIP3 H2   HT     0.417000        1.0080           0
   31496 WT2  2605 TIP3 OH2  OT    -0.834000       15.9994           0
   31497 WT2  2605 TIP3 H1   HT     0.417000        1.0080           0
   31498 WT2  2605 TIP3 H2   HT     0.417000        1.0080           0
   31499 WT2  2606 TIP3 OH2  OT    -0.834000       15.9994           0
   31500 WT2  2606 TIP3 H1   HT     0.417000        1.0080           0
   31501 WT2  2606 TIP3 H2   HT     0.417000        1.0080           0
   31502 WT2  2607 TIP3 OH2  OT    -0.834000       15.9994           0
   31503 WT2  2607 TIP3 H1   HT     0.417000        1.0080           0
   31504 WT2  2607 TIP3 H2   HT     0.417000        1.0080           0
   31505 WT2  2608 TIP3 OH2  OT    -0.834000       15.9994           0
   31506 WT2  2608 TIP3 H1   HT     0.417000        1.0080           0
   31507 WT2  2608 TIP3 H2   HT     0.417000        1.0080           0
   31508 WT2  2609 TIP3 OH2  OT    -0.834000       15.9994           0
   31509 WT2  2609 TIP3 H1   HT     0.417000        1.0080           0
   31510 WT2  2609 TIP3 H2   HT     0.417000        1.0080           0
   31511 WT2  2610 TIP3 OH2  OT    -0.834000       15.9994           0
   31512 WT2  2610 TIP3 H1   HT     0.417000        1.0080           0
   31513 WT2  2610 TIP3 H2   HT     0.417000        1.0080           0
   31514 WT2  2611 TIP3 OH2  OT    -0.834000       15.9994           0
   31515 WT2  2611 TIP3 H1   HT     0.417000        1.0080           0
   31516 WT2  2611 TIP3 H2   HT     0.417000        1.0080           0
   31517 WT2  2613 TIP3 OH2  OT    -0.834000       15.9994           0
   31518 WT2  2613 TIP3 H1   HT     0.417000        1.0080           0
   31519 WT2  2613 TIP3 H2   HT     0.417000        1.0080           0
   31520 WT2  2614 TIP3 OH2  OT    -0.834000       15.9994           0
   31521 WT2  2614 TIP3 H1   HT     0.417000        1.0080           0
   31522 WT2  2614 TIP3 H2   HT     0.417000        1.0080           0
   31523 WT2  2615 TIP3 OH2  OT    -0.834000       15.9994           0
   31524 WT2  2615 TIP3 H1   HT     0.417000        1.0080           0
   31525 WT2  2615 TIP3 H2   HT     0.417000        1.0080           0
   31526 WT2  2616 TIP3 OH2  OT    -0.834000       15.9994           0
   31527 WT2  2616 TIP3 H1   HT     0.417000        1.0080           0
   31528 WT2  2616 TIP3 H2   HT     0.417000        1.0080           0
   31529 WT2  2617 TIP3 OH2  OT    -0.834000       15.9994           0
   31530 WT2  2617 TIP3 H1   HT     0.417000        1.0080           0
   31531 WT2  2617 TIP3 H2   HT     0.417000        1.0080           0
   31532 WT2  2618 TIP3 OH2  OT    -0.834000       15.9994           0
   31533 WT2  2618 TIP3 H1   HT     0.417000        1.0080           0
   31534 WT2  2618 TIP3 H2   HT     0.417000        1.0080           0
   31535 WT2  2619 TIP3 OH2  OT    -0.834000       15.9994           0
   31536 WT2  2619 TIP3 H1   HT     0.417000        1.0080           0
   31537 WT2  2619 TIP3 H2   HT     0.417000        1.0080           0
   31538 WT2  2620 TIP3 OH2  OT    -0.834000       15.9994           0
   31539 WT2  2620 TIP3 H1   HT     0.417000        1.0080           0
   31540 WT2  2620 TIP3 H2   HT     0.417000        1.0080           0
   31541 WT2  2621 TIP3 OH2  OT    -0.834000       15.9994           0
   31542 WT2  2621 TIP3 H1   HT     0.417000        1.0080           0
   31543 WT2  2621 TIP3 H2   HT     0.417000        1.0080           0
   31544 WT2  2622 TIP3 OH2  OT    -0.834000       15.9994           0
   31545 WT2  2622 TIP3 H1   HT     0.417000        1.0080           0
   31546 WT2  2622 TIP3 H2   HT     0.417000        1.0080           0
   31547 WT2  2623 TIP3 OH2  OT    -0.834000       15.9994           0
   31548 WT2  2623 TIP3 H1   HT     0.417000        1.0080           0
   31549 WT2  2623 TIP3 H2   HT     0.417000        1.0080           0
   31550 WT2  2625 TIP3 OH2  OT    -0.834000       15.9994           0
   31551 WT2  2625 TIP3 H1   HT     0.417000        1.0080           0
   31552 WT2  2625 TIP3 H2   HT     0.417000        1.0080           0
   31553 WT2  2626 TIP3 OH2  OT    -0.834000       15.9994           0
   31554 WT2  2626 TIP3 H1   HT     0.417000        1.0080           0
   31555 WT2  2626 TIP3 H2   HT     0.417000        1.0080           0
   31556 WT2  2627 TIP3 OH2  OT    -0.834000       15.9994           0
   31557 WT2  2627 TIP3 H1   HT     0.417000        1.0080           0
   31558 WT2  2627 TIP3 H2   HT     0.417000        1.0080           0
   31559 WT2  2628 TIP3 OH2  OT    -0.834000       15.9994           0
   31560 WT2  2628 TIP3 H1   HT     0.417000        1.0080           0
   31561 WT2  2628 TIP3 H2   HT     0.417000        1.0080           0
   31562 WT2  2629 TIP3 OH2  OT    -0.834000       15.9994           0
   31563 WT2  2629 TIP3 H1   HT     0.417000        1.0080           0
   31564 WT2  2629 TIP3 H2   HT     0.417000        1.0080           0
   31565 WT2  2631 TIP3 OH2  OT    -0.834000       15.9994           0
   31566 WT2  2631 TIP3 H1   HT     0.417000        1.0080           0
   31567 WT2  2631 TIP3 H2   HT     0.417000        1.0080           0
   31568 WT2  2632 TIP3 OH2  OT    -0.834000       15.9994           0
   31569 WT2  2632 TIP3 H1   HT     0.417000        1.0080           0
   31570 WT2  2632 TIP3 H2   HT     0.417000        1.0080           0
   31571 WT2  2633 TIP3 OH2  OT    -0.834000       15.9994           0
   31572 WT2  2633 TIP3 H1   HT     0.417000        1.0080           0
   31573 WT2  2633 TIP3 H2   HT     0.417000        1.0080           0
   31574 WT2  2634 TIP3 OH2  OT    -0.834000       15.9994           0
   31575 WT2  2634 TIP3 H1   HT     0.417000        1.0080           0
   31576 WT2  2634 TIP3 H2   HT     0.417000        1.0080           0
   31577 WT2  2635 TIP3 OH2  OT    -0.834000       15.9994           0
   31578 WT2  2635 TIP3 H1   HT     0.417000        1.0080           0
   31579 WT2  2635 TIP3 H2   HT     0.417000        1.0080           0
   31580 WT2  2636 TIP3 OH2  OT    -0.834000       15.9994           0
   31581 WT2  2636 TIP3 H1   HT     0.417000        1.0080           0
   31582 WT2  2636 TIP3 H2   HT     0.417000        1.0080           0
   31583 WT2  2637 TIP3 OH2  OT    -0.834000       15.9994           0
   31584 WT2  2637 TIP3 H1   HT     0.417000        1.0080           0
   31585 WT2  2637 TIP3 H2   HT     0.417000        1.0080           0
   31586 WT2  2638 TIP3 OH2  OT    -0.834000       15.9994           0
   31587 WT2  2638 TIP3 H1   HT     0.417000        1.0080           0
   31588 WT2  2638 TIP3 H2   HT     0.417000        1.0080           0
   31589 WT2  2639 TIP3 OH2  OT    -0.834000       15.9994           0
   31590 WT2  2639 TIP3 H1   HT     0.417000        1.0080           0
   31591 WT2  2639 TIP3 H2   HT     0.417000        1.0080           0
   31592 WT2  2640 TIP3 OH2  OT    -0.834000       15.9994           0
   31593 WT2  2640 TIP3 H1   HT     0.417000        1.0080           0
   31594 WT2  2640 TIP3 H2   HT     0.417000        1.0080           0
   31595 WT2  2641 TIP3 OH2  OT    -0.834000       15.9994           0
   31596 WT2  2641 TIP3 H1   HT     0.417000        1.0080           0
   31597 WT2  2641 TIP3 H2   HT     0.417000        1.0080           0
   31598 WT2  2642 TIP3 OH2  OT    -0.834000       15.9994           0
   31599 WT2  2642 TIP3 H1   HT     0.417000        1.0080           0
   31600 WT2  2642 TIP3 H2   HT     0.417000        1.0080           0
   31601 WT2  2643 TIP3 OH2  OT    -0.834000       15.9994           0
   31602 WT2  2643 TIP3 H1   HT     0.417000        1.0080           0
   31603 WT2  2643 TIP3 H2   HT     0.417000        1.0080           0
   31604 WT2  2644 TIP3 OH2  OT    -0.834000       15.9994           0
   31605 WT2  2644 TIP3 H1   HT     0.417000        1.0080           0
   31606 WT2  2644 TIP3 H2   HT     0.417000        1.0080           0
   31607 WT2  2645 TIP3 OH2  OT    -0.834000       15.9994           0
   31608 WT2  2645 TIP3 H1   HT     0.417000        1.0080           0
   31609 WT2  2645 TIP3 H2   HT     0.417000        1.0080           0
   31610 WT2  2646 TIP3 OH2  OT    -0.834000       15.9994           0
   31611 WT2  2646 TIP3 H1   HT     0.417000        1.0080           0
   31612 WT2  2646 TIP3 H2   HT     0.417000        1.0080           0
   31613 WT2  2647 TIP3 OH2  OT    -0.834000       15.9994           0
   31614 WT2  2647 TIP3 H1   HT     0.417000        1.0080           0
   31615 WT2  2647 TIP3 H2   HT     0.417000        1.0080           0
   31616 WT2  2648 TIP3 OH2  OT    -0.834000       15.9994           0
   31617 WT2  2648 TIP3 H1   HT     0.417000        1.0080           0
   31618 WT2  2648 TIP3 H2   HT     0.417000        1.0080           0
   31619 WT2  2649 TIP3 OH2  OT    -0.834000       15.9994           0
   31620 WT2  2649 TIP3 H1   HT     0.417000        1.0080           0
   31621 WT2  2649 TIP3 H2   HT     0.417000        1.0080           0
   31622 WT2  2650 TIP3 OH2  OT    -0.834000       15.9994           0
   31623 WT2  2650 TIP3 H1   HT     0.417000        1.0080           0
   31624 WT2  2650 TIP3 H2   HT     0.417000        1.0080           0
   31625 WT2  2653 TIP3 OH2  OT    -0.834000       15.9994           0
   31626 WT2  2653 TIP3 H1   HT     0.417000        1.0080           0
   31627 WT2  2653 TIP3 H2   HT     0.417000        1.0080           0
   31628 WT2  2654 TIP3 OH2  OT    -0.834000       15.9994           0
   31629 WT2  2654 TIP3 H1   HT     0.417000        1.0080           0
   31630 WT2  2654 TIP3 H2   HT     0.417000        1.0080           0
   31631 WT2  2655 TIP3 OH2  OT    -0.834000       15.9994           0
   31632 WT2  2655 TIP3 H1   HT     0.417000        1.0080           0
   31633 WT2  2655 TIP3 H2   HT     0.417000        1.0080           0
   31634 WT2  2656 TIP3 OH2  OT    -0.834000       15.9994           0
   31635 WT2  2656 TIP3 H1   HT     0.417000        1.0080           0
   31636 WT2  2656 TIP3 H2   HT     0.417000        1.0080           0
   31637 WT2  2658 TIP3 OH2  OT    -0.834000       15.9994           0
   31638 WT2  2658 TIP3 H1   HT     0.417000        1.0080           0
   31639 WT2  2658 TIP3 H2   HT     0.417000        1.0080           0
   31640 WT2  2659 TIP3 OH2  OT    -0.834000       15.9994           0
   31641 WT2  2659 TIP3 H1   HT     0.417000        1.0080           0
   31642 WT2  2659 TIP3 H2   HT     0.417000        1.0080           0
   31643 WT2  2660 TIP3 OH2  OT    -0.834000       15.9994           0
   31644 WT2  2660 TIP3 H1   HT     0.417000        1.0080           0
   31645 WT2  2660 TIP3 H2   HT     0.417000        1.0080           0
   31646 WT2  2661 TIP3 OH2  OT    -0.834000       15.9994           0
   31647 WT2  2661 TIP3 H1   HT     0.417000        1.0080           0
   31648 WT2  2661 TIP3 H2   HT     0.417000        1.0080           0
   31649 WT2  2662 TIP3 OH2  OT    -0.834000       15.9994           0
   31650 WT2  2662 TIP3 H1   HT     0.417000        1.0080           0
   31651 WT2  2662 TIP3 H2   HT     0.417000        1.0080           0
   31652 WT2  2664 TIP3 OH2  OT    -0.834000       15.9994           0
   31653 WT2  2664 TIP3 H1   HT     0.417000        1.0080           0
   31654 WT2  2664 TIP3 H2   HT     0.417000        1.0080           0
   31655 WT2  2665 TIP3 OH2  OT    -0.834000       15.9994           0
   31656 WT2  2665 TIP3 H1   HT     0.417000        1.0080           0
   31657 WT2  2665 TIP3 H2   HT     0.417000        1.0080           0
   31658 WT2  2666 TIP3 OH2  OT    -0.834000       15.9994           0
   31659 WT2  2666 TIP3 H1   HT     0.417000        1.0080           0
   31660 WT2  2666 TIP3 H2   HT     0.417000        1.0080           0
   31661 WT2  2667 TIP3 OH2  OT    -0.834000       15.9994           0
   31662 WT2  2667 TIP3 H1   HT     0.417000        1.0080           0
   31663 WT2  2667 TIP3 H2   HT     0.417000        1.0080           0
   31664 WT2  2668 TIP3 OH2  OT    -0.834000       15.9994           0
   31665 WT2  2668 TIP3 H1   HT     0.417000        1.0080           0
   31666 WT2  2668 TIP3 H2   HT     0.417000        1.0080           0
   31667 WT2  2669 TIP3 OH2  OT    -0.834000       15.9994           0
   31668 WT2  2669 TIP3 H1   HT     0.417000        1.0080           0
   31669 WT2  2669 TIP3 H2   HT     0.417000        1.0080           0
   31670 WT2  2670 TIP3 OH2  OT    -0.834000       15.9994           0
   31671 WT2  2670 TIP3 H1   HT     0.417000        1.0080           0
   31672 WT2  2670 TIP3 H2   HT     0.417000        1.0080           0
   31673 WT2  2671 TIP3 OH2  OT    -0.834000       15.9994           0
   31674 WT2  2671 TIP3 H1   HT     0.417000        1.0080           0
   31675 WT2  2671 TIP3 H2   HT     0.417000        1.0080           0
   31676 WT2  2672 TIP3 OH2  OT    -0.834000       15.9994           0
   31677 WT2  2672 TIP3 H1   HT     0.417000        1.0080           0
   31678 WT2  2672 TIP3 H2   HT     0.417000        1.0080           0
   31679 WT2  2673 TIP3 OH2  OT    -0.834000       15.9994           0
   31680 WT2  2673 TIP3 H1   HT     0.417000        1.0080           0
   31681 WT2  2673 TIP3 H2   HT     0.417000        1.0080           0
   31682 WT2  2674 TIP3 OH2  OT    -0.834000       15.9994           0
   31683 WT2  2674 TIP3 H1   HT     0.417000        1.0080           0
   31684 WT2  2674 TIP3 H2   HT     0.417000        1.0080           0
   31685 WT2  2675 TIP3 OH2  OT    -0.834000       15.9994           0
   31686 WT2  2675 TIP3 H1   HT     0.417000        1.0080           0
   31687 WT2  2675 TIP3 H2   HT     0.417000        1.0080           0
   31688 WT2  2676 TIP3 OH2  OT    -0.834000       15.9994           0
   31689 WT2  2676 TIP3 H1   HT     0.417000        1.0080           0
   31690 WT2  2676 TIP3 H2   HT     0.417000        1.0080           0
   31691 WT2  2677 TIP3 OH2  OT    -0.834000       15.9994           0
   31692 WT2  2677 TIP3 H1   HT     0.417000        1.0080           0
   31693 WT2  2677 TIP3 H2   HT     0.417000        1.0080           0
   31694 WT2  2678 TIP3 OH2  OT    -0.834000       15.9994           0
   31695 WT2  2678 TIP3 H1   HT     0.417000        1.0080           0
   31696 WT2  2678 TIP3 H2   HT     0.417000        1.0080           0
   31697 WT2  2679 TIP3 OH2  OT    -0.834000       15.9994           0
   31698 WT2  2679 TIP3 H1   HT     0.417000        1.0080           0
   31699 WT2  2679 TIP3 H2   HT     0.417000        1.0080           0
   31700 WT2  2680 TIP3 OH2  OT    -0.834000       15.9994           0
   31701 WT2  2680 TIP3 H1   HT     0.417000        1.0080           0
   31702 WT2  2680 TIP3 H2   HT     0.417000        1.0080           0
   31703 WT2  2681 TIP3 OH2  OT    -0.834000       15.9994           0
   31704 WT2  2681 TIP3 H1   HT     0.417000        1.0080           0
   31705 WT2  2681 TIP3 H2   HT     0.417000        1.0080           0
   31706 WT2  2683 TIP3 OH2  OT    -0.834000       15.9994           0
   31707 WT2  2683 TIP3 H1   HT     0.417000        1.0080           0
   31708 WT2  2683 TIP3 H2   HT     0.417000        1.0080           0
   31709 WT2  2684 TIP3 OH2  OT    -0.834000       15.9994           0
   31710 WT2  2684 TIP3 H1   HT     0.417000        1.0080           0
   31711 WT2  2684 TIP3 H2   HT     0.417000        1.0080           0
   31712 WT2  2685 TIP3 OH2  OT    -0.834000       15.9994           0
   31713 WT2  2685 TIP3 H1   HT     0.417000        1.0080           0
   31714 WT2  2685 TIP3 H2   HT     0.417000        1.0080           0
   31715 WT2  2686 TIP3 OH2  OT    -0.834000       15.9994           0
   31716 WT2  2686 TIP3 H1   HT     0.417000        1.0080           0
   31717 WT2  2686 TIP3 H2   HT     0.417000        1.0080           0
   31718 WT2  2687 TIP3 OH2  OT    -0.834000       15.9994           0
   31719 WT2  2687 TIP3 H1   HT     0.417000        1.0080           0
   31720 WT2  2687 TIP3 H2   HT     0.417000        1.0080           0
   31721 WT2  2688 TIP3 OH2  OT    -0.834000       15.9994           0
   31722 WT2  2688 TIP3 H1   HT     0.417000        1.0080           0
   31723 WT2  2688 TIP3 H2   HT     0.417000        1.0080           0
   31724 WT2  2689 TIP3 OH2  OT    -0.834000       15.9994           0
   31725 WT2  2689 TIP3 H1   HT     0.417000        1.0080           0
   31726 WT2  2689 TIP3 H2   HT     0.417000        1.0080           0
   31727 WT2  2690 TIP3 OH2  OT    -0.834000       15.9994           0
   31728 WT2  2690 TIP3 H1   HT     0.417000        1.0080           0
   31729 WT2  2690 TIP3 H2   HT     0.417000        1.0080           0
   31730 WT2  2691 TIP3 OH2  OT    -0.834000       15.9994           0
   31731 WT2  2691 TIP3 H1   HT     0.417000        1.0080           0
   31732 WT2  2691 TIP3 H2   HT     0.417000        1.0080           0
   31733 WT2  2692 TIP3 OH2  OT    -0.834000       15.9994           0
   31734 WT2  2692 TIP3 H1   HT     0.417000        1.0080           0
   31735 WT2  2692 TIP3 H2   HT     0.417000        1.0080           0
   31736 WT2  2693 TIP3 OH2  OT    -0.834000       15.9994           0
   31737 WT2  2693 TIP3 H1   HT     0.417000        1.0080           0
   31738 WT2  2693 TIP3 H2   HT     0.417000        1.0080           0
   31739 WT2  2694 TIP3 OH2  OT    -0.834000       15.9994           0
   31740 WT2  2694 TIP3 H1   HT     0.417000        1.0080           0
   31741 WT2  2694 TIP3 H2   HT     0.417000        1.0080           0
   31742 WT2  2695 TIP3 OH2  OT    -0.834000       15.9994           0
   31743 WT2  2695 TIP3 H1   HT     0.417000        1.0080           0
   31744 WT2  2695 TIP3 H2   HT     0.417000        1.0080           0
   31745 WT2  2696 TIP3 OH2  OT    -0.834000       15.9994           0
   31746 WT2  2696 TIP3 H1   HT     0.417000        1.0080           0
   31747 WT2  2696 TIP3 H2   HT     0.417000        1.0080           0
   31748 WT2  2697 TIP3 OH2  OT    -0.834000       15.9994           0
   31749 WT2  2697 TIP3 H1   HT     0.417000        1.0080           0
   31750 WT2  2697 TIP3 H2   HT     0.417000        1.0080           0
   31751 WT2  2698 TIP3 OH2  OT    -0.834000       15.9994           0
   31752 WT2  2698 TIP3 H1   HT     0.417000        1.0080           0
   31753 WT2  2698 TIP3 H2   HT     0.417000        1.0080           0
   31754 WT2  2699 TIP3 OH2  OT    -0.834000       15.9994           0
   31755 WT2  2699 TIP3 H1   HT     0.417000        1.0080           0
   31756 WT2  2699 TIP3 H2   HT     0.417000        1.0080           0
   31757 WT2  2700 TIP3 OH2  OT    -0.834000       15.9994           0
   31758 WT2  2700 TIP3 H1   HT     0.417000        1.0080           0
   31759 WT2  2700 TIP3 H2   HT     0.417000        1.0080           0
   31760 WT2  2701 TIP3 OH2  OT    -0.834000       15.9994           0
   31761 WT2  2701 TIP3 H1   HT     0.417000        1.0080           0
   31762 WT2  2701 TIP3 H2   HT     0.417000        1.0080           0
   31763 WT2  2702 TIP3 OH2  OT    -0.834000       15.9994           0
   31764 WT2  2702 TIP3 H1   HT     0.417000        1.0080           0
   31765 WT2  2702 TIP3 H2   HT     0.417000        1.0080           0
   31766 WT2  2703 TIP3 OH2  OT    -0.834000       15.9994           0
   31767 WT2  2703 TIP3 H1   HT     0.417000        1.0080           0
   31768 WT2  2703 TIP3 H2   HT     0.417000        1.0080           0
   31769 WT2  2704 TIP3 OH2  OT    -0.834000       15.9994           0
   31770 WT2  2704 TIP3 H1   HT     0.417000        1.0080           0
   31771 WT2  2704 TIP3 H2   HT     0.417000        1.0080           0
   31772 WT2  2705 TIP3 OH2  OT    -0.834000       15.9994           0
   31773 WT2  2705 TIP3 H1   HT     0.417000        1.0080           0
   31774 WT2  2705 TIP3 H2   HT     0.417000        1.0080           0
   31775 WT2  2706 TIP3 OH2  OT    -0.834000       15.9994           0
   31776 WT2  2706 TIP3 H1   HT     0.417000        1.0080           0
   31777 WT2  2706 TIP3 H2   HT     0.417000        1.0080           0
   31778 WT2  2707 TIP3 OH2  OT    -0.834000       15.9994           0
   31779 WT2  2707 TIP3 H1   HT     0.417000        1.0080           0
   31780 WT2  2707 TIP3 H2   HT     0.417000        1.0080           0
   31781 WT2  2708 TIP3 OH2  OT    -0.834000       15.9994           0
   31782 WT2  2708 TIP3 H1   HT     0.417000        1.0080           0
   31783 WT2  2708 TIP3 H2   HT     0.417000        1.0080           0
   31784 WT2  2709 TIP3 OH2  OT    -0.834000       15.9994           0
   31785 WT2  2709 TIP3 H1   HT     0.417000        1.0080           0
   31786 WT2  2709 TIP3 H2   HT     0.417000        1.0080           0
   31787 WT2  2710 TIP3 OH2  OT    -0.834000       15.9994           0
   31788 WT2  2710 TIP3 H1   HT     0.417000        1.0080           0
   31789 WT2  2710 TIP3 H2   HT     0.417000        1.0080           0
   31790 WT2  2711 TIP3 OH2  OT    -0.834000       15.9994           0
   31791 WT2  2711 TIP3 H1   HT     0.417000        1.0080           0
   31792 WT2  2711 TIP3 H2   HT     0.417000        1.0080           0
   31793 WT2  2712 TIP3 OH2  OT    -0.834000       15.9994           0
   31794 WT2  2712 TIP3 H1   HT     0.417000        1.0080           0
   31795 WT2  2712 TIP3 H2   HT     0.417000        1.0080           0
   31796 WT2  2713 TIP3 OH2  OT    -0.834000       15.9994           0
   31797 WT2  2713 TIP3 H1   HT     0.417000        1.0080           0
   31798 WT2  2713 TIP3 H2   HT     0.417000        1.0080           0
   31799 WT2  2714 TIP3 OH2  OT    -0.834000       15.9994           0
   31800 WT2  2714 TIP3 H1   HT     0.417000        1.0080           0
   31801 WT2  2714 TIP3 H2   HT     0.417000        1.0080           0
   31802 WT2  2715 TIP3 OH2  OT    -0.834000       15.9994           0
   31803 WT2  2715 TIP3 H1   HT     0.417000        1.0080           0
   31804 WT2  2715 TIP3 H2   HT     0.417000        1.0080           0
   31805 WT2  2716 TIP3 OH2  OT    -0.834000       15.9994           0
   31806 WT2  2716 TIP3 H1   HT     0.417000        1.0080           0
   31807 WT2  2716 TIP3 H2   HT     0.417000        1.0080           0
   31808 WT2  2717 TIP3 OH2  OT    -0.834000       15.9994           0
   31809 WT2  2717 TIP3 H1   HT     0.417000        1.0080           0
   31810 WT2  2717 TIP3 H2   HT     0.417000        1.0080           0
   31811 WT2  2718 TIP3 OH2  OT    -0.834000       15.9994           0
   31812 WT2  2718 TIP3 H1   HT     0.417000        1.0080           0
   31813 WT2  2718 TIP3 H2   HT     0.417000        1.0080           0
   31814 WT2  2719 TIP3 OH2  OT    -0.834000       15.9994           0
   31815 WT2  2719 TIP3 H1   HT     0.417000        1.0080           0
   31816 WT2  2719 TIP3 H2   HT     0.417000        1.0080           0
   31817 WT2  2720 TIP3 OH2  OT    -0.834000       15.9994           0
   31818 WT2  2720 TIP3 H1   HT     0.417000        1.0080           0
   31819 WT2  2720 TIP3 H2   HT     0.417000        1.0080           0
   31820 WT2  2721 TIP3 OH2  OT    -0.834000       15.9994           0
   31821 WT2  2721 TIP3 H1   HT     0.417000        1.0080           0
   31822 WT2  2721 TIP3 H2   HT     0.417000        1.0080           0
   31823 WT2  2722 TIP3 OH2  OT    -0.834000       15.9994           0
   31824 WT2  2722 TIP3 H1   HT     0.417000        1.0080           0
   31825 WT2  2722 TIP3 H2   HT     0.417000        1.0080           0
   31826 WT2  2723 TIP3 OH2  OT    -0.834000       15.9994           0
   31827 WT2  2723 TIP3 H1   HT     0.417000        1.0080           0
   31828 WT2  2723 TIP3 H2   HT     0.417000        1.0080           0
   31829 WT2  2724 TIP3 OH2  OT    -0.834000       15.9994           0
   31830 WT2  2724 TIP3 H1   HT     0.417000        1.0080           0
   31831 WT2  2724 TIP3 H2   HT     0.417000        1.0080           0
   31832 WT2  2725 TIP3 OH2  OT    -0.834000       15.9994           0
   31833 WT2  2725 TIP3 H1   HT     0.417000        1.0080           0
   31834 WT2  2725 TIP3 H2   HT     0.417000        1.0080           0
   31835 WT2  2726 TIP3 OH2  OT    -0.834000       15.9994           0
   31836 WT2  2726 TIP3 H1   HT     0.417000        1.0080           0
   31837 WT2  2726 TIP3 H2   HT     0.417000        1.0080           0
   31838 WT2  2727 TIP3 OH2  OT    -0.834000       15.9994           0
   31839 WT2  2727 TIP3 H1   HT     0.417000        1.0080           0
   31840 WT2  2727 TIP3 H2   HT     0.417000        1.0080           0
   31841 WT2  2728 TIP3 OH2  OT    -0.834000       15.9994           0
   31842 WT2  2728 TIP3 H1   HT     0.417000        1.0080           0
   31843 WT2  2728 TIP3 H2   HT     0.417000        1.0080           0
   31844 WT2  2729 TIP3 OH2  OT    -0.834000       15.9994           0
   31845 WT2  2729 TIP3 H1   HT     0.417000        1.0080           0
   31846 WT2  2729 TIP3 H2   HT     0.417000        1.0080           0
   31847 WT2  2730 TIP3 OH2  OT    -0.834000       15.9994           0
   31848 WT2  2730 TIP3 H1   HT     0.417000        1.0080           0
   31849 WT2  2730 TIP3 H2   HT     0.417000        1.0080           0
   31850 WT2  2731 TIP3 OH2  OT    -0.834000       15.9994           0
   31851 WT2  2731 TIP3 H1   HT     0.417000        1.0080           0
   31852 WT2  2731 TIP3 H2   HT     0.417000        1.0080           0
   31853 WT2  2732 TIP3 OH2  OT    -0.834000       15.9994           0
   31854 WT2  2732 TIP3 H1   HT     0.417000        1.0080           0
   31855 WT2  2732 TIP3 H2   HT     0.417000        1.0080           0
   31856 WT2  2733 TIP3 OH2  OT    -0.834000       15.9994           0
   31857 WT2  2733 TIP3 H1   HT     0.417000        1.0080           0
   31858 WT2  2733 TIP3 H2   HT     0.417000        1.0080           0
   31859 WT2  2734 TIP3 OH2  OT    -0.834000       15.9994           0
   31860 WT2  2734 TIP3 H1   HT     0.417000        1.0080           0
   31861 WT2  2734 TIP3 H2   HT     0.417000        1.0080           0
   31862 WT2  2735 TIP3 OH2  OT    -0.834000       15.9994           0
   31863 WT2  2735 TIP3 H1   HT     0.417000        1.0080           0
   31864 WT2  2735 TIP3 H2   HT     0.417000        1.0080           0
   31865 WT2  2736 TIP3 OH2  OT    -0.834000       15.9994           0
   31866 WT2  2736 TIP3 H1   HT     0.417000        1.0080           0
   31867 WT2  2736 TIP3 H2   HT     0.417000        1.0080           0
   31868 WT2  2737 TIP3 OH2  OT    -0.834000       15.9994           0
   31869 WT2  2737 TIP3 H1   HT     0.417000        1.0080           0
   31870 WT2  2737 TIP3 H2   HT     0.417000        1.0080           0
   31871 WT2  2738 TIP3 OH2  OT    -0.834000       15.9994           0
   31872 WT2  2738 TIP3 H1   HT     0.417000        1.0080           0
   31873 WT2  2738 TIP3 H2   HT     0.417000        1.0080           0
   31874 WT2  2739 TIP3 OH2  OT    -0.834000       15.9994           0
   31875 WT2  2739 TIP3 H1   HT     0.417000        1.0080           0
   31876 WT2  2739 TIP3 H2   HT     0.417000        1.0080           0
   31877 WT2  2740 TIP3 OH2  OT    -0.834000       15.9994           0
   31878 WT2  2740 TIP3 H1   HT     0.417000        1.0080           0
   31879 WT2  2740 TIP3 H2   HT     0.417000        1.0080           0
   31880 WT2  2741 TIP3 OH2  OT    -0.834000       15.9994           0
   31881 WT2  2741 TIP3 H1   HT     0.417000        1.0080           0
   31882 WT2  2741 TIP3 H2   HT     0.417000        1.0080           0
   31883 WT2  2742 TIP3 OH2  OT    -0.834000       15.9994           0
   31884 WT2  2742 TIP3 H1   HT     0.417000        1.0080           0
   31885 WT2  2742 TIP3 H2   HT     0.417000        1.0080           0
   31886 WT2  2743 TIP3 OH2  OT    -0.834000       15.9994           0
   31887 WT2  2743 TIP3 H1   HT     0.417000        1.0080           0
   31888 WT2  2743 TIP3 H2   HT     0.417000        1.0080           0
   31889 WT2  2744 TIP3 OH2  OT    -0.834000       15.9994           0
   31890 WT2  2744 TIP3 H1   HT     0.417000        1.0080           0
   31891 WT2  2744 TIP3 H2   HT     0.417000        1.0080           0
   31892 WT2  2745 TIP3 OH2  OT    -0.834000       15.9994           0
   31893 WT2  2745 TIP3 H1   HT     0.417000        1.0080           0
   31894 WT2  2745 TIP3 H2   HT     0.417000        1.0080           0
   31895 WT2  2746 TIP3 OH2  OT    -0.834000       15.9994           0
   31896 WT2  2746 TIP3 H1   HT     0.417000        1.0080           0
   31897 WT2  2746 TIP3 H2   HT     0.417000        1.0080           0
   31898 WT2  2747 TIP3 OH2  OT    -0.834000       15.9994           0
   31899 WT2  2747 TIP3 H1   HT     0.417000        1.0080           0
   31900 WT2  2747 TIP3 H2   HT     0.417000        1.0080           0
   31901 WT2  2748 TIP3 OH2  OT    -0.834000       15.9994           0
   31902 WT2  2748 TIP3 H1   HT     0.417000        1.0080           0
   31903 WT2  2748 TIP3 H2   HT     0.417000        1.0080           0
   31904 WT2  2749 TIP3 OH2  OT    -0.834000       15.9994           0
   31905 WT2  2749 TIP3 H1   HT     0.417000        1.0080           0
   31906 WT2  2749 TIP3 H2   HT     0.417000        1.0080           0
   31907 WT2  2750 TIP3 OH2  OT    -0.834000       15.9994           0
   31908 WT2  2750 TIP3 H1   HT     0.417000        1.0080           0
   31909 WT2  2750 TIP3 H2   HT     0.417000        1.0080           0
   31910 WT2  2753 TIP3 OH2  OT    -0.834000       15.9994           0
   31911 WT2  2753 TIP3 H1   HT     0.417000        1.0080           0
   31912 WT2  2753 TIP3 H2   HT     0.417000        1.0080           0
   31913 WT2  2755 TIP3 OH2  OT    -0.834000       15.9994           0
   31914 WT2  2755 TIP3 H1   HT     0.417000        1.0080           0
   31915 WT2  2755 TIP3 H2   HT     0.417000        1.0080           0
   31916 WT2  2756 TIP3 OH2  OT    -0.834000       15.9994           0
   31917 WT2  2756 TIP3 H1   HT     0.417000        1.0080           0
   31918 WT2  2756 TIP3 H2   HT     0.417000        1.0080           0
   31919 WT2  2757 TIP3 OH2  OT    -0.834000       15.9994           0
   31920 WT2  2757 TIP3 H1   HT     0.417000        1.0080           0
   31921 WT2  2757 TIP3 H2   HT     0.417000        1.0080           0
   31922 WT2  2758 TIP3 OH2  OT    -0.834000       15.9994           0
   31923 WT2  2758 TIP3 H1   HT     0.417000        1.0080           0
   31924 WT2  2758 TIP3 H2   HT     0.417000        1.0080           0
   31925 WT2  2760 TIP3 OH2  OT    -0.834000       15.9994           0
   31926 WT2  2760 TIP3 H1   HT     0.417000        1.0080           0
   31927 WT2  2760 TIP3 H2   HT     0.417000        1.0080           0
   31928 WT2  2761 TIP3 OH2  OT    -0.834000       15.9994           0
   31929 WT2  2761 TIP3 H1   HT     0.417000        1.0080           0
   31930 WT2  2761 TIP3 H2   HT     0.417000        1.0080           0
   31931 WT2  2762 TIP3 OH2  OT    -0.834000       15.9994           0
   31932 WT2  2762 TIP3 H1   HT     0.417000        1.0080           0
   31933 WT2  2762 TIP3 H2   HT     0.417000        1.0080           0
   31934 WT2  2763 TIP3 OH2  OT    -0.834000       15.9994           0
   31935 WT2  2763 TIP3 H1   HT     0.417000        1.0080           0
   31936 WT2  2763 TIP3 H2   HT     0.417000        1.0080           0
   31937 WT2  2764 TIP3 OH2  OT    -0.834000       15.9994           0
   31938 WT2  2764 TIP3 H1   HT     0.417000        1.0080           0
   31939 WT2  2764 TIP3 H2   HT     0.417000        1.0080           0
   31940 WT2  2766 TIP3 OH2  OT    -0.834000       15.9994           0
   31941 WT2  2766 TIP3 H1   HT     0.417000        1.0080           0
   31942 WT2  2766 TIP3 H2   HT     0.417000        1.0080           0
   31943 WT2  2767 TIP3 OH2  OT    -0.834000       15.9994           0
   31944 WT2  2767 TIP3 H1   HT     0.417000        1.0080           0
   31945 WT2  2767 TIP3 H2   HT     0.417000        1.0080           0
   31946 WT2  2768 TIP3 OH2  OT    -0.834000       15.9994           0
   31947 WT2  2768 TIP3 H1   HT     0.417000        1.0080           0
   31948 WT2  2768 TIP3 H2   HT     0.417000        1.0080           0
   31949 WT2  2769 TIP3 OH2  OT    -0.834000       15.9994           0
   31950 WT2  2769 TIP3 H1   HT     0.417000        1.0080           0
   31951 WT2  2769 TIP3 H2   HT     0.417000        1.0080           0
   31952 WT2  2770 TIP3 OH2  OT    -0.834000       15.9994           0
   31953 WT2  2770 TIP3 H1   HT     0.417000        1.0080           0
   31954 WT2  2770 TIP3 H2   HT     0.417000        1.0080           0
   31955 WT2  2771 TIP3 OH2  OT    -0.834000       15.9994           0
   31956 WT2  2771 TIP3 H1   HT     0.417000        1.0080           0
   31957 WT2  2771 TIP3 H2   HT     0.417000        1.0080           0
   31958 WT2  2774 TIP3 OH2  OT    -0.834000       15.9994           0
   31959 WT2  2774 TIP3 H1   HT     0.417000        1.0080           0
   31960 WT2  2774 TIP3 H2   HT     0.417000        1.0080           0
   31961 WT2  2775 TIP3 OH2  OT    -0.834000       15.9994           0
   31962 WT2  2775 TIP3 H1   HT     0.417000        1.0080           0
   31963 WT2  2775 TIP3 H2   HT     0.417000        1.0080           0
   31964 WT2  2776 TIP3 OH2  OT    -0.834000       15.9994           0
   31965 WT2  2776 TIP3 H1   HT     0.417000        1.0080           0
   31966 WT2  2776 TIP3 H2   HT     0.417000        1.0080           0
   31967 WT2  2777 TIP3 OH2  OT    -0.834000       15.9994           0
   31968 WT2  2777 TIP3 H1   HT     0.417000        1.0080           0
   31969 WT2  2777 TIP3 H2   HT     0.417000        1.0080           0
   31970 WT2  2778 TIP3 OH2  OT    -0.834000       15.9994           0
   31971 WT2  2778 TIP3 H1   HT     0.417000        1.0080           0
   31972 WT2  2778 TIP3 H2   HT     0.417000        1.0080           0
   31973 WT2  2779 TIP3 OH2  OT    -0.834000       15.9994           0
   31974 WT2  2779 TIP3 H1   HT     0.417000        1.0080           0
   31975 WT2  2779 TIP3 H2   HT     0.417000        1.0080           0
   31976 WT2  2782 TIP3 OH2  OT    -0.834000       15.9994           0
   31977 WT2  2782 TIP3 H1   HT     0.417000        1.0080           0
   31978 WT2  2782 TIP3 H2   HT     0.417000        1.0080           0
   31979 WT2  2783 TIP3 OH2  OT    -0.834000       15.9994           0
   31980 WT2  2783 TIP3 H1   HT     0.417000        1.0080           0
   31981 WT2  2783 TIP3 H2   HT     0.417000        1.0080           0
   31982 WT2  2784 TIP3 OH2  OT    -0.834000       15.9994           0
   31983 WT2  2784 TIP3 H1   HT     0.417000        1.0080           0
   31984 WT2  2784 TIP3 H2   HT     0.417000        1.0080           0
   31985 WT2  2785 TIP3 OH2  OT    -0.834000       15.9994           0
   31986 WT2  2785 TIP3 H1   HT     0.417000        1.0080           0
   31987 WT2  2785 TIP3 H2   HT     0.417000        1.0080           0
   31988 WT2  2786 TIP3 OH2  OT    -0.834000       15.9994           0
   31989 WT2  2786 TIP3 H1   HT     0.417000        1.0080           0
   31990 WT2  2786 TIP3 H2   HT     0.417000        1.0080           0
   31991 WT2  2787 TIP3 OH2  OT    -0.834000       15.9994           0
   31992 WT2  2787 TIP3 H1   HT     0.417000        1.0080           0
   31993 WT2  2787 TIP3 H2   HT     0.417000        1.0080           0
   31994 WT2  2788 TIP3 OH2  OT    -0.834000       15.9994           0
   31995 WT2  2788 TIP3 H1   HT     0.417000        1.0080           0
   31996 WT2  2788 TIP3 H2   HT     0.417000        1.0080           0
   31997 WT2  2789 TIP3 OH2  OT    -0.834000       15.9994           0
   31998 WT2  2789 TIP3 H1   HT     0.417000        1.0080           0
   31999 WT2  2789 TIP3 H2   HT     0.417000        1.0080           0
   32000 WT2  2790 TIP3 OH2  OT    -0.834000       15.9994           0
   32001 WT2  2790 TIP3 H1   HT     0.417000        1.0080           0
   32002 WT2  2790 TIP3 H2   HT     0.417000        1.0080           0
   32003 WT2  2791 TIP3 OH2  OT    -0.834000       15.9994           0
   32004 WT2  2791 TIP3 H1   HT     0.417000        1.0080           0
   32005 WT2  2791 TIP3 H2   HT     0.417000        1.0080           0
   32006 WT2  2792 TIP3 OH2  OT    -0.834000       15.9994           0
   32007 WT2  2792 TIP3 H1   HT     0.417000        1.0080           0
   32008 WT2  2792 TIP3 H2   HT     0.417000        1.0080           0
   32009 WT2  2793 TIP3 OH2  OT    -0.834000       15.9994           0
   32010 WT2  2793 TIP3 H1   HT     0.417000        1.0080           0
   32011 WT2  2793 TIP3 H2   HT     0.417000        1.0080           0
   32012 WT2  2794 TIP3 OH2  OT    -0.834000       15.9994           0
   32013 WT2  2794 TIP3 H1   HT     0.417000        1.0080           0
   32014 WT2  2794 TIP3 H2   HT     0.417000        1.0080           0
   32015 WT2  2795 TIP3 OH2  OT    -0.834000       15.9994           0
   32016 WT2  2795 TIP3 H1   HT     0.417000        1.0080           0
   32017 WT2  2795 TIP3 H2   HT     0.417000        1.0080           0
   32018 WT2  2796 TIP3 OH2  OT    -0.834000       15.9994           0
   32019 WT2  2796 TIP3 H1   HT     0.417000        1.0080           0
   32020 WT2  2796 TIP3 H2   HT     0.417000        1.0080           0
   32021 WT2  2797 TIP3 OH2  OT    -0.834000       15.9994           0
   32022 WT2  2797 TIP3 H1   HT     0.417000        1.0080           0
   32023 WT2  2797 TIP3 H2   HT     0.417000        1.0080           0
   32024 WT2  2798 TIP3 OH2  OT    -0.834000       15.9994           0
   32025 WT2  2798 TIP3 H1   HT     0.417000        1.0080           0
   32026 WT2  2798 TIP3 H2   HT     0.417000        1.0080           0
   32027 WT2  2799 TIP3 OH2  OT    -0.834000       15.9994           0
   32028 WT2  2799 TIP3 H1   HT     0.417000        1.0080           0
   32029 WT2  2799 TIP3 H2   HT     0.417000        1.0080           0
   32030 WT2  2800 TIP3 OH2  OT    -0.834000       15.9994           0
   32031 WT2  2800 TIP3 H1   HT     0.417000        1.0080           0
   32032 WT2  2800 TIP3 H2   HT     0.417000        1.0080           0
   32033 WT2  2801 TIP3 OH2  OT    -0.834000       15.9994           0
   32034 WT2  2801 TIP3 H1   HT     0.417000        1.0080           0
   32035 WT2  2801 TIP3 H2   HT     0.417000        1.0080           0
   32036 WT2  2802 TIP3 OH2  OT    -0.834000       15.9994           0
   32037 WT2  2802 TIP3 H1   HT     0.417000        1.0080           0
   32038 WT2  2802 TIP3 H2   HT     0.417000        1.0080           0
   32039 WT2  2803 TIP3 OH2  OT    -0.834000       15.9994           0
   32040 WT2  2803 TIP3 H1   HT     0.417000        1.0080           0
   32041 WT2  2803 TIP3 H2   HT     0.417000        1.0080           0
   32042 WT2  2804 TIP3 OH2  OT    -0.834000       15.9994           0
   32043 WT2  2804 TIP3 H1   HT     0.417000        1.0080           0
   32044 WT2  2804 TIP3 H2   HT     0.417000        1.0080           0
   32045 WT2  2805 TIP3 OH2  OT    -0.834000       15.9994           0
   32046 WT2  2805 TIP3 H1   HT     0.417000        1.0080           0
   32047 WT2  2805 TIP3 H2   HT     0.417000        1.0080           0
   32048 WT2  2806 TIP3 OH2  OT    -0.834000       15.9994           0
   32049 WT2  2806 TIP3 H1   HT     0.417000        1.0080           0
   32050 WT2  2806 TIP3 H2   HT     0.417000        1.0080           0
   32051 WT2  2808 TIP3 OH2  OT    -0.834000       15.9994           0
   32052 WT2  2808 TIP3 H1   HT     0.417000        1.0080           0
   32053 WT2  2808 TIP3 H2   HT     0.417000        1.0080           0
   32054 WT2  2809 TIP3 OH2  OT    -0.834000       15.9994           0
   32055 WT2  2809 TIP3 H1   HT     0.417000        1.0080           0
   32056 WT2  2809 TIP3 H2   HT     0.417000        1.0080           0
   32057 WT2  2810 TIP3 OH2  OT    -0.834000       15.9994           0
   32058 WT2  2810 TIP3 H1   HT     0.417000        1.0080           0
   32059 WT2  2810 TIP3 H2   HT     0.417000        1.0080           0
   32060 WT2  2811 TIP3 OH2  OT    -0.834000       15.9994           0
   32061 WT2  2811 TIP3 H1   HT     0.417000        1.0080           0
   32062 WT2  2811 TIP3 H2   HT     0.417000        1.0080           0
   32063 WT2  2812 TIP3 OH2  OT    -0.834000       15.9994           0
   32064 WT2  2812 TIP3 H1   HT     0.417000        1.0080           0
   32065 WT2  2812 TIP3 H2   HT     0.417000        1.0080           0
   32066 WT2  2813 TIP3 OH2  OT    -0.834000       15.9994           0
   32067 WT2  2813 TIP3 H1   HT     0.417000        1.0080           0
   32068 WT2  2813 TIP3 H2   HT     0.417000        1.0080           0
   32069 WT2  2814 TIP3 OH2  OT    -0.834000       15.9994           0
   32070 WT2  2814 TIP3 H1   HT     0.417000        1.0080           0
   32071 WT2  2814 TIP3 H2   HT     0.417000        1.0080           0
   32072 WT2  2815 TIP3 OH2  OT    -0.834000       15.9994           0
   32073 WT2  2815 TIP3 H1   HT     0.417000        1.0080           0
   32074 WT2  2815 TIP3 H2   HT     0.417000        1.0080           0
   32075 WT2  2816 TIP3 OH2  OT    -0.834000       15.9994           0
   32076 WT2  2816 TIP3 H1   HT     0.417000        1.0080           0
   32077 WT2  2816 TIP3 H2   HT     0.417000        1.0080           0
   32078 WT2  2817 TIP3 OH2  OT    -0.834000       15.9994           0
   32079 WT2  2817 TIP3 H1   HT     0.417000        1.0080           0
   32080 WT2  2817 TIP3 H2   HT     0.417000        1.0080           0
   32081 WT2  2818 TIP3 OH2  OT    -0.834000       15.9994           0
   32082 WT2  2818 TIP3 H1   HT     0.417000        1.0080           0
   32083 WT2  2818 TIP3 H2   HT     0.417000        1.0080           0
   32084 WT2  2819 TIP3 OH2  OT    -0.834000       15.9994           0
   32085 WT2  2819 TIP3 H1   HT     0.417000        1.0080           0
   32086 WT2  2819 TIP3 H2   HT     0.417000        1.0080           0
   32087 WT2  2820 TIP3 OH2  OT    -0.834000       15.9994           0
   32088 WT2  2820 TIP3 H1   HT     0.417000        1.0080           0
   32089 WT2  2820 TIP3 H2   HT     0.417000        1.0080           0
   32090 WT2  2821 TIP3 OH2  OT    -0.834000       15.9994           0
   32091 WT2  2821 TIP3 H1   HT     0.417000        1.0080           0
   32092 WT2  2821 TIP3 H2   HT     0.417000        1.0080           0
   32093 WT2  2822 TIP3 OH2  OT    -0.834000       15.9994           0
   32094 WT2  2822 TIP3 H1   HT     0.417000        1.0080           0
   32095 WT2  2822 TIP3 H2   HT     0.417000        1.0080           0
   32096 WT2  2824 TIP3 OH2  OT    -0.834000       15.9994           0
   32097 WT2  2824 TIP3 H1   HT     0.417000        1.0080           0
   32098 WT2  2824 TIP3 H2   HT     0.417000        1.0080           0
   32099 WT2  2825 TIP3 OH2  OT    -0.834000       15.9994           0
   32100 WT2  2825 TIP3 H1   HT     0.417000        1.0080           0
   32101 WT2  2825 TIP3 H2   HT     0.417000        1.0080           0
   32102 WT2  2826 TIP3 OH2  OT    -0.834000       15.9994           0
   32103 WT2  2826 TIP3 H1   HT     0.417000        1.0080           0
   32104 WT2  2826 TIP3 H2   HT     0.417000        1.0080           0
   32105 WT2  2827 TIP3 OH2  OT    -0.834000       15.9994           0
   32106 WT2  2827 TIP3 H1   HT     0.417000        1.0080           0
   32107 WT2  2827 TIP3 H2   HT     0.417000        1.0080           0
   32108 WT2  2829 TIP3 OH2  OT    -0.834000       15.9994           0
   32109 WT2  2829 TIP3 H1   HT     0.417000        1.0080           0
   32110 WT2  2829 TIP3 H2   HT     0.417000        1.0080           0
   32111 WT2  2830 TIP3 OH2  OT    -0.834000       15.9994           0
   32112 WT2  2830 TIP3 H1   HT     0.417000        1.0080           0
   32113 WT2  2830 TIP3 H2   HT     0.417000        1.0080           0
   32114 WT2  2831 TIP3 OH2  OT    -0.834000       15.9994           0
   32115 WT2  2831 TIP3 H1   HT     0.417000        1.0080           0
   32116 WT2  2831 TIP3 H2   HT     0.417000        1.0080           0
   32117 WT2  2832 TIP3 OH2  OT    -0.834000       15.9994           0
   32118 WT2  2832 TIP3 H1   HT     0.417000        1.0080           0
   32119 WT2  2832 TIP3 H2   HT     0.417000        1.0080           0
   32120 WT2  2833 TIP3 OH2  OT    -0.834000       15.9994           0
   32121 WT2  2833 TIP3 H1   HT     0.417000        1.0080           0
   32122 WT2  2833 TIP3 H2   HT     0.417000        1.0080           0
   32123 WT2  2834 TIP3 OH2  OT    -0.834000       15.9994           0
   32124 WT2  2834 TIP3 H1   HT     0.417000        1.0080           0
   32125 WT2  2834 TIP3 H2   HT     0.417000        1.0080           0
   32126 WT2  2836 TIP3 OH2  OT    -0.834000       15.9994           0
   32127 WT2  2836 TIP3 H1   HT     0.417000        1.0080           0
   32128 WT2  2836 TIP3 H2   HT     0.417000        1.0080           0
   32129 WT2  2838 TIP3 OH2  OT    -0.834000       15.9994           0
   32130 WT2  2838 TIP3 H1   HT     0.417000        1.0080           0
   32131 WT2  2838 TIP3 H2   HT     0.417000        1.0080           0
   32132 WT2  2839 TIP3 OH2  OT    -0.834000       15.9994           0
   32133 WT2  2839 TIP3 H1   HT     0.417000        1.0080           0
   32134 WT2  2839 TIP3 H2   HT     0.417000        1.0080           0
   32135 WT2  2840 TIP3 OH2  OT    -0.834000       15.9994           0
   32136 WT2  2840 TIP3 H1   HT     0.417000        1.0080           0
   32137 WT2  2840 TIP3 H2   HT     0.417000        1.0080           0
   32138 WT2  2841 TIP3 OH2  OT    -0.834000       15.9994           0
   32139 WT2  2841 TIP3 H1   HT     0.417000        1.0080           0
   32140 WT2  2841 TIP3 H2   HT     0.417000        1.0080           0
   32141 WT2  2842 TIP3 OH2  OT    -0.834000       15.9994           0
   32142 WT2  2842 TIP3 H1   HT     0.417000        1.0080           0
   32143 WT2  2842 TIP3 H2   HT     0.417000        1.0080           0
   32144 WT2  2843 TIP3 OH2  OT    -0.834000       15.9994           0
   32145 WT2  2843 TIP3 H1   HT     0.417000        1.0080           0
   32146 WT2  2843 TIP3 H2   HT     0.417000        1.0080           0
   32147 WT2  2844 TIP3 OH2  OT    -0.834000       15.9994           0
   32148 WT2  2844 TIP3 H1   HT     0.417000        1.0080           0
   32149 WT2  2844 TIP3 H2   HT     0.417000        1.0080           0
   32150 WT2  2847 TIP3 OH2  OT    -0.834000       15.9994           0
   32151 WT2  2847 TIP3 H1   HT     0.417000        1.0080           0
   32152 WT2  2847 TIP3 H2   HT     0.417000        1.0080           0
   32153 WT2  2848 TIP3 OH2  OT    -0.834000       15.9994           0
   32154 WT2  2848 TIP3 H1   HT     0.417000        1.0080           0
   32155 WT2  2848 TIP3 H2   HT     0.417000        1.0080           0
   32156 WT2  2849 TIP3 OH2  OT    -0.834000       15.9994           0
   32157 WT2  2849 TIP3 H1   HT     0.417000        1.0080           0
   32158 WT2  2849 TIP3 H2   HT     0.417000        1.0080           0
   32159 WT2  2851 TIP3 OH2  OT    -0.834000       15.9994           0
   32160 WT2  2851 TIP3 H1   HT     0.417000        1.0080           0
   32161 WT2  2851 TIP3 H2   HT     0.417000        1.0080           0
   32162 WT2  2852 TIP3 OH2  OT    -0.834000       15.9994           0
   32163 WT2  2852 TIP3 H1   HT     0.417000        1.0080           0
   32164 WT2  2852 TIP3 H2   HT     0.417000        1.0080           0
   32165 WT2  2853 TIP3 OH2  OT    -0.834000       15.9994           0
   32166 WT2  2853 TIP3 H1   HT     0.417000        1.0080           0
   32167 WT2  2853 TIP3 H2   HT     0.417000        1.0080           0
   32168 WT2  2854 TIP3 OH2  OT    -0.834000       15.9994           0
   32169 WT2  2854 TIP3 H1   HT     0.417000        1.0080           0
   32170 WT2  2854 TIP3 H2   HT     0.417000        1.0080           0
   32171 WT2  2855 TIP3 OH2  OT    -0.834000       15.9994           0
   32172 WT2  2855 TIP3 H1   HT     0.417000        1.0080           0
   32173 WT2  2855 TIP3 H2   HT     0.417000        1.0080           0
   32174 WT2  2856 TIP3 OH2  OT    -0.834000       15.9994           0
   32175 WT2  2856 TIP3 H1   HT     0.417000        1.0080           0
   32176 WT2  2856 TIP3 H2   HT     0.417000        1.0080           0
   32177 WT2  2858 TIP3 OH2  OT    -0.834000       15.9994           0
   32178 WT2  2858 TIP3 H1   HT     0.417000        1.0080           0
   32179 WT2  2858 TIP3 H2   HT     0.417000        1.0080           0
   32180 WT2  2859 TIP3 OH2  OT    -0.834000       15.9994           0
   32181 WT2  2859 TIP3 H1   HT     0.417000        1.0080           0
   32182 WT2  2859 TIP3 H2   HT     0.417000        1.0080           0
   32183 WT2  2860 TIP3 OH2  OT    -0.834000       15.9994           0
   32184 WT2  2860 TIP3 H1   HT     0.417000        1.0080           0
   32185 WT2  2860 TIP3 H2   HT     0.417000        1.0080           0
   32186 WT2  2861 TIP3 OH2  OT    -0.834000       15.9994           0
   32187 WT2  2861 TIP3 H1   HT     0.417000        1.0080           0
   32188 WT2  2861 TIP3 H2   HT     0.417000        1.0080           0
   32189 WT2  2862 TIP3 OH2  OT    -0.834000       15.9994           0
   32190 WT2  2862 TIP3 H1   HT     0.417000        1.0080           0
   32191 WT2  2862 TIP3 H2   HT     0.417000        1.0080           0
   32192 WT2  2863 TIP3 OH2  OT    -0.834000       15.9994           0
   32193 WT2  2863 TIP3 H1   HT     0.417000        1.0080           0
   32194 WT2  2863 TIP3 H2   HT     0.417000        1.0080           0
   32195 WT2  2864 TIP3 OH2  OT    -0.834000       15.9994           0
   32196 WT2  2864 TIP3 H1   HT     0.417000        1.0080           0
   32197 WT2  2864 TIP3 H2   HT     0.417000        1.0080           0
   32198 WT2  2866 TIP3 OH2  OT    -0.834000       15.9994           0
   32199 WT2  2866 TIP3 H1   HT     0.417000        1.0080           0
   32200 WT2  2866 TIP3 H2   HT     0.417000        1.0080           0
   32201 WT2  2867 TIP3 OH2  OT    -0.834000       15.9994           0
   32202 WT2  2867 TIP3 H1   HT     0.417000        1.0080           0
   32203 WT2  2867 TIP3 H2   HT     0.417000        1.0080           0
   32204 WT2  2868 TIP3 OH2  OT    -0.834000       15.9994           0
   32205 WT2  2868 TIP3 H1   HT     0.417000        1.0080           0
   32206 WT2  2868 TIP3 H2   HT     0.417000        1.0080           0
   32207 WT2  2869 TIP3 OH2  OT    -0.834000       15.9994           0
   32208 WT2  2869 TIP3 H1   HT     0.417000        1.0080           0
   32209 WT2  2869 TIP3 H2   HT     0.417000        1.0080           0
   32210 WT2  2870 TIP3 OH2  OT    -0.834000       15.9994           0
   32211 WT2  2870 TIP3 H1   HT     0.417000        1.0080           0
   32212 WT2  2870 TIP3 H2   HT     0.417000        1.0080           0
   32213 WT2  2872 TIP3 OH2  OT    -0.834000       15.9994           0
   32214 WT2  2872 TIP3 H1   HT     0.417000        1.0080           0
   32215 WT2  2872 TIP3 H2   HT     0.417000        1.0080           0
   32216 WT2  2873 TIP3 OH2  OT    -0.834000       15.9994           0
   32217 WT2  2873 TIP3 H1   HT     0.417000        1.0080           0
   32218 WT2  2873 TIP3 H2   HT     0.417000        1.0080           0
   32219 WT2  2874 TIP3 OH2  OT    -0.834000       15.9994           0
   32220 WT2  2874 TIP3 H1   HT     0.417000        1.0080           0
   32221 WT2  2874 TIP3 H2   HT     0.417000        1.0080           0
   32222 WT2  2875 TIP3 OH2  OT    -0.834000       15.9994           0
   32223 WT2  2875 TIP3 H1   HT     0.417000        1.0080           0
   32224 WT2  2875 TIP3 H2   HT     0.417000        1.0080           0
   32225 WT2  2876 TIP3 OH2  OT    -0.834000       15.9994           0
   32226 WT2  2876 TIP3 H1   HT     0.417000        1.0080           0
   32227 WT2  2876 TIP3 H2   HT     0.417000        1.0080           0
   32228 WT2  2877 TIP3 OH2  OT    -0.834000       15.9994           0
   32229 WT2  2877 TIP3 H1   HT     0.417000        1.0080           0
   32230 WT2  2877 TIP3 H2   HT     0.417000        1.0080           0
   32231 WT2  2879 TIP3 OH2  OT    -0.834000       15.9994           0
   32232 WT2  2879 TIP3 H1   HT     0.417000        1.0080           0
   32233 WT2  2879 TIP3 H2   HT     0.417000        1.0080           0
   32234 WT2  2880 TIP3 OH2  OT    -0.834000       15.9994           0
   32235 WT2  2880 TIP3 H1   HT     0.417000        1.0080           0
   32236 WT2  2880 TIP3 H2   HT     0.417000        1.0080           0
   32237 WT2  2881 TIP3 OH2  OT    -0.834000       15.9994           0
   32238 WT2  2881 TIP3 H1   HT     0.417000        1.0080           0
   32239 WT2  2881 TIP3 H2   HT     0.417000        1.0080           0
   32240 WT2  2882 TIP3 OH2  OT    -0.834000       15.9994           0
   32241 WT2  2882 TIP3 H1   HT     0.417000        1.0080           0
   32242 WT2  2882 TIP3 H2   HT     0.417000        1.0080           0
   32243 WT2  2883 TIP3 OH2  OT    -0.834000       15.9994           0
   32244 WT2  2883 TIP3 H1   HT     0.417000        1.0080           0
   32245 WT2  2883 TIP3 H2   HT     0.417000        1.0080           0
   32246 WT2  2885 TIP3 OH2  OT    -0.834000       15.9994           0
   32247 WT2  2885 TIP3 H1   HT     0.417000        1.0080           0
   32248 WT2  2885 TIP3 H2   HT     0.417000        1.0080           0
   32249 WT2  2886 TIP3 OH2  OT    -0.834000       15.9994           0
   32250 WT2  2886 TIP3 H1   HT     0.417000        1.0080           0
   32251 WT2  2886 TIP3 H2   HT     0.417000        1.0080           0
   32252 WT2  2887 TIP3 OH2  OT    -0.834000       15.9994           0
   32253 WT2  2887 TIP3 H1   HT     0.417000        1.0080           0
   32254 WT2  2887 TIP3 H2   HT     0.417000        1.0080           0
   32255 WT2  2888 TIP3 OH2  OT    -0.834000       15.9994           0
   32256 WT2  2888 TIP3 H1   HT     0.417000        1.0080           0
   32257 WT2  2888 TIP3 H2   HT     0.417000        1.0080           0
   32258 WT2  2889 TIP3 OH2  OT    -0.834000       15.9994           0
   32259 WT2  2889 TIP3 H1   HT     0.417000        1.0080           0
   32260 WT2  2889 TIP3 H2   HT     0.417000        1.0080           0
   32261 WT2  2890 TIP3 OH2  OT    -0.834000       15.9994           0
   32262 WT2  2890 TIP3 H1   HT     0.417000        1.0080           0
   32263 WT2  2890 TIP3 H2   HT     0.417000        1.0080           0
   32264 WT2  2891 TIP3 OH2  OT    -0.834000       15.9994           0
   32265 WT2  2891 TIP3 H1   HT     0.417000        1.0080           0
   32266 WT2  2891 TIP3 H2   HT     0.417000        1.0080           0
   32267 WT2  2892 TIP3 OH2  OT    -0.834000       15.9994           0
   32268 WT2  2892 TIP3 H1   HT     0.417000        1.0080           0
   32269 WT2  2892 TIP3 H2   HT     0.417000        1.0080           0
   32270 WT2  2893 TIP3 OH2  OT    -0.834000       15.9994           0
   32271 WT2  2893 TIP3 H1   HT     0.417000        1.0080           0
   32272 WT2  2893 TIP3 H2   HT     0.417000        1.0080           0
   32273 WT2  2895 TIP3 OH2  OT    -0.834000       15.9994           0
   32274 WT2  2895 TIP3 H1   HT     0.417000        1.0080           0
   32275 WT2  2895 TIP3 H2   HT     0.417000        1.0080           0
   32276 WT2  2896 TIP3 OH2  OT    -0.834000       15.9994           0
   32277 WT2  2896 TIP3 H1   HT     0.417000        1.0080           0
   32278 WT2  2896 TIP3 H2   HT     0.417000        1.0080           0
   32279 WT2  2898 TIP3 OH2  OT    -0.834000       15.9994           0
   32280 WT2  2898 TIP3 H1   HT     0.417000        1.0080           0
   32281 WT2  2898 TIP3 H2   HT     0.417000        1.0080           0
   32282 WT2  2899 TIP3 OH2  OT    -0.834000       15.9994           0
   32283 WT2  2899 TIP3 H1   HT     0.417000        1.0080           0
   32284 WT2  2899 TIP3 H2   HT     0.417000        1.0080           0
   32285 WT2  2900 TIP3 OH2  OT    -0.834000       15.9994           0
   32286 WT2  2900 TIP3 H1   HT     0.417000        1.0080           0
   32287 WT2  2900 TIP3 H2   HT     0.417000        1.0080           0
   32288 WT2  2901 TIP3 OH2  OT    -0.834000       15.9994           0
   32289 WT2  2901 TIP3 H1   HT     0.417000        1.0080           0
   32290 WT2  2901 TIP3 H2   HT     0.417000        1.0080           0
   32291 WT2  2903 TIP3 OH2  OT    -0.834000       15.9994           0
   32292 WT2  2903 TIP3 H1   HT     0.417000        1.0080           0
   32293 WT2  2903 TIP3 H2   HT     0.417000        1.0080           0
   32294 WT2  2904 TIP3 OH2  OT    -0.834000       15.9994           0
   32295 WT2  2904 TIP3 H1   HT     0.417000        1.0080           0
   32296 WT2  2904 TIP3 H2   HT     0.417000        1.0080           0
   32297 WT2  2905 TIP3 OH2  OT    -0.834000       15.9994           0
   32298 WT2  2905 TIP3 H1   HT     0.417000        1.0080           0
   32299 WT2  2905 TIP3 H2   HT     0.417000        1.0080           0
   32300 WT2  2906 TIP3 OH2  OT    -0.834000       15.9994           0
   32301 WT2  2906 TIP3 H1   HT     0.417000        1.0080           0
   32302 WT2  2906 TIP3 H2   HT     0.417000        1.0080           0
   32303 WT2  2907 TIP3 OH2  OT    -0.834000       15.9994           0
   32304 WT2  2907 TIP3 H1   HT     0.417000        1.0080           0
   32305 WT2  2907 TIP3 H2   HT     0.417000        1.0080           0
   32306 WT2  2908 TIP3 OH2  OT    -0.834000       15.9994           0
   32307 WT2  2908 TIP3 H1   HT     0.417000        1.0080           0
   32308 WT2  2908 TIP3 H2   HT     0.417000        1.0080           0
   32309 WT2  2909 TIP3 OH2  OT    -0.834000       15.9994           0
   32310 WT2  2909 TIP3 H1   HT     0.417000        1.0080           0
   32311 WT2  2909 TIP3 H2   HT     0.417000        1.0080           0
   32312 WT2  2910 TIP3 OH2  OT    -0.834000       15.9994           0
   32313 WT2  2910 TIP3 H1   HT     0.417000        1.0080           0
   32314 WT2  2910 TIP3 H2   HT     0.417000        1.0080           0
   32315 WT2  2911 TIP3 OH2  OT    -0.834000       15.9994           0
   32316 WT2  2911 TIP3 H1   HT     0.417000        1.0080           0
   32317 WT2  2911 TIP3 H2   HT     0.417000        1.0080           0
   32318 WT2  2912 TIP3 OH2  OT    -0.834000       15.9994           0
   32319 WT2  2912 TIP3 H1   HT     0.417000        1.0080           0
   32320 WT2  2912 TIP3 H2   HT     0.417000        1.0080           0
   32321 WT2  2913 TIP3 OH2  OT    -0.834000       15.9994           0
   32322 WT2  2913 TIP3 H1   HT     0.417000        1.0080           0
   32323 WT2  2913 TIP3 H2   HT     0.417000        1.0080           0
   32324 WT2  2914 TIP3 OH2  OT    -0.834000       15.9994           0
   32325 WT2  2914 TIP3 H1   HT     0.417000        1.0080           0
   32326 WT2  2914 TIP3 H2   HT     0.417000        1.0080           0
   32327 WT2  2915 TIP3 OH2  OT    -0.834000       15.9994           0
   32328 WT2  2915 TIP3 H1   HT     0.417000        1.0080           0
   32329 WT2  2915 TIP3 H2   HT     0.417000        1.0080           0
   32330 WT2  2916 TIP3 OH2  OT    -0.834000       15.9994           0
   32331 WT2  2916 TIP3 H1   HT     0.417000        1.0080           0
   32332 WT2  2916 TIP3 H2   HT     0.417000        1.0080           0
   32333 WT2  2917 TIP3 OH2  OT    -0.834000       15.9994           0
   32334 WT2  2917 TIP3 H1   HT     0.417000        1.0080           0
   32335 WT2  2917 TIP3 H2   HT     0.417000        1.0080           0
   32336 WT2  2918 TIP3 OH2  OT    -0.834000       15.9994           0
   32337 WT2  2918 TIP3 H1   HT     0.417000        1.0080           0
   32338 WT2  2918 TIP3 H2   HT     0.417000        1.0080           0
   32339 WT2  2919 TIP3 OH2  OT    -0.834000       15.9994           0
   32340 WT2  2919 TIP3 H1   HT     0.417000        1.0080           0
   32341 WT2  2919 TIP3 H2   HT     0.417000        1.0080           0
   32342 WT2  2923 TIP3 OH2  OT    -0.834000       15.9994           0
   32343 WT2  2923 TIP3 H1   HT     0.417000        1.0080           0
   32344 WT2  2923 TIP3 H2   HT     0.417000        1.0080           0
   32345 WT2  2924 TIP3 OH2  OT    -0.834000       15.9994           0
   32346 WT2  2924 TIP3 H1   HT     0.417000        1.0080           0
   32347 WT2  2924 TIP3 H2   HT     0.417000        1.0080           0
   32348 WT2  2925 TIP3 OH2  OT    -0.834000       15.9994           0
   32349 WT2  2925 TIP3 H1   HT     0.417000        1.0080           0
   32350 WT2  2925 TIP3 H2   HT     0.417000        1.0080           0
   32351 WT2  2926 TIP3 OH2  OT    -0.834000       15.9994           0
   32352 WT2  2926 TIP3 H1   HT     0.417000        1.0080           0
   32353 WT2  2926 TIP3 H2   HT     0.417000        1.0080           0
   32354 WT2  2927 TIP3 OH2  OT    -0.834000       15.9994           0
   32355 WT2  2927 TIP3 H1   HT     0.417000        1.0080           0
   32356 WT2  2927 TIP3 H2   HT     0.417000        1.0080           0
   32357 WT2  2928 TIP3 OH2  OT    -0.834000       15.9994           0
   32358 WT2  2928 TIP3 H1   HT     0.417000        1.0080           0
   32359 WT2  2928 TIP3 H2   HT     0.417000        1.0080           0
   32360 WT2  2929 TIP3 OH2  OT    -0.834000       15.9994           0
   32361 WT2  2929 TIP3 H1   HT     0.417000        1.0080           0
   32362 WT2  2929 TIP3 H2   HT     0.417000        1.0080           0
   32363 WT2  2930 TIP3 OH2  OT    -0.834000       15.9994           0
   32364 WT2  2930 TIP3 H1   HT     0.417000        1.0080           0
   32365 WT2  2930 TIP3 H2   HT     0.417000        1.0080           0
   32366 WT2  2931 TIP3 OH2  OT    -0.834000       15.9994           0
   32367 WT2  2931 TIP3 H1   HT     0.417000        1.0080           0
   32368 WT2  2931 TIP3 H2   HT     0.417000        1.0080           0
   32369 WT2  2932 TIP3 OH2  OT    -0.834000       15.9994           0
   32370 WT2  2932 TIP3 H1   HT     0.417000        1.0080           0
   32371 WT2  2932 TIP3 H2   HT     0.417000        1.0080           0
   32372 WT2  2933 TIP3 OH2  OT    -0.834000       15.9994           0
   32373 WT2  2933 TIP3 H1   HT     0.417000        1.0080           0
   32374 WT2  2933 TIP3 H2   HT     0.417000        1.0080           0
   32375 WT2  2934 TIP3 OH2  OT    -0.834000       15.9994           0
   32376 WT2  2934 TIP3 H1   HT     0.417000        1.0080           0
   32377 WT2  2934 TIP3 H2   HT     0.417000        1.0080           0
   32378 WT2  2935 TIP3 OH2  OT    -0.834000       15.9994           0
   32379 WT2  2935 TIP3 H1   HT     0.417000        1.0080           0
   32380 WT2  2935 TIP3 H2   HT     0.417000        1.0080           0
   32381 WT2  2936 TIP3 OH2  OT    -0.834000       15.9994           0
   32382 WT2  2936 TIP3 H1   HT     0.417000        1.0080           0
   32383 WT2  2936 TIP3 H2   HT     0.417000        1.0080           0
   32384 WT2  2938 TIP3 OH2  OT    -0.834000       15.9994           0
   32385 WT2  2938 TIP3 H1   HT     0.417000        1.0080           0
   32386 WT2  2938 TIP3 H2   HT     0.417000        1.0080           0
   32387 WT2  2939 TIP3 OH2  OT    -0.834000       15.9994           0
   32388 WT2  2939 TIP3 H1   HT     0.417000        1.0080           0
   32389 WT2  2939 TIP3 H2   HT     0.417000        1.0080           0
   32390 WT2  2940 TIP3 OH2  OT    -0.834000       15.9994           0
   32391 WT2  2940 TIP3 H1   HT     0.417000        1.0080           0
   32392 WT2  2940 TIP3 H2   HT     0.417000        1.0080           0
   32393 WT2  2942 TIP3 OH2  OT    -0.834000       15.9994           0
   32394 WT2  2942 TIP3 H1   HT     0.417000        1.0080           0
   32395 WT2  2942 TIP3 H2   HT     0.417000        1.0080           0
   32396 WT2  2943 TIP3 OH2  OT    -0.834000       15.9994           0
   32397 WT2  2943 TIP3 H1   HT     0.417000        1.0080           0
   32398 WT2  2943 TIP3 H2   HT     0.417000        1.0080           0
   32399 WT2  2944 TIP3 OH2  OT    -0.834000       15.9994           0
   32400 WT2  2944 TIP3 H1   HT     0.417000        1.0080           0
   32401 WT2  2944 TIP3 H2   HT     0.417000        1.0080           0
   32402 WT2  2945 TIP3 OH2  OT    -0.834000       15.9994           0
   32403 WT2  2945 TIP3 H1   HT     0.417000        1.0080           0
   32404 WT2  2945 TIP3 H2   HT     0.417000        1.0080           0
   32405 WT2  2946 TIP3 OH2  OT    -0.834000       15.9994           0
   32406 WT2  2946 TIP3 H1   HT     0.417000        1.0080           0
   32407 WT2  2946 TIP3 H2   HT     0.417000        1.0080           0
   32408 WT2  2947 TIP3 OH2  OT    -0.834000       15.9994           0
   32409 WT2  2947 TIP3 H1   HT     0.417000        1.0080           0
   32410 WT2  2947 TIP3 H2   HT     0.417000        1.0080           0
   32411 WT2  2948 TIP3 OH2  OT    -0.834000       15.9994           0
   32412 WT2  2948 TIP3 H1   HT     0.417000        1.0080           0
   32413 WT2  2948 TIP3 H2   HT     0.417000        1.0080           0
   32414 WT2  2949 TIP3 OH2  OT    -0.834000       15.9994           0
   32415 WT2  2949 TIP3 H1   HT     0.417000        1.0080           0
   32416 WT2  2949 TIP3 H2   HT     0.417000        1.0080           0
   32417 WT2  2950 TIP3 OH2  OT    -0.834000       15.9994           0
   32418 WT2  2950 TIP3 H1   HT     0.417000        1.0080           0
   32419 WT2  2950 TIP3 H2   HT     0.417000        1.0080           0
   32420 WT2  2951 TIP3 OH2  OT    -0.834000       15.9994           0
   32421 WT2  2951 TIP3 H1   HT     0.417000        1.0080           0
   32422 WT2  2951 TIP3 H2   HT     0.417000        1.0080           0
   32423 WT2  2952 TIP3 OH2  OT    -0.834000       15.9994           0
   32424 WT2  2952 TIP3 H1   HT     0.417000        1.0080           0
   32425 WT2  2952 TIP3 H2   HT     0.417000        1.0080           0
   32426 WT2  2953 TIP3 OH2  OT    -0.834000       15.9994           0
   32427 WT2  2953 TIP3 H1   HT     0.417000        1.0080           0
   32428 WT2  2953 TIP3 H2   HT     0.417000        1.0080           0
   32429 WT2  2954 TIP3 OH2  OT    -0.834000       15.9994           0
   32430 WT2  2954 TIP3 H1   HT     0.417000        1.0080           0
   32431 WT2  2954 TIP3 H2   HT     0.417000        1.0080           0
   32432 WT2  2956 TIP3 OH2  OT    -0.834000       15.9994           0
   32433 WT2  2956 TIP3 H1   HT     0.417000        1.0080           0
   32434 WT2  2956 TIP3 H2   HT     0.417000        1.0080           0
   32435 WT2  2957 TIP3 OH2  OT    -0.834000       15.9994           0
   32436 WT2  2957 TIP3 H1   HT     0.417000        1.0080           0
   32437 WT2  2957 TIP3 H2   HT     0.417000        1.0080           0
   32438 WT2  2959 TIP3 OH2  OT    -0.834000       15.9994           0
   32439 WT2  2959 TIP3 H1   HT     0.417000        1.0080           0
   32440 WT2  2959 TIP3 H2   HT     0.417000        1.0080           0
   32441 WT2  2960 TIP3 OH2  OT    -0.834000       15.9994           0
   32442 WT2  2960 TIP3 H1   HT     0.417000        1.0080           0
   32443 WT2  2960 TIP3 H2   HT     0.417000        1.0080           0
   32444 WT2  2961 TIP3 OH2  OT    -0.834000       15.9994           0
   32445 WT2  2961 TIP3 H1   HT     0.417000        1.0080           0
   32446 WT2  2961 TIP3 H2   HT     0.417000        1.0080           0
   32447 WT2  2962 TIP3 OH2  OT    -0.834000       15.9994           0
   32448 WT2  2962 TIP3 H1   HT     0.417000        1.0080           0
   32449 WT2  2962 TIP3 H2   HT     0.417000        1.0080           0
   32450 WT2  2963 TIP3 OH2  OT    -0.834000       15.9994           0
   32451 WT2  2963 TIP3 H1   HT     0.417000        1.0080           0
   32452 WT2  2963 TIP3 H2   HT     0.417000        1.0080           0
   32453 WT2  2964 TIP3 OH2  OT    -0.834000       15.9994           0
   32454 WT2  2964 TIP3 H1   HT     0.417000        1.0080           0
   32455 WT2  2964 TIP3 H2   HT     0.417000        1.0080           0
   32456 WT2  2966 TIP3 OH2  OT    -0.834000       15.9994           0
   32457 WT2  2966 TIP3 H1   HT     0.417000        1.0080           0
   32458 WT2  2966 TIP3 H2   HT     0.417000        1.0080           0
   32459 WT2  2967 TIP3 OH2  OT    -0.834000       15.9994           0
   32460 WT2  2967 TIP3 H1   HT     0.417000        1.0080           0
   32461 WT2  2967 TIP3 H2   HT     0.417000        1.0080           0
   32462 WT2  2968 TIP3 OH2  OT    -0.834000       15.9994           0
   32463 WT2  2968 TIP3 H1   HT     0.417000        1.0080           0
   32464 WT2  2968 TIP3 H2   HT     0.417000        1.0080           0
   32465 WT2  2969 TIP3 OH2  OT    -0.834000       15.9994           0
   32466 WT2  2969 TIP3 H1   HT     0.417000        1.0080           0
   32467 WT2  2969 TIP3 H2   HT     0.417000        1.0080           0
   32468 WT2  2970 TIP3 OH2  OT    -0.834000       15.9994           0
   32469 WT2  2970 TIP3 H1   HT     0.417000        1.0080           0
   32470 WT2  2970 TIP3 H2   HT     0.417000        1.0080           0
   32471 WT2  2971 TIP3 OH2  OT    -0.834000       15.9994           0
   32472 WT2  2971 TIP3 H1   HT     0.417000        1.0080           0
   32473 WT2  2971 TIP3 H2   HT     0.417000        1.0080           0
   32474 WT2  2972 TIP3 OH2  OT    -0.834000       15.9994           0
   32475 WT2  2972 TIP3 H1   HT     0.417000        1.0080           0
   32476 WT2  2972 TIP3 H2   HT     0.417000        1.0080           0
   32477 WT2  2973 TIP3 OH2  OT    -0.834000       15.9994           0
   32478 WT2  2973 TIP3 H1   HT     0.417000        1.0080           0
   32479 WT2  2973 TIP3 H2   HT     0.417000        1.0080           0
   32480 WT2  2974 TIP3 OH2  OT    -0.834000       15.9994           0
   32481 WT2  2974 TIP3 H1   HT     0.417000        1.0080           0
   32482 WT2  2974 TIP3 H2   HT     0.417000        1.0080           0
   32483 WT2  2976 TIP3 OH2  OT    -0.834000       15.9994           0
   32484 WT2  2976 TIP3 H1   HT     0.417000        1.0080           0
   32485 WT2  2976 TIP3 H2   HT     0.417000        1.0080           0
   32486 WT2  2977 TIP3 OH2  OT    -0.834000       15.9994           0
   32487 WT2  2977 TIP3 H1   HT     0.417000        1.0080           0
   32488 WT2  2977 TIP3 H2   HT     0.417000        1.0080           0
   32489 WT2  2978 TIP3 OH2  OT    -0.834000       15.9994           0
   32490 WT2  2978 TIP3 H1   HT     0.417000        1.0080           0
   32491 WT2  2978 TIP3 H2   HT     0.417000        1.0080           0
   32492 WT2  2979 TIP3 OH2  OT    -0.834000       15.9994           0
   32493 WT2  2979 TIP3 H1   HT     0.417000        1.0080           0
   32494 WT2  2979 TIP3 H2   HT     0.417000        1.0080           0
   32495 WT2  2981 TIP3 OH2  OT    -0.834000       15.9994           0
   32496 WT2  2981 TIP3 H1   HT     0.417000        1.0080           0
   32497 WT2  2981 TIP3 H2   HT     0.417000        1.0080           0
   32498 WT2  2982 TIP3 OH2  OT    -0.834000       15.9994           0
   32499 WT2  2982 TIP3 H1   HT     0.417000        1.0080           0
   32500 WT2  2982 TIP3 H2   HT     0.417000        1.0080           0
   32501 WT2  2983 TIP3 OH2  OT    -0.834000       15.9994           0
   32502 WT2  2983 TIP3 H1   HT     0.417000        1.0080           0
   32503 WT2  2983 TIP3 H2   HT     0.417000        1.0080           0
   32504 WT2  2984 TIP3 OH2  OT    -0.834000       15.9994           0
   32505 WT2  2984 TIP3 H1   HT     0.417000        1.0080           0
   32506 WT2  2984 TIP3 H2   HT     0.417000        1.0080           0
   32507 WT2  2985 TIP3 OH2  OT    -0.834000       15.9994           0
   32508 WT2  2985 TIP3 H1   HT     0.417000        1.0080           0
   32509 WT2  2985 TIP3 H2   HT     0.417000        1.0080           0
   32510 WT2  2986 TIP3 OH2  OT    -0.834000       15.9994           0
   32511 WT2  2986 TIP3 H1   HT     0.417000        1.0080           0
   32512 WT2  2986 TIP3 H2   HT     0.417000        1.0080           0
   32513 WT2  2987 TIP3 OH2  OT    -0.834000       15.9994           0
   32514 WT2  2987 TIP3 H1   HT     0.417000        1.0080           0
   32515 WT2  2987 TIP3 H2   HT     0.417000        1.0080           0
   32516 WT2  2988 TIP3 OH2  OT    -0.834000       15.9994           0
   32517 WT2  2988 TIP3 H1   HT     0.417000        1.0080           0
   32518 WT2  2988 TIP3 H2   HT     0.417000        1.0080           0
   32519 WT2  2989 TIP3 OH2  OT    -0.834000       15.9994           0
   32520 WT2  2989 TIP3 H1   HT     0.417000        1.0080           0
   32521 WT2  2989 TIP3 H2   HT     0.417000        1.0080           0
   32522 WT2  2990 TIP3 OH2  OT    -0.834000       15.9994           0
   32523 WT2  2990 TIP3 H1   HT     0.417000        1.0080           0
   32524 WT2  2990 TIP3 H2   HT     0.417000        1.0080           0
   32525 WT2  2991 TIP3 OH2  OT    -0.834000       15.9994           0
   32526 WT2  2991 TIP3 H1   HT     0.417000        1.0080           0
   32527 WT2  2991 TIP3 H2   HT     0.417000        1.0080           0
   32528 WT2  2993 TIP3 OH2  OT    -0.834000       15.9994           0
   32529 WT2  2993 TIP3 H1   HT     0.417000        1.0080           0
   32530 WT2  2993 TIP3 H2   HT     0.417000        1.0080           0
   32531 WT2  2995 TIP3 OH2  OT    -0.834000       15.9994           0
   32532 WT2  2995 TIP3 H1   HT     0.417000        1.0080           0
   32533 WT2  2995 TIP3 H2   HT     0.417000        1.0080           0
   32534 WT2  2996 TIP3 OH2  OT    -0.834000       15.9994           0
   32535 WT2  2996 TIP3 H1   HT     0.417000        1.0080           0
   32536 WT2  2996 TIP3 H2   HT     0.417000        1.0080           0
   32537 WT2  2997 TIP3 OH2  OT    -0.834000       15.9994           0
   32538 WT2  2997 TIP3 H1   HT     0.417000        1.0080           0
   32539 WT2  2997 TIP3 H2   HT     0.417000        1.0080           0
   32540 WT2  2998 TIP3 OH2  OT    -0.834000       15.9994           0
   32541 WT2  2998 TIP3 H1   HT     0.417000        1.0080           0
   32542 WT2  2998 TIP3 H2   HT     0.417000        1.0080           0
   32543 WT2  2999 TIP3 OH2  OT    -0.834000       15.9994           0
   32544 WT2  2999 TIP3 H1   HT     0.417000        1.0080           0
   32545 WT2  2999 TIP3 H2   HT     0.417000        1.0080           0
   32546 WT2  3000 TIP3 OH2  OT    -0.834000       15.9994           0
   32547 WT2  3000 TIP3 H1   HT     0.417000        1.0080           0
   32548 WT2  3000 TIP3 H2   HT     0.417000        1.0080           0
   32549 WT2  3001 TIP3 OH2  OT    -0.834000       15.9994           0
   32550 WT2  3001 TIP3 H1   HT     0.417000        1.0080           0
   32551 WT2  3001 TIP3 H2   HT     0.417000        1.0080           0
   32552 WT2  3003 TIP3 OH2  OT    -0.834000       15.9994           0
   32553 WT2  3003 TIP3 H1   HT     0.417000        1.0080           0
   32554 WT2  3003 TIP3 H2   HT     0.417000        1.0080           0
   32555 WT2  3004 TIP3 OH2  OT    -0.834000       15.9994           0
   32556 WT2  3004 TIP3 H1   HT     0.417000        1.0080           0
   32557 WT2  3004 TIP3 H2   HT     0.417000        1.0080           0
   32558 WT2  3005 TIP3 OH2  OT    -0.834000       15.9994           0
   32559 WT2  3005 TIP3 H1   HT     0.417000        1.0080           0
   32560 WT2  3005 TIP3 H2   HT     0.417000        1.0080           0
   32561 WT2  3006 TIP3 OH2  OT    -0.834000       15.9994           0
   32562 WT2  3006 TIP3 H1   HT     0.417000        1.0080           0
   32563 WT2  3006 TIP3 H2   HT     0.417000        1.0080           0
   32564 WT2  3007 TIP3 OH2  OT    -0.834000       15.9994           0
   32565 WT2  3007 TIP3 H1   HT     0.417000        1.0080           0
   32566 WT2  3007 TIP3 H2   HT     0.417000        1.0080           0
   32567 WT2  3008 TIP3 OH2  OT    -0.834000       15.9994           0
   32568 WT2  3008 TIP3 H1   HT     0.417000        1.0080           0
   32569 WT2  3008 TIP3 H2   HT     0.417000        1.0080           0
   32570 WT2  3009 TIP3 OH2  OT    -0.834000       15.9994           0
   32571 WT2  3009 TIP3 H1   HT     0.417000        1.0080           0
   32572 WT2  3009 TIP3 H2   HT     0.417000        1.0080           0
   32573 WT2  3011 TIP3 OH2  OT    -0.834000       15.9994           0
   32574 WT2  3011 TIP3 H1   HT     0.417000        1.0080           0
   32575 WT2  3011 TIP3 H2   HT     0.417000        1.0080           0
   32576 WT2  3012 TIP3 OH2  OT    -0.834000       15.9994           0
   32577 WT2  3012 TIP3 H1   HT     0.417000        1.0080           0
   32578 WT2  3012 TIP3 H2   HT     0.417000        1.0080           0
   32579 WT2  3013 TIP3 OH2  OT    -0.834000       15.9994           0
   32580 WT2  3013 TIP3 H1   HT     0.417000        1.0080           0
   32581 WT2  3013 TIP3 H2   HT     0.417000        1.0080           0
   32582 WT2  3014 TIP3 OH2  OT    -0.834000       15.9994           0
   32583 WT2  3014 TIP3 H1   HT     0.417000        1.0080           0
   32584 WT2  3014 TIP3 H2   HT     0.417000        1.0080           0
   32585 WT2  3015 TIP3 OH2  OT    -0.834000       15.9994           0
   32586 WT2  3015 TIP3 H1   HT     0.417000        1.0080           0
   32587 WT2  3015 TIP3 H2   HT     0.417000        1.0080           0
   32588 WT2  3016 TIP3 OH2  OT    -0.834000       15.9994           0
   32589 WT2  3016 TIP3 H1   HT     0.417000        1.0080           0
   32590 WT2  3016 TIP3 H2   HT     0.417000        1.0080           0
   32591 WT2  3018 TIP3 OH2  OT    -0.834000       15.9994           0
   32592 WT2  3018 TIP3 H1   HT     0.417000        1.0080           0
   32593 WT2  3018 TIP3 H2   HT     0.417000        1.0080           0
   32594 WT2  3019 TIP3 OH2  OT    -0.834000       15.9994           0
   32595 WT2  3019 TIP3 H1   HT     0.417000        1.0080           0
   32596 WT2  3019 TIP3 H2   HT     0.417000        1.0080           0
   32597 WT2  3020 TIP3 OH2  OT    -0.834000       15.9994           0
   32598 WT2  3020 TIP3 H1   HT     0.417000        1.0080           0
   32599 WT2  3020 TIP3 H2   HT     0.417000        1.0080           0
   32600 WT2  3021 TIP3 OH2  OT    -0.834000       15.9994           0
   32601 WT2  3021 TIP3 H1   HT     0.417000        1.0080           0
   32602 WT2  3021 TIP3 H2   HT     0.417000        1.0080           0
   32603 WT2  3022 TIP3 OH2  OT    -0.834000       15.9994           0
   32604 WT2  3022 TIP3 H1   HT     0.417000        1.0080           0
   32605 WT2  3022 TIP3 H2   HT     0.417000        1.0080           0
   32606 WT2  3023 TIP3 OH2  OT    -0.834000       15.9994           0
   32607 WT2  3023 TIP3 H1   HT     0.417000        1.0080           0
   32608 WT2  3023 TIP3 H2   HT     0.417000        1.0080           0
   32609 WT2  3024 TIP3 OH2  OT    -0.834000       15.9994           0
   32610 WT2  3024 TIP3 H1   HT     0.417000        1.0080           0
   32611 WT2  3024 TIP3 H2   HT     0.417000        1.0080           0
   32612 WT2  3025 TIP3 OH2  OT    -0.834000       15.9994           0
   32613 WT2  3025 TIP3 H1   HT     0.417000        1.0080           0
   32614 WT2  3025 TIP3 H2   HT     0.417000        1.0080           0
   32615 WT2  3026 TIP3 OH2  OT    -0.834000       15.9994           0
   32616 WT2  3026 TIP3 H1   HT     0.417000        1.0080           0
   32617 WT2  3026 TIP3 H2   HT     0.417000        1.0080           0
   32618 WT2  3027 TIP3 OH2  OT    -0.834000       15.9994           0
   32619 WT2  3027 TIP3 H1   HT     0.417000        1.0080           0
   32620 WT2  3027 TIP3 H2   HT     0.417000        1.0080           0
   32621 WT2  3028 TIP3 OH2  OT    -0.834000       15.9994           0
   32622 WT2  3028 TIP3 H1   HT     0.417000        1.0080           0
   32623 WT2  3028 TIP3 H2   HT     0.417000        1.0080           0
   32624 WT2  3029 TIP3 OH2  OT    -0.834000       15.9994           0
   32625 WT2  3029 TIP3 H1   HT     0.417000        1.0080           0
   32626 WT2  3029 TIP3 H2   HT     0.417000        1.0080           0
   32627 WT2  3030 TIP3 OH2  OT    -0.834000       15.9994           0
   32628 WT2  3030 TIP3 H1   HT     0.417000        1.0080           0
   32629 WT2  3030 TIP3 H2   HT     0.417000        1.0080           0
   32630 WT2  3031 TIP3 OH2  OT    -0.834000       15.9994           0
   32631 WT2  3031 TIP3 H1   HT     0.417000        1.0080           0
   32632 WT2  3031 TIP3 H2   HT     0.417000        1.0080           0
   32633 WT2  3032 TIP3 OH2  OT    -0.834000       15.9994           0
   32634 WT2  3032 TIP3 H1   HT     0.417000        1.0080           0
   32635 WT2  3032 TIP3 H2   HT     0.417000        1.0080           0
   32636 WT2  3034 TIP3 OH2  OT    -0.834000       15.9994           0
   32637 WT2  3034 TIP3 H1   HT     0.417000        1.0080           0
   32638 WT2  3034 TIP3 H2   HT     0.417000        1.0080           0
   32639 WT2  3035 TIP3 OH2  OT    -0.834000       15.9994           0
   32640 WT2  3035 TIP3 H1   HT     0.417000        1.0080           0
   32641 WT2  3035 TIP3 H2   HT     0.417000        1.0080           0
   32642 WT2  3037 TIP3 OH2  OT    -0.834000       15.9994           0
   32643 WT2  3037 TIP3 H1   HT     0.417000        1.0080           0
   32644 WT2  3037 TIP3 H2   HT     0.417000        1.0080           0
   32645 WT2  3038 TIP3 OH2  OT    -0.834000       15.9994           0
   32646 WT2  3038 TIP3 H1   HT     0.417000        1.0080           0
   32647 WT2  3038 TIP3 H2   HT     0.417000        1.0080           0
   32648 WT2  3039 TIP3 OH2  OT    -0.834000       15.9994           0
   32649 WT2  3039 TIP3 H1   HT     0.417000        1.0080           0
   32650 WT2  3039 TIP3 H2   HT     0.417000        1.0080           0
   32651 WT2  3041 TIP3 OH2  OT    -0.834000       15.9994           0
   32652 WT2  3041 TIP3 H1   HT     0.417000        1.0080           0
   32653 WT2  3041 TIP3 H2   HT     0.417000        1.0080           0
   32654 WT2  3042 TIP3 OH2  OT    -0.834000       15.9994           0
   32655 WT2  3042 TIP3 H1   HT     0.417000        1.0080           0
   32656 WT2  3042 TIP3 H2   HT     0.417000        1.0080           0
   32657 WT2  3044 TIP3 OH2  OT    -0.834000       15.9994           0
   32658 WT2  3044 TIP3 H1   HT     0.417000        1.0080           0
   32659 WT2  3044 TIP3 H2   HT     0.417000        1.0080           0
   32660 WT2  3046 TIP3 OH2  OT    -0.834000       15.9994           0
   32661 WT2  3046 TIP3 H1   HT     0.417000        1.0080           0
   32662 WT2  3046 TIP3 H2   HT     0.417000        1.0080           0
   32663 WT2  3047 TIP3 OH2  OT    -0.834000       15.9994           0
   32664 WT2  3047 TIP3 H1   HT     0.417000        1.0080           0
   32665 WT2  3047 TIP3 H2   HT     0.417000        1.0080           0
   32666 WT2  3048 TIP3 OH2  OT    -0.834000       15.9994           0
   32667 WT2  3048 TIP3 H1   HT     0.417000        1.0080           0
   32668 WT2  3048 TIP3 H2   HT     0.417000        1.0080           0
   32669 WT2  3049 TIP3 OH2  OT    -0.834000       15.9994           0
   32670 WT2  3049 TIP3 H1   HT     0.417000        1.0080           0
   32671 WT2  3049 TIP3 H2   HT     0.417000        1.0080           0
   32672 WT2  3050 TIP3 OH2  OT    -0.834000       15.9994           0
   32673 WT2  3050 TIP3 H1   HT     0.417000        1.0080           0
   32674 WT2  3050 TIP3 H2   HT     0.417000        1.0080           0
   32675 WT2  3051 TIP3 OH2  OT    -0.834000       15.9994           0
   32676 WT2  3051 TIP3 H1   HT     0.417000        1.0080           0
   32677 WT2  3051 TIP3 H2   HT     0.417000        1.0080           0
   32678 WT2  3052 TIP3 OH2  OT    -0.834000       15.9994           0
   32679 WT2  3052 TIP3 H1   HT     0.417000        1.0080           0
   32680 WT2  3052 TIP3 H2   HT     0.417000        1.0080           0
   32681 WT2  3054 TIP3 OH2  OT    -0.834000       15.9994           0
   32682 WT2  3054 TIP3 H1   HT     0.417000        1.0080           0
   32683 WT2  3054 TIP3 H2   HT     0.417000        1.0080           0
   32684 WT2  3055 TIP3 OH2  OT    -0.834000       15.9994           0
   32685 WT2  3055 TIP3 H1   HT     0.417000        1.0080           0
   32686 WT2  3055 TIP3 H2   HT     0.417000        1.0080           0
   32687 WT2  3056 TIP3 OH2  OT    -0.834000       15.9994           0
   32688 WT2  3056 TIP3 H1   HT     0.417000        1.0080           0
   32689 WT2  3056 TIP3 H2   HT     0.417000        1.0080           0
   32690 WT2  3057 TIP3 OH2  OT    -0.834000       15.9994           0
   32691 WT2  3057 TIP3 H1   HT     0.417000        1.0080           0
   32692 WT2  3057 TIP3 H2   HT     0.417000        1.0080           0
   32693 WT2  3059 TIP3 OH2  OT    -0.834000       15.9994           0
   32694 WT2  3059 TIP3 H1   HT     0.417000        1.0080           0
   32695 WT2  3059 TIP3 H2   HT     0.417000        1.0080           0
   32696 WT2  3060 TIP3 OH2  OT    -0.834000       15.9994           0
   32697 WT2  3060 TIP3 H1   HT     0.417000        1.0080           0
   32698 WT2  3060 TIP3 H2   HT     0.417000        1.0080           0
   32699 WT2  3061 TIP3 OH2  OT    -0.834000       15.9994           0
   32700 WT2  3061 TIP3 H1   HT     0.417000        1.0080           0
   32701 WT2  3061 TIP3 H2   HT     0.417000        1.0080           0
   32702 WT2  3062 TIP3 OH2  OT    -0.834000       15.9994           0
   32703 WT2  3062 TIP3 H1   HT     0.417000        1.0080           0
   32704 WT2  3062 TIP3 H2   HT     0.417000        1.0080           0
   32705 WT2  3064 TIP3 OH2  OT    -0.834000       15.9994           0
   32706 WT2  3064 TIP3 H1   HT     0.417000        1.0080           0
   32707 WT2  3064 TIP3 H2   HT     0.417000        1.0080           0
   32708 WT2  3065 TIP3 OH2  OT    -0.834000       15.9994           0
   32709 WT2  3065 TIP3 H1   HT     0.417000        1.0080           0
   32710 WT2  3065 TIP3 H2   HT     0.417000        1.0080           0
   32711 WT2  3066 TIP3 OH2  OT    -0.834000       15.9994           0
   32712 WT2  3066 TIP3 H1   HT     0.417000        1.0080           0
   32713 WT2  3066 TIP3 H2   HT     0.417000        1.0080           0
   32714 WT2  3067 TIP3 OH2  OT    -0.834000       15.9994           0
   32715 WT2  3067 TIP3 H1   HT     0.417000        1.0080           0
   32716 WT2  3067 TIP3 H2   HT     0.417000        1.0080           0
   32717 WT2  3069 TIP3 OH2  OT    -0.834000       15.9994           0
   32718 WT2  3069 TIP3 H1   HT     0.417000        1.0080           0
   32719 WT2  3069 TIP3 H2   HT     0.417000        1.0080           0
   32720 WT2  3070 TIP3 OH2  OT    -0.834000       15.9994           0
   32721 WT2  3070 TIP3 H1   HT     0.417000        1.0080           0
   32722 WT2  3070 TIP3 H2   HT     0.417000        1.0080           0
   32723 WT2  3071 TIP3 OH2  OT    -0.834000       15.9994           0
   32724 WT2  3071 TIP3 H1   HT     0.417000        1.0080           0
   32725 WT2  3071 TIP3 H2   HT     0.417000        1.0080           0
   32726 WT2  3072 TIP3 OH2  OT    -0.834000       15.9994           0
   32727 WT2  3072 TIP3 H1   HT     0.417000        1.0080           0
   32728 WT2  3072 TIP3 H2   HT     0.417000        1.0080           0
   32729 WT2  3073 TIP3 OH2  OT    -0.834000       15.9994           0
   32730 WT2  3073 TIP3 H1   HT     0.417000        1.0080           0
   32731 WT2  3073 TIP3 H2   HT     0.417000        1.0080           0
   32732 WT2  3074 TIP3 OH2  OT    -0.834000       15.9994           0
   32733 WT2  3074 TIP3 H1   HT     0.417000        1.0080           0
   32734 WT2  3074 TIP3 H2   HT     0.417000        1.0080           0
   32735 WT2  3075 TIP3 OH2  OT    -0.834000       15.9994           0
   32736 WT2  3075 TIP3 H1   HT     0.417000        1.0080           0
   32737 WT2  3075 TIP3 H2   HT     0.417000        1.0080           0
   32738 WT2  3077 TIP3 OH2  OT    -0.834000       15.9994           0
   32739 WT2  3077 TIP3 H1   HT     0.417000        1.0080           0
   32740 WT2  3077 TIP3 H2   HT     0.417000        1.0080           0
   32741 WT2  3078 TIP3 OH2  OT    -0.834000       15.9994           0
   32742 WT2  3078 TIP3 H1   HT     0.417000        1.0080           0
   32743 WT2  3078 TIP3 H2   HT     0.417000        1.0080           0
   32744 WT2  3079 TIP3 OH2  OT    -0.834000       15.9994           0
   32745 WT2  3079 TIP3 H1   HT     0.417000        1.0080           0
   32746 WT2  3079 TIP3 H2   HT     0.417000        1.0080           0
   32747 WT2  3080 TIP3 OH2  OT    -0.834000       15.9994           0
   32748 WT2  3080 TIP3 H1   HT     0.417000        1.0080           0
   32749 WT2  3080 TIP3 H2   HT     0.417000        1.0080           0
   32750 WT2  3081 TIP3 OH2  OT    -0.834000       15.9994           0
   32751 WT2  3081 TIP3 H1   HT     0.417000        1.0080           0
   32752 WT2  3081 TIP3 H2   HT     0.417000        1.0080           0
   32753 WT2  3082 TIP3 OH2  OT    -0.834000       15.9994           0
   32754 WT2  3082 TIP3 H1   HT     0.417000        1.0080           0
   32755 WT2  3082 TIP3 H2   HT     0.417000        1.0080           0
   32756 WT2  3083 TIP3 OH2  OT    -0.834000       15.9994           0
   32757 WT2  3083 TIP3 H1   HT     0.417000        1.0080           0
   32758 WT2  3083 TIP3 H2   HT     0.417000        1.0080           0
   32759 WT2  3084 TIP3 OH2  OT    -0.834000       15.9994           0
   32760 WT2  3084 TIP3 H1   HT     0.417000        1.0080           0
   32761 WT2  3084 TIP3 H2   HT     0.417000        1.0080           0
   32762 WT2  3087 TIP3 OH2  OT    -0.834000       15.9994           0
   32763 WT2  3087 TIP3 H1   HT     0.417000        1.0080           0
   32764 WT2  3087 TIP3 H2   HT     0.417000        1.0080           0
   32765 WT2  3088 TIP3 OH2  OT    -0.834000       15.9994           0
   32766 WT2  3088 TIP3 H1   HT     0.417000        1.0080           0
   32767 WT2  3088 TIP3 H2   HT     0.417000        1.0080           0
   32768 WT2  3089 TIP3 OH2  OT    -0.834000       15.9994           0
   32769 WT2  3089 TIP3 H1   HT     0.417000        1.0080           0
   32770 WT2  3089 TIP3 H2   HT     0.417000        1.0080           0
   32771 WT2  3091 TIP3 OH2  OT    -0.834000       15.9994           0
   32772 WT2  3091 TIP3 H1   HT     0.417000        1.0080           0
   32773 WT2  3091 TIP3 H2   HT     0.417000        1.0080           0
   32774 WT2  3092 TIP3 OH2  OT    -0.834000       15.9994           0
   32775 WT2  3092 TIP3 H1   HT     0.417000        1.0080           0
   32776 WT2  3092 TIP3 H2   HT     0.417000        1.0080           0
   32777 WT2  3093 TIP3 OH2  OT    -0.834000       15.9994           0
   32778 WT2  3093 TIP3 H1   HT     0.417000        1.0080           0
   32779 WT2  3093 TIP3 H2   HT     0.417000        1.0080           0
   32780 WT2  3095 TIP3 OH2  OT    -0.834000       15.9994           0
   32781 WT2  3095 TIP3 H1   HT     0.417000        1.0080           0
   32782 WT2  3095 TIP3 H2   HT     0.417000        1.0080           0
   32783 WT2  3096 TIP3 OH2  OT    -0.834000       15.9994           0
   32784 WT2  3096 TIP3 H1   HT     0.417000        1.0080           0
   32785 WT2  3096 TIP3 H2   HT     0.417000        1.0080           0
   32786 WT2  3098 TIP3 OH2  OT    -0.834000       15.9994           0
   32787 WT2  3098 TIP3 H1   HT     0.417000        1.0080           0
   32788 WT2  3098 TIP3 H2   HT     0.417000        1.0080           0
   32789 WT2  3100 TIP3 OH2  OT    -0.834000       15.9994           0
   32790 WT2  3100 TIP3 H1   HT     0.417000        1.0080           0
   32791 WT2  3100 TIP3 H2   HT     0.417000        1.0080           0
   32792 WT2  3103 TIP3 OH2  OT    -0.834000       15.9994           0
   32793 WT2  3103 TIP3 H1   HT     0.417000        1.0080           0
   32794 WT2  3103 TIP3 H2   HT     0.417000        1.0080           0
   32795 WT2  3104 TIP3 OH2  OT    -0.834000       15.9994           0
   32796 WT2  3104 TIP3 H1   HT     0.417000        1.0080           0
   32797 WT2  3104 TIP3 H2   HT     0.417000        1.0080           0
   32798 WT2  3105 TIP3 OH2  OT    -0.834000       15.9994           0
   32799 WT2  3105 TIP3 H1   HT     0.417000        1.0080           0
   32800 WT2  3105 TIP3 H2   HT     0.417000        1.0080           0
   32801 WT2  3106 TIP3 OH2  OT    -0.834000       15.9994           0
   32802 WT2  3106 TIP3 H1   HT     0.417000        1.0080           0
   32803 WT2  3106 TIP3 H2   HT     0.417000        1.0080           0
   32804 WT2  3107 TIP3 OH2  OT    -0.834000       15.9994           0
   32805 WT2  3107 TIP3 H1   HT     0.417000        1.0080           0
   32806 WT2  3107 TIP3 H2   HT     0.417000        1.0080           0
   32807 WT2  3108 TIP3 OH2  OT    -0.834000       15.9994           0
   32808 WT2  3108 TIP3 H1   HT     0.417000        1.0080           0
   32809 WT2  3108 TIP3 H2   HT     0.417000        1.0080           0
   32810 WT2  3109 TIP3 OH2  OT    -0.834000       15.9994           0
   32811 WT2  3109 TIP3 H1   HT     0.417000        1.0080           0
   32812 WT2  3109 TIP3 H2   HT     0.417000        1.0080           0
   32813 WT2  3111 TIP3 OH2  OT    -0.834000       15.9994           0
   32814 WT2  3111 TIP3 H1   HT     0.417000        1.0080           0
   32815 WT2  3111 TIP3 H2   HT     0.417000        1.0080           0
   32816 WT2  3112 TIP3 OH2  OT    -0.834000       15.9994           0
   32817 WT2  3112 TIP3 H1   HT     0.417000        1.0080           0
   32818 WT2  3112 TIP3 H2   HT     0.417000        1.0080           0
   32819 WT2  3113 TIP3 OH2  OT    -0.834000       15.9994           0
   32820 WT2  3113 TIP3 H1   HT     0.417000        1.0080           0
   32821 WT2  3113 TIP3 H2   HT     0.417000        1.0080           0
   32822 WT2  3114 TIP3 OH2  OT    -0.834000       15.9994           0
   32823 WT2  3114 TIP3 H1   HT     0.417000        1.0080           0
   32824 WT2  3114 TIP3 H2   HT     0.417000        1.0080           0
   32825 WT2  3115 TIP3 OH2  OT    -0.834000       15.9994           0
   32826 WT2  3115 TIP3 H1   HT     0.417000        1.0080           0
   32827 WT2  3115 TIP3 H2   HT     0.417000        1.0080           0
   32828 WT2  3116 TIP3 OH2  OT    -0.834000       15.9994           0
   32829 WT2  3116 TIP3 H1   HT     0.417000        1.0080           0
   32830 WT2  3116 TIP3 H2   HT     0.417000        1.0080           0
   32831 WT2  3118 TIP3 OH2  OT    -0.834000       15.9994           0
   32832 WT2  3118 TIP3 H1   HT     0.417000        1.0080           0
   32833 WT2  3118 TIP3 H2   HT     0.417000        1.0080           0
   32834 WT2  3119 TIP3 OH2  OT    -0.834000       15.9994           0
   32835 WT2  3119 TIP3 H1   HT     0.417000        1.0080           0
   32836 WT2  3119 TIP3 H2   HT     0.417000        1.0080           0
   32837 WT2  3120 TIP3 OH2  OT    -0.834000       15.9994           0
   32838 WT2  3120 TIP3 H1   HT     0.417000        1.0080           0
   32839 WT2  3120 TIP3 H2   HT     0.417000        1.0080           0
   32840 WT2  3121 TIP3 OH2  OT    -0.834000       15.9994           0
   32841 WT2  3121 TIP3 H1   HT     0.417000        1.0080           0
   32842 WT2  3121 TIP3 H2   HT     0.417000        1.0080           0
   32843 WT2  3122 TIP3 OH2  OT    -0.834000       15.9994           0
   32844 WT2  3122 TIP3 H1   HT     0.417000        1.0080           0
   32845 WT2  3122 TIP3 H2   HT     0.417000        1.0080           0
   32846 WT2  3123 TIP3 OH2  OT    -0.834000       15.9994           0
   32847 WT2  3123 TIP3 H1   HT     0.417000        1.0080           0
   32848 WT2  3123 TIP3 H2   HT     0.417000        1.0080           0
   32849 WT2  3124 TIP3 OH2  OT    -0.834000       15.9994           0
   32850 WT2  3124 TIP3 H1   HT     0.417000        1.0080           0
   32851 WT2  3124 TIP3 H2   HT     0.417000        1.0080           0
   32852 WT2  3127 TIP3 OH2  OT    -0.834000       15.9994           0
   32853 WT2  3127 TIP3 H1   HT     0.417000        1.0080           0
   32854 WT2  3127 TIP3 H2   HT     0.417000        1.0080           0
   32855 WT2  3128 TIP3 OH2  OT    -0.834000       15.9994           0
   32856 WT2  3128 TIP3 H1   HT     0.417000        1.0080           0
   32857 WT2  3128 TIP3 H2   HT     0.417000        1.0080           0
   32858 WT2  3129 TIP3 OH2  OT    -0.834000       15.9994           0
   32859 WT2  3129 TIP3 H1   HT     0.417000        1.0080           0
   32860 WT2  3129 TIP3 H2   HT     0.417000        1.0080           0
   32861 WT2  3130 TIP3 OH2  OT    -0.834000       15.9994           0
   32862 WT2  3130 TIP3 H1   HT     0.417000        1.0080           0
   32863 WT2  3130 TIP3 H2   HT     0.417000        1.0080           0
   32864 WT2  3131 TIP3 OH2  OT    -0.834000       15.9994           0
   32865 WT2  3131 TIP3 H1   HT     0.417000        1.0080           0
   32866 WT2  3131 TIP3 H2   HT     0.417000        1.0080           0
   32867 WT2  3132 TIP3 OH2  OT    -0.834000       15.9994           0
   32868 WT2  3132 TIP3 H1   HT     0.417000        1.0080           0
   32869 WT2  3132 TIP3 H2   HT     0.417000        1.0080           0
   32870 WT2  3134 TIP3 OH2  OT    -0.834000       15.9994           0
   32871 WT2  3134 TIP3 H1   HT     0.417000        1.0080           0
   32872 WT2  3134 TIP3 H2   HT     0.417000        1.0080           0
   32873 WT2  3135 TIP3 OH2  OT    -0.834000       15.9994           0
   32874 WT2  3135 TIP3 H1   HT     0.417000        1.0080           0
   32875 WT2  3135 TIP3 H2   HT     0.417000        1.0080           0
   32876 WT2  3136 TIP3 OH2  OT    -0.834000       15.9994           0
   32877 WT2  3136 TIP3 H1   HT     0.417000        1.0080           0
   32878 WT2  3136 TIP3 H2   HT     0.417000        1.0080           0
   32879 WT2  3137 TIP3 OH2  OT    -0.834000       15.9994           0
   32880 WT2  3137 TIP3 H1   HT     0.417000        1.0080           0
   32881 WT2  3137 TIP3 H2   HT     0.417000        1.0080           0
   32882 WT2  3138 TIP3 OH2  OT    -0.834000       15.9994           0
   32883 WT2  3138 TIP3 H1   HT     0.417000        1.0080           0
   32884 WT2  3138 TIP3 H2   HT     0.417000        1.0080           0
   32885 WT2  3139 TIP3 OH2  OT    -0.834000       15.9994           0
   32886 WT2  3139 TIP3 H1   HT     0.417000        1.0080           0
   32887 WT2  3139 TIP3 H2   HT     0.417000        1.0080           0
   32888 WT2  3140 TIP3 OH2  OT    -0.834000       15.9994           0
   32889 WT2  3140 TIP3 H1   HT     0.417000        1.0080           0
   32890 WT2  3140 TIP3 H2   HT     0.417000        1.0080           0
   32891 WT2  3143 TIP3 OH2  OT    -0.834000       15.9994           0
   32892 WT2  3143 TIP3 H1   HT     0.417000        1.0080           0
   32893 WT2  3143 TIP3 H2   HT     0.417000        1.0080           0
   32894 WT2  3144 TIP3 OH2  OT    -0.834000       15.9994           0
   32895 WT2  3144 TIP3 H1   HT     0.417000        1.0080           0
   32896 WT2  3144 TIP3 H2   HT     0.417000        1.0080           0
   32897 WT2  3145 TIP3 OH2  OT    -0.834000       15.9994           0
   32898 WT2  3145 TIP3 H1   HT     0.417000        1.0080           0
   32899 WT2  3145 TIP3 H2   HT     0.417000        1.0080           0
   32900 WT2  3146 TIP3 OH2  OT    -0.834000       15.9994           0
   32901 WT2  3146 TIP3 H1   HT     0.417000        1.0080           0
   32902 WT2  3146 TIP3 H2   HT     0.417000        1.0080           0
   32903 WT2  3147 TIP3 OH2  OT    -0.834000       15.9994           0
   32904 WT2  3147 TIP3 H1   HT     0.417000        1.0080           0
   32905 WT2  3147 TIP3 H2   HT     0.417000        1.0080           0
   32906 WT2  3148 TIP3 OH2  OT    -0.834000       15.9994           0
   32907 WT2  3148 TIP3 H1   HT     0.417000        1.0080           0
   32908 WT2  3148 TIP3 H2   HT     0.417000        1.0080           0
   32909 WT2  3149 TIP3 OH2  OT    -0.834000       15.9994           0
   32910 WT2  3149 TIP3 H1   HT     0.417000        1.0080           0
   32911 WT2  3149 TIP3 H2   HT     0.417000        1.0080           0
   32912 WT2  3150 TIP3 OH2  OT    -0.834000       15.9994           0
   32913 WT2  3150 TIP3 H1   HT     0.417000        1.0080           0
   32914 WT2  3150 TIP3 H2   HT     0.417000        1.0080           0
   32915 WT2  3151 TIP3 OH2  OT    -0.834000       15.9994           0
   32916 WT2  3151 TIP3 H1   HT     0.417000        1.0080           0
   32917 WT2  3151 TIP3 H2   HT     0.417000        1.0080           0
   32918 WT2  3152 TIP3 OH2  OT    -0.834000       15.9994           0
   32919 WT2  3152 TIP3 H1   HT     0.417000        1.0080           0
   32920 WT2  3152 TIP3 H2   HT     0.417000        1.0080           0
   32921 WT2  3153 TIP3 OH2  OT    -0.834000       15.9994           0
   32922 WT2  3153 TIP3 H1   HT     0.417000        1.0080           0
   32923 WT2  3153 TIP3 H2   HT     0.417000        1.0080           0
   32924 WT2  3154 TIP3 OH2  OT    -0.834000       15.9994           0
   32925 WT2  3154 TIP3 H1   HT     0.417000        1.0080           0
   32926 WT2  3154 TIP3 H2   HT     0.417000        1.0080           0
   32927 WT2  3155 TIP3 OH2  OT    -0.834000       15.9994           0
   32928 WT2  3155 TIP3 H1   HT     0.417000        1.0080           0
   32929 WT2  3155 TIP3 H2   HT     0.417000        1.0080           0
   32930 WT2  3156 TIP3 OH2  OT    -0.834000       15.9994           0
   32931 WT2  3156 TIP3 H1   HT     0.417000        1.0080           0
   32932 WT2  3156 TIP3 H2   HT     0.417000        1.0080           0
   32933 WT2  3157 TIP3 OH2  OT    -0.834000       15.9994           0
   32934 WT2  3157 TIP3 H1   HT     0.417000        1.0080           0
   32935 WT2  3157 TIP3 H2   HT     0.417000        1.0080           0
   32936 WT2  3158 TIP3 OH2  OT    -0.834000       15.9994           0
   32937 WT2  3158 TIP3 H1   HT     0.417000        1.0080           0
   32938 WT2  3158 TIP3 H2   HT     0.417000        1.0080           0
   32939 WT2  3159 TIP3 OH2  OT    -0.834000       15.9994           0
   32940 WT2  3159 TIP3 H1   HT     0.417000        1.0080           0
   32941 WT2  3159 TIP3 H2   HT     0.417000        1.0080           0
   32942 WT2  3161 TIP3 OH2  OT    -0.834000       15.9994           0
   32943 WT2  3161 TIP3 H1   HT     0.417000        1.0080           0
   32944 WT2  3161 TIP3 H2   HT     0.417000        1.0080           0
   32945 WT2  3163 TIP3 OH2  OT    -0.834000       15.9994           0
   32946 WT2  3163 TIP3 H1   HT     0.417000        1.0080           0
   32947 WT2  3163 TIP3 H2   HT     0.417000        1.0080           0
   32948 WT2  3164 TIP3 OH2  OT    -0.834000       15.9994           0
   32949 WT2  3164 TIP3 H1   HT     0.417000        1.0080           0
   32950 WT2  3164 TIP3 H2   HT     0.417000        1.0080           0
   32951 WT2  3165 TIP3 OH2  OT    -0.834000       15.9994           0
   32952 WT2  3165 TIP3 H1   HT     0.417000        1.0080           0
   32953 WT2  3165 TIP3 H2   HT     0.417000        1.0080           0
   32954 WT2  3166 TIP3 OH2  OT    -0.834000       15.9994           0
   32955 WT2  3166 TIP3 H1   HT     0.417000        1.0080           0
   32956 WT2  3166 TIP3 H2   HT     0.417000        1.0080           0
   32957 WT2  3167 TIP3 OH2  OT    -0.834000       15.9994           0
   32958 WT2  3167 TIP3 H1   HT     0.417000        1.0080           0
   32959 WT2  3167 TIP3 H2   HT     0.417000        1.0080           0
   32960 WT2  3168 TIP3 OH2  OT    -0.834000       15.9994           0
   32961 WT2  3168 TIP3 H1   HT     0.417000        1.0080           0
   32962 WT2  3168 TIP3 H2   HT     0.417000        1.0080           0
   32963 WT2  3169 TIP3 OH2  OT    -0.834000       15.9994           0
   32964 WT2  3169 TIP3 H1   HT     0.417000        1.0080           0
   32965 WT2  3169 TIP3 H2   HT     0.417000        1.0080           0
   32966 WT2  3171 TIP3 OH2  OT    -0.834000       15.9994           0
   32967 WT2  3171 TIP3 H1   HT     0.417000        1.0080           0
   32968 WT2  3171 TIP3 H2   HT     0.417000        1.0080           0
   32969 WT2  3172 TIP3 OH2  OT    -0.834000       15.9994           0
   32970 WT2  3172 TIP3 H1   HT     0.417000        1.0080           0
   32971 WT2  3172 TIP3 H2   HT     0.417000        1.0080           0
   32972 WT2  3173 TIP3 OH2  OT    -0.834000       15.9994           0
   32973 WT2  3173 TIP3 H1   HT     0.417000        1.0080           0
   32974 WT2  3173 TIP3 H2   HT     0.417000        1.0080           0
   32975 WT2  3174 TIP3 OH2  OT    -0.834000       15.9994           0
   32976 WT2  3174 TIP3 H1   HT     0.417000        1.0080           0
   32977 WT2  3174 TIP3 H2   HT     0.417000        1.0080           0
   32978 WT2  3175 TIP3 OH2  OT    -0.834000       15.9994           0
   32979 WT2  3175 TIP3 H1   HT     0.417000        1.0080           0
   32980 WT2  3175 TIP3 H2   HT     0.417000        1.0080           0
   32981 WT2  3177 TIP3 OH2  OT    -0.834000       15.9994           0
   32982 WT2  3177 TIP3 H1   HT     0.417000        1.0080           0
   32983 WT2  3177 TIP3 H2   HT     0.417000        1.0080           0
   32984 WT2  3178 TIP3 OH2  OT    -0.834000       15.9994           0
   32985 WT2  3178 TIP3 H1   HT     0.417000        1.0080           0
   32986 WT2  3178 TIP3 H2   HT     0.417000        1.0080           0
   32987 WT2  3179 TIP3 OH2  OT    -0.834000       15.9994           0
   32988 WT2  3179 TIP3 H1   HT     0.417000        1.0080           0
   32989 WT2  3179 TIP3 H2   HT     0.417000        1.0080           0
   32990 WT2  3181 TIP3 OH2  OT    -0.834000       15.9994           0
   32991 WT2  3181 TIP3 H1   HT     0.417000        1.0080           0
   32992 WT2  3181 TIP3 H2   HT     0.417000        1.0080           0
   32993 WT2  3182 TIP3 OH2  OT    -0.834000       15.9994           0
   32994 WT2  3182 TIP3 H1   HT     0.417000        1.0080           0
   32995 WT2  3182 TIP3 H2   HT     0.417000        1.0080           0
   32996 WT2  3183 TIP3 OH2  OT    -0.834000       15.9994           0
   32997 WT2  3183 TIP3 H1   HT     0.417000        1.0080           0
   32998 WT2  3183 TIP3 H2   HT     0.417000        1.0080           0
   32999 WT2  3184 TIP3 OH2  OT    -0.834000       15.9994           0
   33000 WT2  3184 TIP3 H1   HT     0.417000        1.0080           0
   33001 WT2  3184 TIP3 H2   HT     0.417000        1.0080           0
   33002 WT2  3185 TIP3 OH2  OT    -0.834000       15.9994           0
   33003 WT2  3185 TIP3 H1   HT     0.417000        1.0080           0
   33004 WT2  3185 TIP3 H2   HT     0.417000        1.0080           0
   33005 WT2  3186 TIP3 OH2  OT    -0.834000       15.9994           0
   33006 WT2  3186 TIP3 H1   HT     0.417000        1.0080           0
   33007 WT2  3186 TIP3 H2   HT     0.417000        1.0080           0
   33008 WT2  3187 TIP3 OH2  OT    -0.834000       15.9994           0
   33009 WT2  3187 TIP3 H1   HT     0.417000        1.0080           0
   33010 WT2  3187 TIP3 H2   HT     0.417000        1.0080           0
   33011 WT2  3188 TIP3 OH2  OT    -0.834000       15.9994           0
   33012 WT2  3188 TIP3 H1   HT     0.417000        1.0080           0
   33013 WT2  3188 TIP3 H2   HT     0.417000        1.0080           0
   33014 WT2  3190 TIP3 OH2  OT    -0.834000       15.9994           0
   33015 WT2  3190 TIP3 H1   HT     0.417000        1.0080           0
   33016 WT2  3190 TIP3 H2   HT     0.417000        1.0080           0
   33017 WT2  3191 TIP3 OH2  OT    -0.834000       15.9994           0
   33018 WT2  3191 TIP3 H1   HT     0.417000        1.0080           0
   33019 WT2  3191 TIP3 H2   HT     0.417000        1.0080           0
   33020 WT2  3192 TIP3 OH2  OT    -0.834000       15.9994           0
   33021 WT2  3192 TIP3 H1   HT     0.417000        1.0080           0
   33022 WT2  3192 TIP3 H2   HT     0.417000        1.0080           0
   33023 WT2  3193 TIP3 OH2  OT    -0.834000       15.9994           0
   33024 WT2  3193 TIP3 H1   HT     0.417000        1.0080           0
   33025 WT2  3193 TIP3 H2   HT     0.417000        1.0080           0
   33026 WT2  3195 TIP3 OH2  OT    -0.834000       15.9994           0
   33027 WT2  3195 TIP3 H1   HT     0.417000        1.0080           0
   33028 WT2  3195 TIP3 H2   HT     0.417000        1.0080           0
   33029 WT2  3196 TIP3 OH2  OT    -0.834000       15.9994           0
   33030 WT2  3196 TIP3 H1   HT     0.417000        1.0080           0
   33031 WT2  3196 TIP3 H2   HT     0.417000        1.0080           0
   33032 WT2  3197 TIP3 OH2  OT    -0.834000       15.9994           0
   33033 WT2  3197 TIP3 H1   HT     0.417000        1.0080           0
   33034 WT2  3197 TIP3 H2   HT     0.417000        1.0080           0
   33035 WT2  3198 TIP3 OH2  OT    -0.834000       15.9994           0
   33036 WT2  3198 TIP3 H1   HT     0.417000        1.0080           0
   33037 WT2  3198 TIP3 H2   HT     0.417000        1.0080           0
   33038 WT2  3200 TIP3 OH2  OT    -0.834000       15.9994           0
   33039 WT2  3200 TIP3 H1   HT     0.417000        1.0080           0
   33040 WT2  3200 TIP3 H2   HT     0.417000        1.0080           0
   33041 WT2  3201 TIP3 OH2  OT    -0.834000       15.9994           0
   33042 WT2  3201 TIP3 H1   HT     0.417000        1.0080           0
   33043 WT2  3201 TIP3 H2   HT     0.417000        1.0080           0
   33044 WT2  3202 TIP3 OH2  OT    -0.834000       15.9994           0
   33045 WT2  3202 TIP3 H1   HT     0.417000        1.0080           0
   33046 WT2  3202 TIP3 H2   HT     0.417000        1.0080           0
   33047 WT2  3204 TIP3 OH2  OT    -0.834000       15.9994           0
   33048 WT2  3204 TIP3 H1   HT     0.417000        1.0080           0
   33049 WT2  3204 TIP3 H2   HT     0.417000        1.0080           0
   33050 WT2  3205 TIP3 OH2  OT    -0.834000       15.9994           0
   33051 WT2  3205 TIP3 H1   HT     0.417000        1.0080           0
   33052 WT2  3205 TIP3 H2   HT     0.417000        1.0080           0
   33053 WT2  3206 TIP3 OH2  OT    -0.834000       15.9994           0
   33054 WT2  3206 TIP3 H1   HT     0.417000        1.0080           0
   33055 WT2  3206 TIP3 H2   HT     0.417000        1.0080           0
   33056 WT2  3207 TIP3 OH2  OT    -0.834000       15.9994           0
   33057 WT2  3207 TIP3 H1   HT     0.417000        1.0080           0
   33058 WT2  3207 TIP3 H2   HT     0.417000        1.0080           0
   33059 WT2  3208 TIP3 OH2  OT    -0.834000       15.9994           0
   33060 WT2  3208 TIP3 H1   HT     0.417000        1.0080           0
   33061 WT2  3208 TIP3 H2   HT     0.417000        1.0080           0
   33062 WT2  3209 TIP3 OH2  OT    -0.834000       15.9994           0
   33063 WT2  3209 TIP3 H1   HT     0.417000        1.0080           0
   33064 WT2  3209 TIP3 H2   HT     0.417000        1.0080           0
   33065 WT2  3210 TIP3 OH2  OT    -0.834000       15.9994           0
   33066 WT2  3210 TIP3 H1   HT     0.417000        1.0080           0
   33067 WT2  3210 TIP3 H2   HT     0.417000        1.0080           0
   33068 WT2  3211 TIP3 OH2  OT    -0.834000       15.9994           0
   33069 WT2  3211 TIP3 H1   HT     0.417000        1.0080           0
   33070 WT2  3211 TIP3 H2   HT     0.417000        1.0080           0
   33071 WT2  3212 TIP3 OH2  OT    -0.834000       15.9994           0
   33072 WT2  3212 TIP3 H1   HT     0.417000        1.0080           0
   33073 WT2  3212 TIP3 H2   HT     0.417000        1.0080           0
   33074 WT2  3213 TIP3 OH2  OT    -0.834000       15.9994           0
   33075 WT2  3213 TIP3 H1   HT     0.417000        1.0080           0
   33076 WT2  3213 TIP3 H2   HT     0.417000        1.0080           0
   33077 WT2  3214 TIP3 OH2  OT    -0.834000       15.9994           0
   33078 WT2  3214 TIP3 H1   HT     0.417000        1.0080           0
   33079 WT2  3214 TIP3 H2   HT     0.417000        1.0080           0
   33080 WT2  3215 TIP3 OH2  OT    -0.834000       15.9994           0
   33081 WT2  3215 TIP3 H1   HT     0.417000        1.0080           0
   33082 WT2  3215 TIP3 H2   HT     0.417000        1.0080           0
   33083 WT2  3216 TIP3 OH2  OT    -0.834000       15.9994           0
   33084 WT2  3216 TIP3 H1   HT     0.417000        1.0080           0
   33085 WT2  3216 TIP3 H2   HT     0.417000        1.0080           0
   33086 WT2  3219 TIP3 OH2  OT    -0.834000       15.9994           0
   33087 WT2  3219 TIP3 H1   HT     0.417000        1.0080           0
   33088 WT2  3219 TIP3 H2   HT     0.417000        1.0080           0
   33089 WT2  3220 TIP3 OH2  OT    -0.834000       15.9994           0
   33090 WT2  3220 TIP3 H1   HT     0.417000        1.0080           0
   33091 WT2  3220 TIP3 H2   HT     0.417000        1.0080           0
   33092 WT2  3221 TIP3 OH2  OT    -0.834000       15.9994           0
   33093 WT2  3221 TIP3 H1   HT     0.417000        1.0080           0
   33094 WT2  3221 TIP3 H2   HT     0.417000        1.0080           0
   33095 WT2  3223 TIP3 OH2  OT    -0.834000       15.9994           0
   33096 WT2  3223 TIP3 H1   HT     0.417000        1.0080           0
   33097 WT2  3223 TIP3 H2   HT     0.417000        1.0080           0
   33098 WT2  3224 TIP3 OH2  OT    -0.834000       15.9994           0
   33099 WT2  3224 TIP3 H1   HT     0.417000        1.0080           0
   33100 WT2  3224 TIP3 H2   HT     0.417000        1.0080           0
   33101 WT2  3225 TIP3 OH2  OT    -0.834000       15.9994           0
   33102 WT2  3225 TIP3 H1   HT     0.417000        1.0080           0
   33103 WT2  3225 TIP3 H2   HT     0.417000        1.0080           0
   33104 WT2  3226 TIP3 OH2  OT    -0.834000       15.9994           0
   33105 WT2  3226 TIP3 H1   HT     0.417000        1.0080           0
   33106 WT2  3226 TIP3 H2   HT     0.417000        1.0080           0
   33107 WT2  3227 TIP3 OH2  OT    -0.834000       15.9994           0
   33108 WT2  3227 TIP3 H1   HT     0.417000        1.0080           0
   33109 WT2  3227 TIP3 H2   HT     0.417000        1.0080           0
   33110 WT2  3228 TIP3 OH2  OT    -0.834000       15.9994           0
   33111 WT2  3228 TIP3 H1   HT     0.417000        1.0080           0
   33112 WT2  3228 TIP3 H2   HT     0.417000        1.0080           0
   33113 WT2  3229 TIP3 OH2  OT    -0.834000       15.9994           0
   33114 WT2  3229 TIP3 H1   HT     0.417000        1.0080           0
   33115 WT2  3229 TIP3 H2   HT     0.417000        1.0080           0
   33116 WT2  3230 TIP3 OH2  OT    -0.834000       15.9994           0
   33117 WT2  3230 TIP3 H1   HT     0.417000        1.0080           0
   33118 WT2  3230 TIP3 H2   HT     0.417000        1.0080           0
   33119 WT2  3231 TIP3 OH2  OT    -0.834000       15.9994           0
   33120 WT2  3231 TIP3 H1   HT     0.417000        1.0080           0
   33121 WT2  3231 TIP3 H2   HT     0.417000        1.0080           0
   33122 WT2  3232 TIP3 OH2  OT    -0.834000       15.9994           0
   33123 WT2  3232 TIP3 H1   HT     0.417000        1.0080           0
   33124 WT2  3232 TIP3 H2   HT     0.417000        1.0080           0
   33125 WT2  3233 TIP3 OH2  OT    -0.834000       15.9994           0
   33126 WT2  3233 TIP3 H1   HT     0.417000        1.0080           0
   33127 WT2  3233 TIP3 H2   HT     0.417000        1.0080           0
   33128 WT2  3236 TIP3 OH2  OT    -0.834000       15.9994           0
   33129 WT2  3236 TIP3 H1   HT     0.417000        1.0080           0
   33130 WT2  3236 TIP3 H2   HT     0.417000        1.0080           0
   33131 WT2  3237 TIP3 OH2  OT    -0.834000       15.9994           0
   33132 WT2  3237 TIP3 H1   HT     0.417000        1.0080           0
   33133 WT2  3237 TIP3 H2   HT     0.417000        1.0080           0
   33134 WT2  3238 TIP3 OH2  OT    -0.834000       15.9994           0
   33135 WT2  3238 TIP3 H1   HT     0.417000        1.0080           0
   33136 WT2  3238 TIP3 H2   HT     0.417000        1.0080           0
   33137 WT2  3239 TIP3 OH2  OT    -0.834000       15.9994           0
   33138 WT2  3239 TIP3 H1   HT     0.417000        1.0080           0
   33139 WT2  3239 TIP3 H2   HT     0.417000        1.0080           0
   33140 WT2  3240 TIP3 OH2  OT    -0.834000       15.9994           0
   33141 WT2  3240 TIP3 H1   HT     0.417000        1.0080           0
   33142 WT2  3240 TIP3 H2   HT     0.417000        1.0080           0
   33143 WT2  3241 TIP3 OH2  OT    -0.834000       15.9994           0
   33144 WT2  3241 TIP3 H1   HT     0.417000        1.0080           0
   33145 WT2  3241 TIP3 H2   HT     0.417000        1.0080           0
   33146 WT2  3242 TIP3 OH2  OT    -0.834000       15.9994           0
   33147 WT2  3242 TIP3 H1   HT     0.417000        1.0080           0
   33148 WT2  3242 TIP3 H2   HT     0.417000        1.0080           0
   33149 WT2  3243 TIP3 OH2  OT    -0.834000       15.9994           0
   33150 WT2  3243 TIP3 H1   HT     0.417000        1.0080           0
   33151 WT2  3243 TIP3 H2   HT     0.417000        1.0080           0
   33152 WT2  3244 TIP3 OH2  OT    -0.834000       15.9994           0
   33153 WT2  3244 TIP3 H1   HT     0.417000        1.0080           0
   33154 WT2  3244 TIP3 H2   HT     0.417000        1.0080           0
   33155 WT2  3245 TIP3 OH2  OT    -0.834000       15.9994           0
   33156 WT2  3245 TIP3 H1   HT     0.417000        1.0080           0
   33157 WT2  3245 TIP3 H2   HT     0.417000        1.0080           0
   33158 WT2  3246 TIP3 OH2  OT    -0.834000       15.9994           0
   33159 WT2  3246 TIP3 H1   HT     0.417000        1.0080           0
   33160 WT2  3246 TIP3 H2   HT     0.417000        1.0080           0
   33161 WT2  3247 TIP3 OH2  OT    -0.834000       15.9994           0
   33162 WT2  3247 TIP3 H1   HT     0.417000        1.0080           0
   33163 WT2  3247 TIP3 H2   HT     0.417000        1.0080           0
   33164 WT2  3249 TIP3 OH2  OT    -0.834000       15.9994           0
   33165 WT2  3249 TIP3 H1   HT     0.417000        1.0080           0
   33166 WT2  3249 TIP3 H2   HT     0.417000        1.0080           0
   33167 WT2  3251 TIP3 OH2  OT    -0.834000       15.9994           0
   33168 WT2  3251 TIP3 H1   HT     0.417000        1.0080           0
   33169 WT2  3251 TIP3 H2   HT     0.417000        1.0080           0
   33170 WT2  3252 TIP3 OH2  OT    -0.834000       15.9994           0
   33171 WT2  3252 TIP3 H1   HT     0.417000        1.0080           0
   33172 WT2  3252 TIP3 H2   HT     0.417000        1.0080           0
   33173 WT2  3253 TIP3 OH2  OT    -0.834000       15.9994           0
   33174 WT2  3253 TIP3 H1   HT     0.417000        1.0080           0
   33175 WT2  3253 TIP3 H2   HT     0.417000        1.0080           0
   33176 WT2  3254 TIP3 OH2  OT    -0.834000       15.9994           0
   33177 WT2  3254 TIP3 H1   HT     0.417000        1.0080           0
   33178 WT2  3254 TIP3 H2   HT     0.417000        1.0080           0
   33179 WT2  3255 TIP3 OH2  OT    -0.834000       15.9994           0
   33180 WT2  3255 TIP3 H1   HT     0.417000        1.0080           0
   33181 WT2  3255 TIP3 H2   HT     0.417000        1.0080           0
   33182 WT2  3256 TIP3 OH2  OT    -0.834000       15.9994           0
   33183 WT2  3256 TIP3 H1   HT     0.417000        1.0080           0
   33184 WT2  3256 TIP3 H2   HT     0.417000        1.0080           0
   33185 WT2  3257 TIP3 OH2  OT    -0.834000       15.9994           0
   33186 WT2  3257 TIP3 H1   HT     0.417000        1.0080           0
   33187 WT2  3257 TIP3 H2   HT     0.417000        1.0080           0
   33188 WT2  3258 TIP3 OH2  OT    -0.834000       15.9994           0
   33189 WT2  3258 TIP3 H1   HT     0.417000        1.0080           0
   33190 WT2  3258 TIP3 H2   HT     0.417000        1.0080           0
   33191 WT2  3259 TIP3 OH2  OT    -0.834000       15.9994           0
   33192 WT2  3259 TIP3 H1   HT     0.417000        1.0080           0
   33193 WT2  3259 TIP3 H2   HT     0.417000        1.0080           0
   33194 WT2  3261 TIP3 OH2  OT    -0.834000       15.9994           0
   33195 WT2  3261 TIP3 H1   HT     0.417000        1.0080           0
   33196 WT2  3261 TIP3 H2   HT     0.417000        1.0080           0
   33197 WT2  3262 TIP3 OH2  OT    -0.834000       15.9994           0
   33198 WT2  3262 TIP3 H1   HT     0.417000        1.0080           0
   33199 WT2  3262 TIP3 H2   HT     0.417000        1.0080           0
   33200 WT2  3263 TIP3 OH2  OT    -0.834000       15.9994           0
   33201 WT2  3263 TIP3 H1   HT     0.417000        1.0080           0
   33202 WT2  3263 TIP3 H2   HT     0.417000        1.0080           0
   33203 WT2  3265 TIP3 OH2  OT    -0.834000       15.9994           0
   33204 WT2  3265 TIP3 H1   HT     0.417000        1.0080           0
   33205 WT2  3265 TIP3 H2   HT     0.417000        1.0080           0
   33206 WT2  3266 TIP3 OH2  OT    -0.834000       15.9994           0
   33207 WT2  3266 TIP3 H1   HT     0.417000        1.0080           0
   33208 WT2  3266 TIP3 H2   HT     0.417000        1.0080           0
   33209 WT2  3268 TIP3 OH2  OT    -0.834000       15.9994           0
   33210 WT2  3268 TIP3 H1   HT     0.417000        1.0080           0
   33211 WT2  3268 TIP3 H2   HT     0.417000        1.0080           0
   33212 WT2  3269 TIP3 OH2  OT    -0.834000       15.9994           0
   33213 WT2  3269 TIP3 H1   HT     0.417000        1.0080           0
   33214 WT2  3269 TIP3 H2   HT     0.417000        1.0080           0
   33215 WT2  3271 TIP3 OH2  OT    -0.834000       15.9994           0
   33216 WT2  3271 TIP3 H1   HT     0.417000        1.0080           0
   33217 WT2  3271 TIP3 H2   HT     0.417000        1.0080           0
   33218 WT2  3272 TIP3 OH2  OT    -0.834000       15.9994           0
   33219 WT2  3272 TIP3 H1   HT     0.417000        1.0080           0
   33220 WT2  3272 TIP3 H2   HT     0.417000        1.0080           0
   33221 WT2  3274 TIP3 OH2  OT    -0.834000       15.9994           0
   33222 WT2  3274 TIP3 H1   HT     0.417000        1.0080           0
   33223 WT2  3274 TIP3 H2   HT     0.417000        1.0080           0
   33224 WT2  3275 TIP3 OH2  OT    -0.834000       15.9994           0
   33225 WT2  3275 TIP3 H1   HT     0.417000        1.0080           0
   33226 WT2  3275 TIP3 H2   HT     0.417000        1.0080           0
   33227 WT2  3276 TIP3 OH2  OT    -0.834000       15.9994           0
   33228 WT2  3276 TIP3 H1   HT     0.417000        1.0080           0
   33229 WT2  3276 TIP3 H2   HT     0.417000        1.0080           0
   33230 WT2  3278 TIP3 OH2  OT    -0.834000       15.9994           0
   33231 WT2  3278 TIP3 H1   HT     0.417000        1.0080           0
   33232 WT2  3278 TIP3 H2   HT     0.417000        1.0080           0
   33233 WT2  3279 TIP3 OH2  OT    -0.834000       15.9994           0
   33234 WT2  3279 TIP3 H1   HT     0.417000        1.0080           0
   33235 WT2  3279 TIP3 H2   HT     0.417000        1.0080           0
   33236 WT2  3280 TIP3 OH2  OT    -0.834000       15.9994           0
   33237 WT2  3280 TIP3 H1   HT     0.417000        1.0080           0
   33238 WT2  3280 TIP3 H2   HT     0.417000        1.0080           0
   33239 WT2  3281 TIP3 OH2  OT    -0.834000       15.9994           0
   33240 WT2  3281 TIP3 H1   HT     0.417000        1.0080           0
   33241 WT2  3281 TIP3 H2   HT     0.417000        1.0080           0
   33242 WT2  3282 TIP3 OH2  OT    -0.834000       15.9994           0
   33243 WT2  3282 TIP3 H1   HT     0.417000        1.0080           0
   33244 WT2  3282 TIP3 H2   HT     0.417000        1.0080           0
   33245 WT2  3283 TIP3 OH2  OT    -0.834000       15.9994           0
   33246 WT2  3283 TIP3 H1   HT     0.417000        1.0080           0
   33247 WT2  3283 TIP3 H2   HT     0.417000        1.0080           0
   33248 WT2  3286 TIP3 OH2  OT    -0.834000       15.9994           0
   33249 WT2  3286 TIP3 H1   HT     0.417000        1.0080           0
   33250 WT2  3286 TIP3 H2   HT     0.417000        1.0080           0
   33251 WT2  3287 TIP3 OH2  OT    -0.834000       15.9994           0
   33252 WT2  3287 TIP3 H1   HT     0.417000        1.0080           0
   33253 WT2  3287 TIP3 H2   HT     0.417000        1.0080           0
   33254 WT2  3288 TIP3 OH2  OT    -0.834000       15.9994           0
   33255 WT2  3288 TIP3 H1   HT     0.417000        1.0080           0
   33256 WT2  3288 TIP3 H2   HT     0.417000        1.0080           0
   33257 WT2  3289 TIP3 OH2  OT    -0.834000       15.9994           0
   33258 WT2  3289 TIP3 H1   HT     0.417000        1.0080           0
   33259 WT2  3289 TIP3 H2   HT     0.417000        1.0080           0
   33260 WT2  3291 TIP3 OH2  OT    -0.834000       15.9994           0
   33261 WT2  3291 TIP3 H1   HT     0.417000        1.0080           0
   33262 WT2  3291 TIP3 H2   HT     0.417000        1.0080           0
   33263 WT2  3292 TIP3 OH2  OT    -0.834000       15.9994           0
   33264 WT2  3292 TIP3 H1   HT     0.417000        1.0080           0
   33265 WT2  3292 TIP3 H2   HT     0.417000        1.0080           0
   33266 WT2  3293 TIP3 OH2  OT    -0.834000       15.9994           0
   33267 WT2  3293 TIP3 H1   HT     0.417000        1.0080           0
   33268 WT2  3293 TIP3 H2   HT     0.417000        1.0080           0
   33269 WT2  3294 TIP3 OH2  OT    -0.834000       15.9994           0
   33270 WT2  3294 TIP3 H1   HT     0.417000        1.0080           0
   33271 WT2  3294 TIP3 H2   HT     0.417000        1.0080           0
   33272 WT2  3295 TIP3 OH2  OT    -0.834000       15.9994           0
   33273 WT2  3295 TIP3 H1   HT     0.417000        1.0080           0
   33274 WT2  3295 TIP3 H2   HT     0.417000        1.0080           0
   33275 WT2  3296 TIP3 OH2  OT    -0.834000       15.9994           0
   33276 WT2  3296 TIP3 H1   HT     0.417000        1.0080           0
   33277 WT2  3296 TIP3 H2   HT     0.417000        1.0080           0
   33278 WT2  3297 TIP3 OH2  OT    -0.834000       15.9994           0
   33279 WT2  3297 TIP3 H1   HT     0.417000        1.0080           0
   33280 WT2  3297 TIP3 H2   HT     0.417000        1.0080           0
   33281 WT2  3298 TIP3 OH2  OT    -0.834000       15.9994           0
   33282 WT2  3298 TIP3 H1   HT     0.417000        1.0080           0
   33283 WT2  3298 TIP3 H2   HT     0.417000        1.0080           0
   33284 WT2  3299 TIP3 OH2  OT    -0.834000       15.9994           0
   33285 WT2  3299 TIP3 H1   HT     0.417000        1.0080           0
   33286 WT2  3299 TIP3 H2   HT     0.417000        1.0080           0
   33287 WT2  3300 TIP3 OH2  OT    -0.834000       15.9994           0
   33288 WT2  3300 TIP3 H1   HT     0.417000        1.0080           0
   33289 WT2  3300 TIP3 H2   HT     0.417000        1.0080           0
   33290 WT2  3301 TIP3 OH2  OT    -0.834000       15.9994           0
   33291 WT2  3301 TIP3 H1   HT     0.417000        1.0080           0
   33292 WT2  3301 TIP3 H2   HT     0.417000        1.0080           0
   33293 WT2  3302 TIP3 OH2  OT    -0.834000       15.9994           0
   33294 WT2  3302 TIP3 H1   HT     0.417000        1.0080           0
   33295 WT2  3302 TIP3 H2   HT     0.417000        1.0080           0
   33296 WT2  3303 TIP3 OH2  OT    -0.834000       15.9994           0
   33297 WT2  3303 TIP3 H1   HT     0.417000        1.0080           0
   33298 WT2  3303 TIP3 H2   HT     0.417000        1.0080           0
   33299 WT2  3304 TIP3 OH2  OT    -0.834000       15.9994           0
   33300 WT2  3304 TIP3 H1   HT     0.417000        1.0080           0
   33301 WT2  3304 TIP3 H2   HT     0.417000        1.0080           0
   33302 WT2  3305 TIP3 OH2  OT    -0.834000       15.9994           0
   33303 WT2  3305 TIP3 H1   HT     0.417000        1.0080           0
   33304 WT2  3305 TIP3 H2   HT     0.417000        1.0080           0
   33305 WT2  3306 TIP3 OH2  OT    -0.834000       15.9994           0
   33306 WT2  3306 TIP3 H1   HT     0.417000        1.0080           0
   33307 WT2  3306 TIP3 H2   HT     0.417000        1.0080           0
   33308 WT2  3307 TIP3 OH2  OT    -0.834000       15.9994           0
   33309 WT2  3307 TIP3 H1   HT     0.417000        1.0080           0
   33310 WT2  3307 TIP3 H2   HT     0.417000        1.0080           0
   33311 WT2  3308 TIP3 OH2  OT    -0.834000       15.9994           0
   33312 WT2  3308 TIP3 H1   HT     0.417000        1.0080           0
   33313 WT2  3308 TIP3 H2   HT     0.417000        1.0080           0
   33314 WT2  3309 TIP3 OH2  OT    -0.834000       15.9994           0
   33315 WT2  3309 TIP3 H1   HT     0.417000        1.0080           0
   33316 WT2  3309 TIP3 H2   HT     0.417000        1.0080           0
   33317 WT2  3310 TIP3 OH2  OT    -0.834000       15.9994           0
   33318 WT2  3310 TIP3 H1   HT     0.417000        1.0080           0
   33319 WT2  3310 TIP3 H2   HT     0.417000        1.0080           0
   33320 WT2  3311 TIP3 OH2  OT    -0.834000       15.9994           0
   33321 WT2  3311 TIP3 H1   HT     0.417000        1.0080           0
   33322 WT2  3311 TIP3 H2   HT     0.417000        1.0080           0
   33323 WT2  3312 TIP3 OH2  OT    -0.834000       15.9994           0
   33324 WT2  3312 TIP3 H1   HT     0.417000        1.0080           0
   33325 WT2  3312 TIP3 H2   HT     0.417000        1.0080           0
   33326 WT2  3313 TIP3 OH2  OT    -0.834000       15.9994           0
   33327 WT2  3313 TIP3 H1   HT     0.417000        1.0080           0
   33328 WT2  3313 TIP3 H2   HT     0.417000        1.0080           0
   33329 WT2  3315 TIP3 OH2  OT    -0.834000       15.9994           0
   33330 WT2  3315 TIP3 H1   HT     0.417000        1.0080           0
   33331 WT2  3315 TIP3 H2   HT     0.417000        1.0080           0
   33332 WT2  3316 TIP3 OH2  OT    -0.834000       15.9994           0
   33333 WT2  3316 TIP3 H1   HT     0.417000        1.0080           0
   33334 WT2  3316 TIP3 H2   HT     0.417000        1.0080           0
   33335 WT2  3317 TIP3 OH2  OT    -0.834000       15.9994           0
   33336 WT2  3317 TIP3 H1   HT     0.417000        1.0080           0
   33337 WT2  3317 TIP3 H2   HT     0.417000        1.0080           0
   33338 WT2  3319 TIP3 OH2  OT    -0.834000       15.9994           0
   33339 WT2  3319 TIP3 H1   HT     0.417000        1.0080           0
   33340 WT2  3319 TIP3 H2   HT     0.417000        1.0080           0
   33341 WT2  3320 TIP3 OH2  OT    -0.834000       15.9994           0
   33342 WT2  3320 TIP3 H1   HT     0.417000        1.0080           0
   33343 WT2  3320 TIP3 H2   HT     0.417000        1.0080           0
   33344 WT2  3321 TIP3 OH2  OT    -0.834000       15.9994           0
   33345 WT2  3321 TIP3 H1   HT     0.417000        1.0080           0
   33346 WT2  3321 TIP3 H2   HT     0.417000        1.0080           0
   33347 WT2  3322 TIP3 OH2  OT    -0.834000       15.9994           0
   33348 WT2  3322 TIP3 H1   HT     0.417000        1.0080           0
   33349 WT2  3322 TIP3 H2   HT     0.417000        1.0080           0
   33350 WT2  3324 TIP3 OH2  OT    -0.834000       15.9994           0
   33351 WT2  3324 TIP3 H1   HT     0.417000        1.0080           0
   33352 WT2  3324 TIP3 H2   HT     0.417000        1.0080           0
   33353 WT2  3326 TIP3 OH2  OT    -0.834000       15.9994           0
   33354 WT2  3326 TIP3 H1   HT     0.417000        1.0080           0
   33355 WT2  3326 TIP3 H2   HT     0.417000        1.0080           0
   33356 WT2  3327 TIP3 OH2  OT    -0.834000       15.9994           0
   33357 WT2  3327 TIP3 H1   HT     0.417000        1.0080           0
   33358 WT2  3327 TIP3 H2   HT     0.417000        1.0080           0
   33359 WT2  3328 TIP3 OH2  OT    -0.834000       15.9994           0
   33360 WT2  3328 TIP3 H1   HT     0.417000        1.0080           0
   33361 WT2  3328 TIP3 H2   HT     0.417000        1.0080           0
   33362 WT2  3329 TIP3 OH2  OT    -0.834000       15.9994           0
   33363 WT2  3329 TIP3 H1   HT     0.417000        1.0080           0
   33364 WT2  3329 TIP3 H2   HT     0.417000        1.0080           0
   33365 WT2  3331 TIP3 OH2  OT    -0.834000       15.9994           0
   33366 WT2  3331 TIP3 H1   HT     0.417000        1.0080           0
   33367 WT2  3331 TIP3 H2   HT     0.417000        1.0080           0
   33368 WT2  3332 TIP3 OH2  OT    -0.834000       15.9994           0
   33369 WT2  3332 TIP3 H1   HT     0.417000        1.0080           0
   33370 WT2  3332 TIP3 H2   HT     0.417000        1.0080           0
   33371 WT2  3334 TIP3 OH2  OT    -0.834000       15.9994           0
   33372 WT2  3334 TIP3 H1   HT     0.417000        1.0080           0
   33373 WT2  3334 TIP3 H2   HT     0.417000        1.0080           0
   33374 WT2  3335 TIP3 OH2  OT    -0.834000       15.9994           0
   33375 WT2  3335 TIP3 H1   HT     0.417000        1.0080           0
   33376 WT2  3335 TIP3 H2   HT     0.417000        1.0080           0
   33377 WT2  3337 TIP3 OH2  OT    -0.834000       15.9994           0
   33378 WT2  3337 TIP3 H1   HT     0.417000        1.0080           0
   33379 WT2  3337 TIP3 H2   HT     0.417000        1.0080           0
   33380 WT2  3338 TIP3 OH2  OT    -0.834000       15.9994           0
   33381 WT2  3338 TIP3 H1   HT     0.417000        1.0080           0
   33382 WT2  3338 TIP3 H2   HT     0.417000        1.0080           0
   33383 WT2  3339 TIP3 OH2  OT    -0.834000       15.9994           0
   33384 WT2  3339 TIP3 H1   HT     0.417000        1.0080           0
   33385 WT2  3339 TIP3 H2   HT     0.417000        1.0080           0
   33386 WT2  3341 TIP3 OH2  OT    -0.834000       15.9994           0
   33387 WT2  3341 TIP3 H1   HT     0.417000        1.0080           0
   33388 WT2  3341 TIP3 H2   HT     0.417000        1.0080           0
   33389 WT2  3342 TIP3 OH2  OT    -0.834000       15.9994           0
   33390 WT2  3342 TIP3 H1   HT     0.417000        1.0080           0
   33391 WT2  3342 TIP3 H2   HT     0.417000        1.0080           0
   33392 WT2  3343 TIP3 OH2  OT    -0.834000       15.9994           0
   33393 WT2  3343 TIP3 H1   HT     0.417000        1.0080           0
   33394 WT2  3343 TIP3 H2   HT     0.417000        1.0080           0
   33395 WT2  3344 TIP3 OH2  OT    -0.834000       15.9994           0
   33396 WT2  3344 TIP3 H1   HT     0.417000        1.0080           0
   33397 WT2  3344 TIP3 H2   HT     0.417000        1.0080           0
   33398 WT2  3347 TIP3 OH2  OT    -0.834000       15.9994           0
   33399 WT2  3347 TIP3 H1   HT     0.417000        1.0080           0
   33400 WT2  3347 TIP3 H2   HT     0.417000        1.0080           0
   33401 WT2  3348 TIP3 OH2  OT    -0.834000       15.9994           0
   33402 WT2  3348 TIP3 H1   HT     0.417000        1.0080           0
   33403 WT2  3348 TIP3 H2   HT     0.417000        1.0080           0
   33404 WT2  3349 TIP3 OH2  OT    -0.834000       15.9994           0
   33405 WT2  3349 TIP3 H1   HT     0.417000        1.0080           0
   33406 WT2  3349 TIP3 H2   HT     0.417000        1.0080           0
   33407 WT2  3350 TIP3 OH2  OT    -0.834000       15.9994           0
   33408 WT2  3350 TIP3 H1   HT     0.417000        1.0080           0
   33409 WT2  3350 TIP3 H2   HT     0.417000        1.0080           0
   33410 WT2  3351 TIP3 OH2  OT    -0.834000       15.9994           0
   33411 WT2  3351 TIP3 H1   HT     0.417000        1.0080           0
   33412 WT2  3351 TIP3 H2   HT     0.417000        1.0080           0
   33413 WT2  3354 TIP3 OH2  OT    -0.834000       15.9994           0
   33414 WT2  3354 TIP3 H1   HT     0.417000        1.0080           0
   33415 WT2  3354 TIP3 H2   HT     0.417000        1.0080           0
   33416 WT2  3355 TIP3 OH2  OT    -0.834000       15.9994           0
   33417 WT2  3355 TIP3 H1   HT     0.417000        1.0080           0
   33418 WT2  3355 TIP3 H2   HT     0.417000        1.0080           0
   33419 WT2  3356 TIP3 OH2  OT    -0.834000       15.9994           0
   33420 WT2  3356 TIP3 H1   HT     0.417000        1.0080           0
   33421 WT2  3356 TIP3 H2   HT     0.417000        1.0080           0
   33422 WT2  3357 TIP3 OH2  OT    -0.834000       15.9994           0
   33423 WT2  3357 TIP3 H1   HT     0.417000        1.0080           0
   33424 WT2  3357 TIP3 H2   HT     0.417000        1.0080           0
   33425 WT2  3358 TIP3 OH2  OT    -0.834000       15.9994           0
   33426 WT2  3358 TIP3 H1   HT     0.417000        1.0080           0
   33427 WT2  3358 TIP3 H2   HT     0.417000        1.0080           0
   33428 WT2  3359 TIP3 OH2  OT    -0.834000       15.9994           0
   33429 WT2  3359 TIP3 H1   HT     0.417000        1.0080           0
   33430 WT2  3359 TIP3 H2   HT     0.417000        1.0080           0
   33431 WT2  3360 TIP3 OH2  OT    -0.834000       15.9994           0
   33432 WT2  3360 TIP3 H1   HT     0.417000        1.0080           0
   33433 WT2  3360 TIP3 H2   HT     0.417000        1.0080           0
   33434 WT2  3363 TIP3 OH2  OT    -0.834000       15.9994           0
   33435 WT2  3363 TIP3 H1   HT     0.417000        1.0080           0
   33436 WT2  3363 TIP3 H2   HT     0.417000        1.0080           0
   33437 WT2  3364 TIP3 OH2  OT    -0.834000       15.9994           0
   33438 WT2  3364 TIP3 H1   HT     0.417000        1.0080           0
   33439 WT2  3364 TIP3 H2   HT     0.417000        1.0080           0
   33440 WT2  3365 TIP3 OH2  OT    -0.834000       15.9994           0
   33441 WT2  3365 TIP3 H1   HT     0.417000        1.0080           0
   33442 WT2  3365 TIP3 H2   HT     0.417000        1.0080           0
   33443 WT2  3366 TIP3 OH2  OT    -0.834000       15.9994           0
   33444 WT2  3366 TIP3 H1   HT     0.417000        1.0080           0
   33445 WT2  3366 TIP3 H2   HT     0.417000        1.0080           0
   33446 WT2  3367 TIP3 OH2  OT    -0.834000       15.9994           0
   33447 WT2  3367 TIP3 H1   HT     0.417000        1.0080           0
   33448 WT2  3367 TIP3 H2   HT     0.417000        1.0080           0
   33449 WT2  3368 TIP3 OH2  OT    -0.834000       15.9994           0
   33450 WT2  3368 TIP3 H1   HT     0.417000        1.0080           0
   33451 WT2  3368 TIP3 H2   HT     0.417000        1.0080           0
   33452 WT2  3370 TIP3 OH2  OT    -0.834000       15.9994           0
   33453 WT2  3370 TIP3 H1   HT     0.417000        1.0080           0
   33454 WT2  3370 TIP3 H2   HT     0.417000        1.0080           0
   33455 WT2  3371 TIP3 OH2  OT    -0.834000       15.9994           0
   33456 WT2  3371 TIP3 H1   HT     0.417000        1.0080           0
   33457 WT2  3371 TIP3 H2   HT     0.417000        1.0080           0
   33458 WT2  3372 TIP3 OH2  OT    -0.834000       15.9994           0
   33459 WT2  3372 TIP3 H1   HT     0.417000        1.0080           0
   33460 WT2  3372 TIP3 H2   HT     0.417000        1.0080           0
   33461 WT2  3373 TIP3 OH2  OT    -0.834000       15.9994           0
   33462 WT2  3373 TIP3 H1   HT     0.417000        1.0080           0
   33463 WT2  3373 TIP3 H2   HT     0.417000        1.0080           0
   33464 WT2  3374 TIP3 OH2  OT    -0.834000       15.9994           0
   33465 WT2  3374 TIP3 H1   HT     0.417000        1.0080           0
   33466 WT2  3374 TIP3 H2   HT     0.417000        1.0080           0
   33467 WT2  3375 TIP3 OH2  OT    -0.834000       15.9994           0
   33468 WT2  3375 TIP3 H1   HT     0.417000        1.0080           0
   33469 WT2  3375 TIP3 H2   HT     0.417000        1.0080           0
   33470 WT2  3376 TIP3 OH2  OT    -0.834000       15.9994           0
   33471 WT2  3376 TIP3 H1   HT     0.417000        1.0080           0
   33472 WT2  3376 TIP3 H2   HT     0.417000        1.0080           0
   33473 WT2  3377 TIP3 OH2  OT    -0.834000       15.9994           0
   33474 WT2  3377 TIP3 H1   HT     0.417000        1.0080           0
   33475 WT2  3377 TIP3 H2   HT     0.417000        1.0080           0
   33476 WT2  3378 TIP3 OH2  OT    -0.834000       15.9994           0
   33477 WT2  3378 TIP3 H1   HT     0.417000        1.0080           0
   33478 WT2  3378 TIP3 H2   HT     0.417000        1.0080           0
   33479 WT2  3379 TIP3 OH2  OT    -0.834000       15.9994           0
   33480 WT2  3379 TIP3 H1   HT     0.417000        1.0080           0
   33481 WT2  3379 TIP3 H2   HT     0.417000        1.0080           0
   33482 WT2  3380 TIP3 OH2  OT    -0.834000       15.9994           0
   33483 WT2  3380 TIP3 H1   HT     0.417000        1.0080           0
   33484 WT2  3380 TIP3 H2   HT     0.417000        1.0080           0
   33485 WT2  3381 TIP3 OH2  OT    -0.834000       15.9994           0
   33486 WT2  3381 TIP3 H1   HT     0.417000        1.0080           0
   33487 WT2  3381 TIP3 H2   HT     0.417000        1.0080           0
   33488 WT2  3382 TIP3 OH2  OT    -0.834000       15.9994           0
   33489 WT2  3382 TIP3 H1   HT     0.417000        1.0080           0
   33490 WT2  3382 TIP3 H2   HT     0.417000        1.0080           0
   33491 WT2  3383 TIP3 OH2  OT    -0.834000       15.9994           0
   33492 WT2  3383 TIP3 H1   HT     0.417000        1.0080           0
   33493 WT2  3383 TIP3 H2   HT     0.417000        1.0080           0
   33494 WT2  3384 TIP3 OH2  OT    -0.834000       15.9994           0
   33495 WT2  3384 TIP3 H1   HT     0.417000        1.0080           0
   33496 WT2  3384 TIP3 H2   HT     0.417000        1.0080           0
   33497 WT2  3385 TIP3 OH2  OT    -0.834000       15.9994           0
   33498 WT2  3385 TIP3 H1   HT     0.417000        1.0080           0
   33499 WT2  3385 TIP3 H2   HT     0.417000        1.0080           0
   33500 WT2  3386 TIP3 OH2  OT    -0.834000       15.9994           0
   33501 WT2  3386 TIP3 H1   HT     0.417000        1.0080           0
   33502 WT2  3386 TIP3 H2   HT     0.417000        1.0080           0
   33503 WT2  3388 TIP3 OH2  OT    -0.834000       15.9994           0
   33504 WT2  3388 TIP3 H1   HT     0.417000        1.0080           0
   33505 WT2  3388 TIP3 H2   HT     0.417000        1.0080           0
   33506 WT2  3389 TIP3 OH2  OT    -0.834000       15.9994           0
   33507 WT2  3389 TIP3 H1   HT     0.417000        1.0080           0
   33508 WT2  3389 TIP3 H2   HT     0.417000        1.0080           0
   33509 WT2  3390 TIP3 OH2  OT    -0.834000       15.9994           0
   33510 WT2  3390 TIP3 H1   HT     0.417000        1.0080           0
   33511 WT2  3390 TIP3 H2   HT     0.417000        1.0080           0
   33512 WT2  3391 TIP3 OH2  OT    -0.834000       15.9994           0
   33513 WT2  3391 TIP3 H1   HT     0.417000        1.0080           0
   33514 WT2  3391 TIP3 H2   HT     0.417000        1.0080           0
   33515 WT2  3392 TIP3 OH2  OT    -0.834000       15.9994           0
   33516 WT2  3392 TIP3 H1   HT     0.417000        1.0080           0
   33517 WT2  3392 TIP3 H2   HT     0.417000        1.0080           0
   33518 WT2  3393 TIP3 OH2  OT    -0.834000       15.9994           0
   33519 WT2  3393 TIP3 H1   HT     0.417000        1.0080           0
   33520 WT2  3393 TIP3 H2   HT     0.417000        1.0080           0
   33521 WT2  3394 TIP3 OH2  OT    -0.834000       15.9994           0
   33522 WT2  3394 TIP3 H1   HT     0.417000        1.0080           0
   33523 WT2  3394 TIP3 H2   HT     0.417000        1.0080           0
   33524 WT2  3395 TIP3 OH2  OT    -0.834000       15.9994           0
   33525 WT2  3395 TIP3 H1   HT     0.417000        1.0080           0
   33526 WT2  3395 TIP3 H2   HT     0.417000        1.0080           0
   33527 WT2  3396 TIP3 OH2  OT    -0.834000       15.9994           0
   33528 WT2  3396 TIP3 H1   HT     0.417000        1.0080           0
   33529 WT2  3396 TIP3 H2   HT     0.417000        1.0080           0
   33530 WT2  3397 TIP3 OH2  OT    -0.834000       15.9994           0
   33531 WT2  3397 TIP3 H1   HT     0.417000        1.0080           0
   33532 WT2  3397 TIP3 H2   HT     0.417000        1.0080           0
   33533 WT2  3398 TIP3 OH2  OT    -0.834000       15.9994           0
   33534 WT2  3398 TIP3 H1   HT     0.417000        1.0080           0
   33535 WT2  3398 TIP3 H2   HT     0.417000        1.0080           0
   33536 WT2  3399 TIP3 OH2  OT    -0.834000       15.9994           0
   33537 WT2  3399 TIP3 H1   HT     0.417000        1.0080           0
   33538 WT2  3399 TIP3 H2   HT     0.417000        1.0080           0
   33539 WT2  3400 TIP3 OH2  OT    -0.834000       15.9994           0
   33540 WT2  3400 TIP3 H1   HT     0.417000        1.0080           0
   33541 WT2  3400 TIP3 H2   HT     0.417000        1.0080           0
   33542 WT2  3401 TIP3 OH2  OT    -0.834000       15.9994           0
   33543 WT2  3401 TIP3 H1   HT     0.417000        1.0080           0
   33544 WT2  3401 TIP3 H2   HT     0.417000        1.0080           0
   33545 WT2  3402 TIP3 OH2  OT    -0.834000       15.9994           0
   33546 WT2  3402 TIP3 H1   HT     0.417000        1.0080           0
   33547 WT2  3402 TIP3 H2   HT     0.417000        1.0080           0
   33548 WT2  3404 TIP3 OH2  OT    -0.834000       15.9994           0
   33549 WT2  3404 TIP3 H1   HT     0.417000        1.0080           0
   33550 WT2  3404 TIP3 H2   HT     0.417000        1.0080           0
   33551 WT2  3405 TIP3 OH2  OT    -0.834000       15.9994           0
   33552 WT2  3405 TIP3 H1   HT     0.417000        1.0080           0
   33553 WT2  3405 TIP3 H2   HT     0.417000        1.0080           0
   33554 WT2  3406 TIP3 OH2  OT    -0.834000       15.9994           0
   33555 WT2  3406 TIP3 H1   HT     0.417000        1.0080           0
   33556 WT2  3406 TIP3 H2   HT     0.417000        1.0080           0
   33557 WT2  3408 TIP3 OH2  OT    -0.834000       15.9994           0
   33558 WT2  3408 TIP3 H1   HT     0.417000        1.0080           0
   33559 WT2  3408 TIP3 H2   HT     0.417000        1.0080           0
   33560 WT2  3410 TIP3 OH2  OT    -0.834000       15.9994           0
   33561 WT2  3410 TIP3 H1   HT     0.417000        1.0080           0
   33562 WT2  3410 TIP3 H2   HT     0.417000        1.0080           0
   33563 WT2  3411 TIP3 OH2  OT    -0.834000       15.9994           0
   33564 WT2  3411 TIP3 H1   HT     0.417000        1.0080           0
   33565 WT2  3411 TIP3 H2   HT     0.417000        1.0080           0
   33566 WT2  3412 TIP3 OH2  OT    -0.834000       15.9994           0
   33567 WT2  3412 TIP3 H1   HT     0.417000        1.0080           0
   33568 WT2  3412 TIP3 H2   HT     0.417000        1.0080           0
   33569 WT2  3414 TIP3 OH2  OT    -0.834000       15.9994           0
   33570 WT2  3414 TIP3 H1   HT     0.417000        1.0080           0
   33571 WT2  3414 TIP3 H2   HT     0.417000        1.0080           0
   33572 WT2  3415 TIP3 OH2  OT    -0.834000       15.9994           0
   33573 WT2  3415 TIP3 H1   HT     0.417000        1.0080           0
   33574 WT2  3415 TIP3 H2   HT     0.417000        1.0080           0
   33575 WT2  3416 TIP3 OH2  OT    -0.834000       15.9994           0
   33576 WT2  3416 TIP3 H1   HT     0.417000        1.0080           0
   33577 WT2  3416 TIP3 H2   HT     0.417000        1.0080           0
   33578 WT2  3417 TIP3 OH2  OT    -0.834000       15.9994           0
   33579 WT2  3417 TIP3 H1   HT     0.417000        1.0080           0
   33580 WT2  3417 TIP3 H2   HT     0.417000        1.0080           0
   33581 WT2  3419 TIP3 OH2  OT    -0.834000       15.9994           0
   33582 WT2  3419 TIP3 H1   HT     0.417000        1.0080           0
   33583 WT2  3419 TIP3 H2   HT     0.417000        1.0080           0
   33584 WT2  3420 TIP3 OH2  OT    -0.834000       15.9994           0
   33585 WT2  3420 TIP3 H1   HT     0.417000        1.0080           0
   33586 WT2  3420 TIP3 H2   HT     0.417000        1.0080           0
   33587 WT2  3421 TIP3 OH2  OT    -0.834000       15.9994           0
   33588 WT2  3421 TIP3 H1   HT     0.417000        1.0080           0
   33589 WT2  3421 TIP3 H2   HT     0.417000        1.0080           0
   33590 WT2  3422 TIP3 OH2  OT    -0.834000       15.9994           0
   33591 WT2  3422 TIP3 H1   HT     0.417000        1.0080           0
   33592 WT2  3422 TIP3 H2   HT     0.417000        1.0080           0
   33593 WT2  3423 TIP3 OH2  OT    -0.834000       15.9994           0
   33594 WT2  3423 TIP3 H1   HT     0.417000        1.0080           0
   33595 WT2  3423 TIP3 H2   HT     0.417000        1.0080           0
   33596 WT2  3425 TIP3 OH2  OT    -0.834000       15.9994           0
   33597 WT2  3425 TIP3 H1   HT     0.417000        1.0080           0
   33598 WT2  3425 TIP3 H2   HT     0.417000        1.0080           0
   33599 WT2  3426 TIP3 OH2  OT    -0.834000       15.9994           0
   33600 WT2  3426 TIP3 H1   HT     0.417000        1.0080           0
   33601 WT2  3426 TIP3 H2   HT     0.417000        1.0080           0
   33602 WT2  3427 TIP3 OH2  OT    -0.834000       15.9994           0
   33603 WT2  3427 TIP3 H1   HT     0.417000        1.0080           0
   33604 WT2  3427 TIP3 H2   HT     0.417000        1.0080           0
   33605 WT2  3431 TIP3 OH2  OT    -0.834000       15.9994           0
   33606 WT2  3431 TIP3 H1   HT     0.417000        1.0080           0
   33607 WT2  3431 TIP3 H2   HT     0.417000        1.0080           0
   33608 WT2  3432 TIP3 OH2  OT    -0.834000       15.9994           0
   33609 WT2  3432 TIP3 H1   HT     0.417000        1.0080           0
   33610 WT2  3432 TIP3 H2   HT     0.417000        1.0080           0
   33611 WT2  3433 TIP3 OH2  OT    -0.834000       15.9994           0
   33612 WT2  3433 TIP3 H1   HT     0.417000        1.0080           0
   33613 WT2  3433 TIP3 H2   HT     0.417000        1.0080           0
   33614 WT2  3434 TIP3 OH2  OT    -0.834000       15.9994           0
   33615 WT2  3434 TIP3 H1   HT     0.417000        1.0080           0
   33616 WT2  3434 TIP3 H2   HT     0.417000        1.0080           0
   33617 WT2  3435 TIP3 OH2  OT    -0.834000       15.9994           0
   33618 WT2  3435 TIP3 H1   HT     0.417000        1.0080           0
   33619 WT2  3435 TIP3 H2   HT     0.417000        1.0080           0
   33620 WT2  3436 TIP3 OH2  OT    -0.834000       15.9994           0
   33621 WT2  3436 TIP3 H1   HT     0.417000        1.0080           0
   33622 WT2  3436 TIP3 H2   HT     0.417000        1.0080           0
   33623 WT2  3437 TIP3 OH2  OT    -0.834000       15.9994           0
   33624 WT2  3437 TIP3 H1   HT     0.417000        1.0080           0
   33625 WT2  3437 TIP3 H2   HT     0.417000        1.0080           0
   33626 WT2  3439 TIP3 OH2  OT    -0.834000       15.9994           0
   33627 WT2  3439 TIP3 H1   HT     0.417000        1.0080           0
   33628 WT2  3439 TIP3 H2   HT     0.417000        1.0080           0
   33629 WT2  3440 TIP3 OH2  OT    -0.834000       15.9994           0
   33630 WT2  3440 TIP3 H1   HT     0.417000        1.0080           0
   33631 WT2  3440 TIP3 H2   HT     0.417000        1.0080           0
   33632 WT2  3441 TIP3 OH2  OT    -0.834000       15.9994           0
   33633 WT2  3441 TIP3 H1   HT     0.417000        1.0080           0
   33634 WT2  3441 TIP3 H2   HT     0.417000        1.0080           0
   33635 WT2  3442 TIP3 OH2  OT    -0.834000       15.9994           0
   33636 WT2  3442 TIP3 H1   HT     0.417000        1.0080           0
   33637 WT2  3442 TIP3 H2   HT     0.417000        1.0080           0
   33638 WT2  3443 TIP3 OH2  OT    -0.834000       15.9994           0
   33639 WT2  3443 TIP3 H1   HT     0.417000        1.0080           0
   33640 WT2  3443 TIP3 H2   HT     0.417000        1.0080           0
   33641 WT2  3445 TIP3 OH2  OT    -0.834000       15.9994           0
   33642 WT2  3445 TIP3 H1   HT     0.417000        1.0080           0
   33643 WT2  3445 TIP3 H2   HT     0.417000        1.0080           0
   33644 WT2  3446 TIP3 OH2  OT    -0.834000       15.9994           0
   33645 WT2  3446 TIP3 H1   HT     0.417000        1.0080           0
   33646 WT2  3446 TIP3 H2   HT     0.417000        1.0080           0
   33647 WT2  3447 TIP3 OH2  OT    -0.834000       15.9994           0
   33648 WT2  3447 TIP3 H1   HT     0.417000        1.0080           0
   33649 WT2  3447 TIP3 H2   HT     0.417000        1.0080           0
   33650 WT2  3448 TIP3 OH2  OT    -0.834000       15.9994           0
   33651 WT2  3448 TIP3 H1   HT     0.417000        1.0080           0
   33652 WT2  3448 TIP3 H2   HT     0.417000        1.0080           0
   33653 WT2  3449 TIP3 OH2  OT    -0.834000       15.9994           0
   33654 WT2  3449 TIP3 H1   HT     0.417000        1.0080           0
   33655 WT2  3449 TIP3 H2   HT     0.417000        1.0080           0
   33656 WT2  3451 TIP3 OH2  OT    -0.834000       15.9994           0
   33657 WT2  3451 TIP3 H1   HT     0.417000        1.0080           0
   33658 WT2  3451 TIP3 H2   HT     0.417000        1.0080           0
   33659 WT2  3452 TIP3 OH2  OT    -0.834000       15.9994           0
   33660 WT2  3452 TIP3 H1   HT     0.417000        1.0080           0
   33661 WT2  3452 TIP3 H2   HT     0.417000        1.0080           0
   33662 WT2  3454 TIP3 OH2  OT    -0.834000       15.9994           0
   33663 WT2  3454 TIP3 H1   HT     0.417000        1.0080           0
   33664 WT2  3454 TIP3 H2   HT     0.417000        1.0080           0
   33665 WT2  3455 TIP3 OH2  OT    -0.834000       15.9994           0
   33666 WT2  3455 TIP3 H1   HT     0.417000        1.0080           0
   33667 WT2  3455 TIP3 H2   HT     0.417000        1.0080           0
   33668 WT2  3456 TIP3 OH2  OT    -0.834000       15.9994           0
   33669 WT2  3456 TIP3 H1   HT     0.417000        1.0080           0
   33670 WT2  3456 TIP3 H2   HT     0.417000        1.0080           0
   33671 WT2  3457 TIP3 OH2  OT    -0.834000       15.9994           0
   33672 WT2  3457 TIP3 H1   HT     0.417000        1.0080           0
   33673 WT2  3457 TIP3 H2   HT     0.417000        1.0080           0
   33674 WT2  3458 TIP3 OH2  OT    -0.834000       15.9994           0
   33675 WT2  3458 TIP3 H1   HT     0.417000        1.0080           0
   33676 WT2  3458 TIP3 H2   HT     0.417000        1.0080           0
   33677 WT2  3459 TIP3 OH2  OT    -0.834000       15.9994           0
   33678 WT2  3459 TIP3 H1   HT     0.417000        1.0080           0
   33679 WT2  3459 TIP3 H2   HT     0.417000        1.0080           0
   33680 WT2  3460 TIP3 OH2  OT    -0.834000       15.9994           0
   33681 WT2  3460 TIP3 H1   HT     0.417000        1.0080           0
   33682 WT2  3460 TIP3 H2   HT     0.417000        1.0080           0
   33683 WT2  3461 TIP3 OH2  OT    -0.834000       15.9994           0
   33684 WT2  3461 TIP3 H1   HT     0.417000        1.0080           0
   33685 WT2  3461 TIP3 H2   HT     0.417000        1.0080           0
   33686 WT2  3462 TIP3 OH2  OT    -0.834000       15.9994           0
   33687 WT2  3462 TIP3 H1   HT     0.417000        1.0080           0
   33688 WT2  3462 TIP3 H2   HT     0.417000        1.0080           0
   33689 WT2  3463 TIP3 OH2  OT    -0.834000       15.9994           0
   33690 WT2  3463 TIP3 H1   HT     0.417000        1.0080           0
   33691 WT2  3463 TIP3 H2   HT     0.417000        1.0080           0
   33692 WT2  3465 TIP3 OH2  OT    -0.834000       15.9994           0
   33693 WT2  3465 TIP3 H1   HT     0.417000        1.0080           0
   33694 WT2  3465 TIP3 H2   HT     0.417000        1.0080           0
   33695 WT2  3466 TIP3 OH2  OT    -0.834000       15.9994           0
   33696 WT2  3466 TIP3 H1   HT     0.417000        1.0080           0
   33697 WT2  3466 TIP3 H2   HT     0.417000        1.0080           0
   33698 WT2  3467 TIP3 OH2  OT    -0.834000       15.9994           0
   33699 WT2  3467 TIP3 H1   HT     0.417000        1.0080           0
   33700 WT2  3467 TIP3 H2   HT     0.417000        1.0080           0
   33701 WT2  3468 TIP3 OH2  OT    -0.834000       15.9994           0
   33702 WT2  3468 TIP3 H1   HT     0.417000        1.0080           0
   33703 WT2  3468 TIP3 H2   HT     0.417000        1.0080           0
   33704 WT2  3469 TIP3 OH2  OT    -0.834000       15.9994           0
   33705 WT2  3469 TIP3 H1   HT     0.417000        1.0080           0
   33706 WT2  3469 TIP3 H2   HT     0.417000        1.0080           0
   33707 WT2  3470 TIP3 OH2  OT    -0.834000       15.9994           0
   33708 WT2  3470 TIP3 H1   HT     0.417000        1.0080           0
   33709 WT2  3470 TIP3 H2   HT     0.417000        1.0080           0
   33710 WT2  3474 TIP3 OH2  OT    -0.834000       15.9994           0
   33711 WT2  3474 TIP3 H1   HT     0.417000        1.0080           0
   33712 WT2  3474 TIP3 H2   HT     0.417000        1.0080           0
   33713 WT2  3475 TIP3 OH2  OT    -0.834000       15.9994           0
   33714 WT2  3475 TIP3 H1   HT     0.417000        1.0080           0
   33715 WT2  3475 TIP3 H2   HT     0.417000        1.0080           0
   33716 WT2  3476 TIP3 OH2  OT    -0.834000       15.9994           0
   33717 WT2  3476 TIP3 H1   HT     0.417000        1.0080           0
   33718 WT2  3476 TIP3 H2   HT     0.417000        1.0080           0
   33719 WT2  3477 TIP3 OH2  OT    -0.834000       15.9994           0
   33720 WT2  3477 TIP3 H1   HT     0.417000        1.0080           0
   33721 WT2  3477 TIP3 H2   HT     0.417000        1.0080           0
   33722 WT2  3478 TIP3 OH2  OT    -0.834000       15.9994           0
   33723 WT2  3478 TIP3 H1   HT     0.417000        1.0080           0
   33724 WT2  3478 TIP3 H2   HT     0.417000        1.0080           0
   33725 WT2  3481 TIP3 OH2  OT    -0.834000       15.9994           0
   33726 WT2  3481 TIP3 H1   HT     0.417000        1.0080           0
   33727 WT2  3481 TIP3 H2   HT     0.417000        1.0080           0
   33728 WT2  3482 TIP3 OH2  OT    -0.834000       15.9994           0
   33729 WT2  3482 TIP3 H1   HT     0.417000        1.0080           0
   33730 WT2  3482 TIP3 H2   HT     0.417000        1.0080           0
   33731 WT2  3483 TIP3 OH2  OT    -0.834000       15.9994           0
   33732 WT2  3483 TIP3 H1   HT     0.417000        1.0080           0
   33733 WT2  3483 TIP3 H2   HT     0.417000        1.0080           0
   33734 WT2  3484 TIP3 OH2  OT    -0.834000       15.9994           0
   33735 WT2  3484 TIP3 H1   HT     0.417000        1.0080           0
   33736 WT2  3484 TIP3 H2   HT     0.417000        1.0080           0
   33737 WT2  3485 TIP3 OH2  OT    -0.834000       15.9994           0
   33738 WT2  3485 TIP3 H1   HT     0.417000        1.0080           0
   33739 WT2  3485 TIP3 H2   HT     0.417000        1.0080           0
   33740 WT2  3486 TIP3 OH2  OT    -0.834000       15.9994           0
   33741 WT2  3486 TIP3 H1   HT     0.417000        1.0080           0
   33742 WT2  3486 TIP3 H2   HT     0.417000        1.0080           0
   33743 WT2  3488 TIP3 OH2  OT    -0.834000       15.9994           0
   33744 WT2  3488 TIP3 H1   HT     0.417000        1.0080           0
   33745 WT2  3488 TIP3 H2   HT     0.417000        1.0080           0
   33746 WT2  3489 TIP3 OH2  OT    -0.834000       15.9994           0
   33747 WT2  3489 TIP3 H1   HT     0.417000        1.0080           0
   33748 WT2  3489 TIP3 H2   HT     0.417000        1.0080           0
   33749 WT2  3490 TIP3 OH2  OT    -0.834000       15.9994           0
   33750 WT2  3490 TIP3 H1   HT     0.417000        1.0080           0
   33751 WT2  3490 TIP3 H2   HT     0.417000        1.0080           0
   33752 WT2  3491 TIP3 OH2  OT    -0.834000       15.9994           0
   33753 WT2  3491 TIP3 H1   HT     0.417000        1.0080           0
   33754 WT2  3491 TIP3 H2   HT     0.417000        1.0080           0
   33755 WT2  3492 TIP3 OH2  OT    -0.834000       15.9994           0
   33756 WT2  3492 TIP3 H1   HT     0.417000        1.0080           0
   33757 WT2  3492 TIP3 H2   HT     0.417000        1.0080           0
   33758 WT2  3493 TIP3 OH2  OT    -0.834000       15.9994           0
   33759 WT2  3493 TIP3 H1   HT     0.417000        1.0080           0
   33760 WT2  3493 TIP3 H2   HT     0.417000        1.0080           0
   33761 WT2  3494 TIP3 OH2  OT    -0.834000       15.9994           0
   33762 WT2  3494 TIP3 H1   HT     0.417000        1.0080           0
   33763 WT2  3494 TIP3 H2   HT     0.417000        1.0080           0
   33764 WT2  3495 TIP3 OH2  OT    -0.834000       15.9994           0
   33765 WT2  3495 TIP3 H1   HT     0.417000        1.0080           0
   33766 WT2  3495 TIP3 H2   HT     0.417000        1.0080           0
   33767 WT2  3496 TIP3 OH2  OT    -0.834000       15.9994           0
   33768 WT2  3496 TIP3 H1   HT     0.417000        1.0080           0
   33769 WT2  3496 TIP3 H2   HT     0.417000        1.0080           0
   33770 WT2  3497 TIP3 OH2  OT    -0.834000       15.9994           0
   33771 WT2  3497 TIP3 H1   HT     0.417000        1.0080           0
   33772 WT2  3497 TIP3 H2   HT     0.417000        1.0080           0
   33773 WT2  3498 TIP3 OH2  OT    -0.834000       15.9994           0
   33774 WT2  3498 TIP3 H1   HT     0.417000        1.0080           0
   33775 WT2  3498 TIP3 H2   HT     0.417000        1.0080           0
   33776 WT2  3500 TIP3 OH2  OT    -0.834000       15.9994           0
   33777 WT2  3500 TIP3 H1   HT     0.417000        1.0080           0
   33778 WT2  3500 TIP3 H2   HT     0.417000        1.0080           0
   33779 WT2  3501 TIP3 OH2  OT    -0.834000       15.9994           0
   33780 WT2  3501 TIP3 H1   HT     0.417000        1.0080           0
   33781 WT2  3501 TIP3 H2   HT     0.417000        1.0080           0
   33782 WT2  3502 TIP3 OH2  OT    -0.834000       15.9994           0
   33783 WT2  3502 TIP3 H1   HT     0.417000        1.0080           0
   33784 WT2  3502 TIP3 H2   HT     0.417000        1.0080           0
   33785 WT2  3503 TIP3 OH2  OT    -0.834000       15.9994           0
   33786 WT2  3503 TIP3 H1   HT     0.417000        1.0080           0
   33787 WT2  3503 TIP3 H2   HT     0.417000        1.0080           0
   33788 WT2  3504 TIP3 OH2  OT    -0.834000       15.9994           0
   33789 WT2  3504 TIP3 H1   HT     0.417000        1.0080           0
   33790 WT2  3504 TIP3 H2   HT     0.417000        1.0080           0
   33791 WT2  3505 TIP3 OH2  OT    -0.834000       15.9994           0
   33792 WT2  3505 TIP3 H1   HT     0.417000        1.0080           0
   33793 WT2  3505 TIP3 H2   HT     0.417000        1.0080           0
   33794 WT2  3506 TIP3 OH2  OT    -0.834000       15.9994           0
   33795 WT2  3506 TIP3 H1   HT     0.417000        1.0080           0
   33796 WT2  3506 TIP3 H2   HT     0.417000        1.0080           0
   33797 WT2  3507 TIP3 OH2  OT    -0.834000       15.9994           0
   33798 WT2  3507 TIP3 H1   HT     0.417000        1.0080           0
   33799 WT2  3507 TIP3 H2   HT     0.417000        1.0080           0
   33800 WT2  3508 TIP3 OH2  OT    -0.834000       15.9994           0
   33801 WT2  3508 TIP3 H1   HT     0.417000        1.0080           0
   33802 WT2  3508 TIP3 H2   HT     0.417000        1.0080           0
   33803 WT2  3509 TIP3 OH2  OT    -0.834000       15.9994           0
   33804 WT2  3509 TIP3 H1   HT     0.417000        1.0080           0
   33805 WT2  3509 TIP3 H2   HT     0.417000        1.0080           0
   33806 WT2  3510 TIP3 OH2  OT    -0.834000       15.9994           0
   33807 WT2  3510 TIP3 H1   HT     0.417000        1.0080           0
   33808 WT2  3510 TIP3 H2   HT     0.417000        1.0080           0
   33809 WT2  3511 TIP3 OH2  OT    -0.834000       15.9994           0
   33810 WT2  3511 TIP3 H1   HT     0.417000        1.0080           0
   33811 WT2  3511 TIP3 H2   HT     0.417000        1.0080           0
   33812 WT2  3512 TIP3 OH2  OT    -0.834000       15.9994           0
   33813 WT2  3512 TIP3 H1   HT     0.417000        1.0080           0
   33814 WT2  3512 TIP3 H2   HT     0.417000        1.0080           0
   33815 WT2  3513 TIP3 OH2  OT    -0.834000       15.9994           0
   33816 WT2  3513 TIP3 H1   HT     0.417000        1.0080           0
   33817 WT2  3513 TIP3 H2   HT     0.417000        1.0080           0
   33818 WT2  3514 TIP3 OH2  OT    -0.834000       15.9994           0
   33819 WT2  3514 TIP3 H1   HT     0.417000        1.0080           0
   33820 WT2  3514 TIP3 H2   HT     0.417000        1.0080           0
   33821 WT2  3515 TIP3 OH2  OT    -0.834000       15.9994           0
   33822 WT2  3515 TIP3 H1   HT     0.417000        1.0080           0
   33823 WT2  3515 TIP3 H2   HT     0.417000        1.0080           0
   33824 WT2  3516 TIP3 OH2  OT    -0.834000       15.9994           0
   33825 WT2  3516 TIP3 H1   HT     0.417000        1.0080           0
   33826 WT2  3516 TIP3 H2   HT     0.417000        1.0080           0
   33827 WT2  3519 TIP3 OH2  OT    -0.834000       15.9994           0
   33828 WT2  3519 TIP3 H1   HT     0.417000        1.0080           0
   33829 WT2  3519 TIP3 H2   HT     0.417000        1.0080           0
   33830 WT2  3521 TIP3 OH2  OT    -0.834000       15.9994           0
   33831 WT2  3521 TIP3 H1   HT     0.417000        1.0080           0
   33832 WT2  3521 TIP3 H2   HT     0.417000        1.0080           0
   33833 WT2  3522 TIP3 OH2  OT    -0.834000       15.9994           0
   33834 WT2  3522 TIP3 H1   HT     0.417000        1.0080           0
   33835 WT2  3522 TIP3 H2   HT     0.417000        1.0080           0
   33836 WT2  3523 TIP3 OH2  OT    -0.834000       15.9994           0
   33837 WT2  3523 TIP3 H1   HT     0.417000        1.0080           0
   33838 WT2  3523 TIP3 H2   HT     0.417000        1.0080           0
   33839 WT2  3524 TIP3 OH2  OT    -0.834000       15.9994           0
   33840 WT2  3524 TIP3 H1   HT     0.417000        1.0080           0
   33841 WT2  3524 TIP3 H2   HT     0.417000        1.0080           0
   33842 WT2  3525 TIP3 OH2  OT    -0.834000       15.9994           0
   33843 WT2  3525 TIP3 H1   HT     0.417000        1.0080           0
   33844 WT2  3525 TIP3 H2   HT     0.417000        1.0080           0
   33845 WT2  3526 TIP3 OH2  OT    -0.834000       15.9994           0
   33846 WT2  3526 TIP3 H1   HT     0.417000        1.0080           0
   33847 WT2  3526 TIP3 H2   HT     0.417000        1.0080           0
   33848 WT2  3527 TIP3 OH2  OT    -0.834000       15.9994           0
   33849 WT2  3527 TIP3 H1   HT     0.417000        1.0080           0
   33850 WT2  3527 TIP3 H2   HT     0.417000        1.0080           0
   33851 WT2  3528 TIP3 OH2  OT    -0.834000       15.9994           0
   33852 WT2  3528 TIP3 H1   HT     0.417000        1.0080           0
   33853 WT2  3528 TIP3 H2   HT     0.417000        1.0080           0
   33854 WT2  3530 TIP3 OH2  OT    -0.834000       15.9994           0
   33855 WT2  3530 TIP3 H1   HT     0.417000        1.0080           0
   33856 WT2  3530 TIP3 H2   HT     0.417000        1.0080           0
   33857 WT2  3531 TIP3 OH2  OT    -0.834000       15.9994           0
   33858 WT2  3531 TIP3 H1   HT     0.417000        1.0080           0
   33859 WT2  3531 TIP3 H2   HT     0.417000        1.0080           0
   33860 WT2  3532 TIP3 OH2  OT    -0.834000       15.9994           0
   33861 WT2  3532 TIP3 H1   HT     0.417000        1.0080           0
   33862 WT2  3532 TIP3 H2   HT     0.417000        1.0080           0
   33863 WT2  3533 TIP3 OH2  OT    -0.834000       15.9994           0
   33864 WT2  3533 TIP3 H1   HT     0.417000        1.0080           0
   33865 WT2  3533 TIP3 H2   HT     0.417000        1.0080           0
   33866 WT2  3534 TIP3 OH2  OT    -0.834000       15.9994           0
   33867 WT2  3534 TIP3 H1   HT     0.417000        1.0080           0
   33868 WT2  3534 TIP3 H2   HT     0.417000        1.0080           0
   33869 WT2  3535 TIP3 OH2  OT    -0.834000       15.9994           0
   33870 WT2  3535 TIP3 H1   HT     0.417000        1.0080           0
   33871 WT2  3535 TIP3 H2   HT     0.417000        1.0080           0
   33872 WT2  3536 TIP3 OH2  OT    -0.834000       15.9994           0
   33873 WT2  3536 TIP3 H1   HT     0.417000        1.0080           0
   33874 WT2  3536 TIP3 H2   HT     0.417000        1.0080           0
   33875 WT2  3537 TIP3 OH2  OT    -0.834000       15.9994           0
   33876 WT2  3537 TIP3 H1   HT     0.417000        1.0080           0
   33877 WT2  3537 TIP3 H2   HT     0.417000        1.0080           0
   33878 WT2  3538 TIP3 OH2  OT    -0.834000       15.9994           0
   33879 WT2  3538 TIP3 H1   HT     0.417000        1.0080           0
   33880 WT2  3538 TIP3 H2   HT     0.417000        1.0080           0
   33881 WT2  3539 TIP3 OH2  OT    -0.834000       15.9994           0
   33882 WT2  3539 TIP3 H1   HT     0.417000        1.0080           0
   33883 WT2  3539 TIP3 H2   HT     0.417000        1.0080           0
   33884 WT2  3541 TIP3 OH2  OT    -0.834000       15.9994           0
   33885 WT2  3541 TIP3 H1   HT     0.417000        1.0080           0
   33886 WT2  3541 TIP3 H2   HT     0.417000        1.0080           0
   33887 WT2  3542 TIP3 OH2  OT    -0.834000       15.9994           0
   33888 WT2  3542 TIP3 H1   HT     0.417000        1.0080           0
   33889 WT2  3542 TIP3 H2   HT     0.417000        1.0080           0
   33890 WT2  3544 TIP3 OH2  OT    -0.834000       15.9994           0
   33891 WT2  3544 TIP3 H1   HT     0.417000        1.0080           0
   33892 WT2  3544 TIP3 H2   HT     0.417000        1.0080           0
   33893 WT2  3545 TIP3 OH2  OT    -0.834000       15.9994           0
   33894 WT2  3545 TIP3 H1   HT     0.417000        1.0080           0
   33895 WT2  3545 TIP3 H2   HT     0.417000        1.0080           0
   33896 WT2  3547 TIP3 OH2  OT    -0.834000       15.9994           0
   33897 WT2  3547 TIP3 H1   HT     0.417000        1.0080           0
   33898 WT2  3547 TIP3 H2   HT     0.417000        1.0080           0
   33899 WT2  3548 TIP3 OH2  OT    -0.834000       15.9994           0
   33900 WT2  3548 TIP3 H1   HT     0.417000        1.0080           0
   33901 WT2  3548 TIP3 H2   HT     0.417000        1.0080           0
   33902 WT2  3549 TIP3 OH2  OT    -0.834000       15.9994           0
   33903 WT2  3549 TIP3 H1   HT     0.417000        1.0080           0
   33904 WT2  3549 TIP3 H2   HT     0.417000        1.0080           0
   33905 WT2  3550 TIP3 OH2  OT    -0.834000       15.9994           0
   33906 WT2  3550 TIP3 H1   HT     0.417000        1.0080           0
   33907 WT2  3550 TIP3 H2   HT     0.417000        1.0080           0
   33908 WT2  3551 TIP3 OH2  OT    -0.834000       15.9994           0
   33909 WT2  3551 TIP3 H1   HT     0.417000        1.0080           0
   33910 WT2  3551 TIP3 H2   HT     0.417000        1.0080           0
   33911 WT2  3552 TIP3 OH2  OT    -0.834000       15.9994           0
   33912 WT2  3552 TIP3 H1   HT     0.417000        1.0080           0
   33913 WT2  3552 TIP3 H2   HT     0.417000        1.0080           0
   33914 WT2  3553 TIP3 OH2  OT    -0.834000       15.9994           0
   33915 WT2  3553 TIP3 H1   HT     0.417000        1.0080           0
   33916 WT2  3553 TIP3 H2   HT     0.417000        1.0080           0
   33917 WT2  3554 TIP3 OH2  OT    -0.834000       15.9994           0
   33918 WT2  3554 TIP3 H1   HT     0.417000        1.0080           0
   33919 WT2  3554 TIP3 H2   HT     0.417000        1.0080           0
   33920 WT2  3555 TIP3 OH2  OT    -0.834000       15.9994           0
   33921 WT2  3555 TIP3 H1   HT     0.417000        1.0080           0
   33922 WT2  3555 TIP3 H2   HT     0.417000        1.0080           0
   33923 WT2  3557 TIP3 OH2  OT    -0.834000       15.9994           0
   33924 WT2  3557 TIP3 H1   HT     0.417000        1.0080           0
   33925 WT2  3557 TIP3 H2   HT     0.417000        1.0080           0
   33926 WT2  3559 TIP3 OH2  OT    -0.834000       15.9994           0
   33927 WT2  3559 TIP3 H1   HT     0.417000        1.0080           0
   33928 WT2  3559 TIP3 H2   HT     0.417000        1.0080           0
   33929 WT2  3560 TIP3 OH2  OT    -0.834000       15.9994           0
   33930 WT2  3560 TIP3 H1   HT     0.417000        1.0080           0
   33931 WT2  3560 TIP3 H2   HT     0.417000        1.0080           0
   33932 WT2  3561 TIP3 OH2  OT    -0.834000       15.9994           0
   33933 WT2  3561 TIP3 H1   HT     0.417000        1.0080           0
   33934 WT2  3561 TIP3 H2   HT     0.417000        1.0080           0
   33935 WT2  3562 TIP3 OH2  OT    -0.834000       15.9994           0
   33936 WT2  3562 TIP3 H1   HT     0.417000        1.0080           0
   33937 WT2  3562 TIP3 H2   HT     0.417000        1.0080           0
   33938 WT2  3563 TIP3 OH2  OT    -0.834000       15.9994           0
   33939 WT2  3563 TIP3 H1   HT     0.417000        1.0080           0
   33940 WT2  3563 TIP3 H2   HT     0.417000        1.0080           0
   33941 WT2  3565 TIP3 OH2  OT    -0.834000       15.9994           0
   33942 WT2  3565 TIP3 H1   HT     0.417000        1.0080           0
   33943 WT2  3565 TIP3 H2   HT     0.417000        1.0080           0
   33944 WT2  3566 TIP3 OH2  OT    -0.834000       15.9994           0
   33945 WT2  3566 TIP3 H1   HT     0.417000        1.0080           0
   33946 WT2  3566 TIP3 H2   HT     0.417000        1.0080           0
   33947 WT2  3568 TIP3 OH2  OT    -0.834000       15.9994           0
   33948 WT2  3568 TIP3 H1   HT     0.417000        1.0080           0
   33949 WT2  3568 TIP3 H2   HT     0.417000        1.0080           0
   33950 WT2  3569 TIP3 OH2  OT    -0.834000       15.9994           0
   33951 WT2  3569 TIP3 H1   HT     0.417000        1.0080           0
   33952 WT2  3569 TIP3 H2   HT     0.417000        1.0080           0
   33953 WT2  3570 TIP3 OH2  OT    -0.834000       15.9994           0
   33954 WT2  3570 TIP3 H1   HT     0.417000        1.0080           0
   33955 WT2  3570 TIP3 H2   HT     0.417000        1.0080           0
   33956 WT2  3571 TIP3 OH2  OT    -0.834000       15.9994           0
   33957 WT2  3571 TIP3 H1   HT     0.417000        1.0080           0
   33958 WT2  3571 TIP3 H2   HT     0.417000        1.0080           0
   33959 WT2  3572 TIP3 OH2  OT    -0.834000       15.9994           0
   33960 WT2  3572 TIP3 H1   HT     0.417000        1.0080           0
   33961 WT2  3572 TIP3 H2   HT     0.417000        1.0080           0
   33962 WT2  3573 TIP3 OH2  OT    -0.834000       15.9994           0
   33963 WT2  3573 TIP3 H1   HT     0.417000        1.0080           0
   33964 WT2  3573 TIP3 H2   HT     0.417000        1.0080           0
   33965 WT2  3574 TIP3 OH2  OT    -0.834000       15.9994           0
   33966 WT2  3574 TIP3 H1   HT     0.417000        1.0080           0
   33967 WT2  3574 TIP3 H2   HT     0.417000        1.0080           0
   33968 WT2  3575 TIP3 OH2  OT    -0.834000       15.9994           0
   33969 WT2  3575 TIP3 H1   HT     0.417000        1.0080           0
   33970 WT2  3575 TIP3 H2   HT     0.417000        1.0080           0
   33971 WT2  3576 TIP3 OH2  OT    -0.834000       15.9994           0
   33972 WT2  3576 TIP3 H1   HT     0.417000        1.0080           0
   33973 WT2  3576 TIP3 H2   HT     0.417000        1.0080           0
   33974 WT2  3577 TIP3 OH2  OT    -0.834000       15.9994           0
   33975 WT2  3577 TIP3 H1   HT     0.417000        1.0080           0
   33976 WT2  3577 TIP3 H2   HT     0.417000        1.0080           0
   33977 WT2  3578 TIP3 OH2  OT    -0.834000       15.9994           0
   33978 WT2  3578 TIP3 H1   HT     0.417000        1.0080           0
   33979 WT2  3578 TIP3 H2   HT     0.417000        1.0080           0
   33980 WT2  3579 TIP3 OH2  OT    -0.834000       15.9994           0
   33981 WT2  3579 TIP3 H1   HT     0.417000        1.0080           0
   33982 WT2  3579 TIP3 H2   HT     0.417000        1.0080           0
   33983 WT2  3580 TIP3 OH2  OT    -0.834000       15.9994           0
   33984 WT2  3580 TIP3 H1   HT     0.417000        1.0080           0
   33985 WT2  3580 TIP3 H2   HT     0.417000        1.0080           0
   33986 WT2  3581 TIP3 OH2  OT    -0.834000       15.9994           0
   33987 WT2  3581 TIP3 H1   HT     0.417000        1.0080           0
   33988 WT2  3581 TIP3 H2   HT     0.417000        1.0080           0
   33989 WT2  3582 TIP3 OH2  OT    -0.834000       15.9994           0
   33990 WT2  3582 TIP3 H1   HT     0.417000        1.0080           0
   33991 WT2  3582 TIP3 H2   HT     0.417000        1.0080           0
   33992 WT2  3583 TIP3 OH2  OT    -0.834000       15.9994           0
   33993 WT2  3583 TIP3 H1   HT     0.417000        1.0080           0
   33994 WT2  3583 TIP3 H2   HT     0.417000        1.0080           0
   33995 WT2  3584 TIP3 OH2  OT    -0.834000       15.9994           0
   33996 WT2  3584 TIP3 H1   HT     0.417000        1.0080           0
   33997 WT2  3584 TIP3 H2   HT     0.417000        1.0080           0
   33998 WT2  3585 TIP3 OH2  OT    -0.834000       15.9994           0
   33999 WT2  3585 TIP3 H1   HT     0.417000        1.0080           0
   34000 WT2  3585 TIP3 H2   HT     0.417000        1.0080           0
   34001 WT2  3586 TIP3 OH2  OT    -0.834000       15.9994           0
   34002 WT2  3586 TIP3 H1   HT     0.417000        1.0080           0
   34003 WT2  3586 TIP3 H2   HT     0.417000        1.0080           0
   34004 WT2  3587 TIP3 OH2  OT    -0.834000       15.9994           0
   34005 WT2  3587 TIP3 H1   HT     0.417000        1.0080           0
   34006 WT2  3587 TIP3 H2   HT     0.417000        1.0080           0
   34007 WT2  3588 TIP3 OH2  OT    -0.834000       15.9994           0
   34008 WT2  3588 TIP3 H1   HT     0.417000        1.0080           0
   34009 WT2  3588 TIP3 H2   HT     0.417000        1.0080           0
   34010 WT2  3589 TIP3 OH2  OT    -0.834000       15.9994           0
   34011 WT2  3589 TIP3 H1   HT     0.417000        1.0080           0
   34012 WT2  3589 TIP3 H2   HT     0.417000        1.0080           0
   34013 WT2  3590 TIP3 OH2  OT    -0.834000       15.9994           0
   34014 WT2  3590 TIP3 H1   HT     0.417000        1.0080           0
   34015 WT2  3590 TIP3 H2   HT     0.417000        1.0080           0
   34016 WT2  3591 TIP3 OH2  OT    -0.834000       15.9994           0
   34017 WT2  3591 TIP3 H1   HT     0.417000        1.0080           0
   34018 WT2  3591 TIP3 H2   HT     0.417000        1.0080           0
   34019 WT2  3592 TIP3 OH2  OT    -0.834000       15.9994           0
   34020 WT2  3592 TIP3 H1   HT     0.417000        1.0080           0
   34021 WT2  3592 TIP3 H2   HT     0.417000        1.0080           0
   34022 WT2  3594 TIP3 OH2  OT    -0.834000       15.9994           0
   34023 WT2  3594 TIP3 H1   HT     0.417000        1.0080           0
   34024 WT2  3594 TIP3 H2   HT     0.417000        1.0080           0
   34025 WT2  3595 TIP3 OH2  OT    -0.834000       15.9994           0
   34026 WT2  3595 TIP3 H1   HT     0.417000        1.0080           0
   34027 WT2  3595 TIP3 H2   HT     0.417000        1.0080           0
   34028 WT2  3597 TIP3 OH2  OT    -0.834000       15.9994           0
   34029 WT2  3597 TIP3 H1   HT     0.417000        1.0080           0
   34030 WT2  3597 TIP3 H2   HT     0.417000        1.0080           0
   34031 WT2  3598 TIP3 OH2  OT    -0.834000       15.9994           0
   34032 WT2  3598 TIP3 H1   HT     0.417000        1.0080           0
   34033 WT2  3598 TIP3 H2   HT     0.417000        1.0080           0
   34034 WT2  3599 TIP3 OH2  OT    -0.834000       15.9994           0
   34035 WT2  3599 TIP3 H1   HT     0.417000        1.0080           0
   34036 WT2  3599 TIP3 H2   HT     0.417000        1.0080           0
   34037 WT2  3600 TIP3 OH2  OT    -0.834000       15.9994           0
   34038 WT2  3600 TIP3 H1   HT     0.417000        1.0080           0
   34039 WT2  3600 TIP3 H2   HT     0.417000        1.0080           0
   34040 WT2  3601 TIP3 OH2  OT    -0.834000       15.9994           0
   34041 WT2  3601 TIP3 H1   HT     0.417000        1.0080           0
   34042 WT2  3601 TIP3 H2   HT     0.417000        1.0080           0
   34043 WT2  3602 TIP3 OH2  OT    -0.834000       15.9994           0
   34044 WT2  3602 TIP3 H1   HT     0.417000        1.0080           0
   34045 WT2  3602 TIP3 H2   HT     0.417000        1.0080           0
   34046 WT2  3603 TIP3 OH2  OT    -0.834000       15.9994           0
   34047 WT2  3603 TIP3 H1   HT     0.417000        1.0080           0
   34048 WT2  3603 TIP3 H2   HT     0.417000        1.0080           0
   34049 WT2  3604 TIP3 OH2  OT    -0.834000       15.9994           0
   34050 WT2  3604 TIP3 H1   HT     0.417000        1.0080           0
   34051 WT2  3604 TIP3 H2   HT     0.417000        1.0080           0
   34052 WT2  3605 TIP3 OH2  OT    -0.834000       15.9994           0
   34053 WT2  3605 TIP3 H1   HT     0.417000        1.0080           0
   34054 WT2  3605 TIP3 H2   HT     0.417000        1.0080           0
   34055 WT2  3608 TIP3 OH2  OT    -0.834000       15.9994           0
   34056 WT2  3608 TIP3 H1   HT     0.417000        1.0080           0
   34057 WT2  3608 TIP3 H2   HT     0.417000        1.0080           0
   34058 WT2  3609 TIP3 OH2  OT    -0.834000       15.9994           0
   34059 WT2  3609 TIP3 H1   HT     0.417000        1.0080           0
   34060 WT2  3609 TIP3 H2   HT     0.417000        1.0080           0
   34061 WT2  3610 TIP3 OH2  OT    -0.834000       15.9994           0
   34062 WT2  3610 TIP3 H1   HT     0.417000        1.0080           0
   34063 WT2  3610 TIP3 H2   HT     0.417000        1.0080           0
   34064 WT2  3611 TIP3 OH2  OT    -0.834000       15.9994           0
   34065 WT2  3611 TIP3 H1   HT     0.417000        1.0080           0
   34066 WT2  3611 TIP3 H2   HT     0.417000        1.0080           0
   34067 WT2  3612 TIP3 OH2  OT    -0.834000       15.9994           0
   34068 WT2  3612 TIP3 H1   HT     0.417000        1.0080           0
   34069 WT2  3612 TIP3 H2   HT     0.417000        1.0080           0
   34070 WT2  3613 TIP3 OH2  OT    -0.834000       15.9994           0
   34071 WT2  3613 TIP3 H1   HT     0.417000        1.0080           0
   34072 WT2  3613 TIP3 H2   HT     0.417000        1.0080           0
   34073 WT2  3614 TIP3 OH2  OT    -0.834000       15.9994           0
   34074 WT2  3614 TIP3 H1   HT     0.417000        1.0080           0
   34075 WT2  3614 TIP3 H2   HT     0.417000        1.0080           0
   34076 WT2  3615 TIP3 OH2  OT    -0.834000       15.9994           0
   34077 WT2  3615 TIP3 H1   HT     0.417000        1.0080           0
   34078 WT2  3615 TIP3 H2   HT     0.417000        1.0080           0
   34079 WT2  3616 TIP3 OH2  OT    -0.834000       15.9994           0
   34080 WT2  3616 TIP3 H1   HT     0.417000        1.0080           0
   34081 WT2  3616 TIP3 H2   HT     0.417000        1.0080           0
   34082 WT2  3617 TIP3 OH2  OT    -0.834000       15.9994           0
   34083 WT2  3617 TIP3 H1   HT     0.417000        1.0080           0
   34084 WT2  3617 TIP3 H2   HT     0.417000        1.0080           0
   34085 WT2  3618 TIP3 OH2  OT    -0.834000       15.9994           0
   34086 WT2  3618 TIP3 H1   HT     0.417000        1.0080           0
   34087 WT2  3618 TIP3 H2   HT     0.417000        1.0080           0
   34088 WT2  3619 TIP3 OH2  OT    -0.834000       15.9994           0
   34089 WT2  3619 TIP3 H1   HT     0.417000        1.0080           0
   34090 WT2  3619 TIP3 H2   HT     0.417000        1.0080           0
   34091 WT2  3620 TIP3 OH2  OT    -0.834000       15.9994           0
   34092 WT2  3620 TIP3 H1   HT     0.417000        1.0080           0
   34093 WT2  3620 TIP3 H2   HT     0.417000        1.0080           0
   34094 WT2  3621 TIP3 OH2  OT    -0.834000       15.9994           0
   34095 WT2  3621 TIP3 H1   HT     0.417000        1.0080           0
   34096 WT2  3621 TIP3 H2   HT     0.417000        1.0080           0
   34097 WT2  3623 TIP3 OH2  OT    -0.834000       15.9994           0
   34098 WT2  3623 TIP3 H1   HT     0.417000        1.0080           0
   34099 WT2  3623 TIP3 H2   HT     0.417000        1.0080           0
   34100 WT2  3625 TIP3 OH2  OT    -0.834000       15.9994           0
   34101 WT2  3625 TIP3 H1   HT     0.417000        1.0080           0
   34102 WT2  3625 TIP3 H2   HT     0.417000        1.0080           0
   34103 WT2  3628 TIP3 OH2  OT    -0.834000       15.9994           0
   34104 WT2  3628 TIP3 H1   HT     0.417000        1.0080           0
   34105 WT2  3628 TIP3 H2   HT     0.417000        1.0080           0
   34106 WT2  3629 TIP3 OH2  OT    -0.834000       15.9994           0
   34107 WT2  3629 TIP3 H1   HT     0.417000        1.0080           0
   34108 WT2  3629 TIP3 H2   HT     0.417000        1.0080           0
   34109 WT2  3630 TIP3 OH2  OT    -0.834000       15.9994           0
   34110 WT2  3630 TIP3 H1   HT     0.417000        1.0080           0
   34111 WT2  3630 TIP3 H2   HT     0.417000        1.0080           0
   34112 WT2  3631 TIP3 OH2  OT    -0.834000       15.9994           0
   34113 WT2  3631 TIP3 H1   HT     0.417000        1.0080           0
   34114 WT2  3631 TIP3 H2   HT     0.417000        1.0080           0
   34115 WT2  3632 TIP3 OH2  OT    -0.834000       15.9994           0
   34116 WT2  3632 TIP3 H1   HT     0.417000        1.0080           0
   34117 WT2  3632 TIP3 H2   HT     0.417000        1.0080           0
   34118 WT2  3633 TIP3 OH2  OT    -0.834000       15.9994           0
   34119 WT2  3633 TIP3 H1   HT     0.417000        1.0080           0
   34120 WT2  3633 TIP3 H2   HT     0.417000        1.0080           0
   34121 WT2  3634 TIP3 OH2  OT    -0.834000       15.9994           0
   34122 WT2  3634 TIP3 H1   HT     0.417000        1.0080           0
   34123 WT2  3634 TIP3 H2   HT     0.417000        1.0080           0
   34124 WT2  3635 TIP3 OH2  OT    -0.834000       15.9994           0
   34125 WT2  3635 TIP3 H1   HT     0.417000        1.0080           0
   34126 WT2  3635 TIP3 H2   HT     0.417000        1.0080           0
   34127 WT2  3636 TIP3 OH2  OT    -0.834000       15.9994           0
   34128 WT2  3636 TIP3 H1   HT     0.417000        1.0080           0
   34129 WT2  3636 TIP3 H2   HT     0.417000        1.0080           0
   34130 WT2  3637 TIP3 OH2  OT    -0.834000       15.9994           0
   34131 WT2  3637 TIP3 H1   HT     0.417000        1.0080           0
   34132 WT2  3637 TIP3 H2   HT     0.417000        1.0080           0
   34133 WT2  3638 TIP3 OH2  OT    -0.834000       15.9994           0
   34134 WT2  3638 TIP3 H1   HT     0.417000        1.0080           0
   34135 WT2  3638 TIP3 H2   HT     0.417000        1.0080           0
   34136 WT2  3639 TIP3 OH2  OT    -0.834000       15.9994           0
   34137 WT2  3639 TIP3 H1   HT     0.417000        1.0080           0
   34138 WT2  3639 TIP3 H2   HT     0.417000        1.0080           0
   34139 WT2  3640 TIP3 OH2  OT    -0.834000       15.9994           0
   34140 WT2  3640 TIP3 H1   HT     0.417000        1.0080           0
   34141 WT2  3640 TIP3 H2   HT     0.417000        1.0080           0
   34142 WT2  3641 TIP3 OH2  OT    -0.834000       15.9994           0
   34143 WT2  3641 TIP3 H1   HT     0.417000        1.0080           0
   34144 WT2  3641 TIP3 H2   HT     0.417000        1.0080           0
   34145 WT2  3642 TIP3 OH2  OT    -0.834000       15.9994           0
   34146 WT2  3642 TIP3 H1   HT     0.417000        1.0080           0
   34147 WT2  3642 TIP3 H2   HT     0.417000        1.0080           0
   34148 WT2  3643 TIP3 OH2  OT    -0.834000       15.9994           0
   34149 WT2  3643 TIP3 H1   HT     0.417000        1.0080           0
   34150 WT2  3643 TIP3 H2   HT     0.417000        1.0080           0
   34151 WT2  3644 TIP3 OH2  OT    -0.834000       15.9994           0
   34152 WT2  3644 TIP3 H1   HT     0.417000        1.0080           0
   34153 WT2  3644 TIP3 H2   HT     0.417000        1.0080           0
   34154 WT2  3645 TIP3 OH2  OT    -0.834000       15.9994           0
   34155 WT2  3645 TIP3 H1   HT     0.417000        1.0080           0
   34156 WT2  3645 TIP3 H2   HT     0.417000        1.0080           0
   34157 WT2  3646 TIP3 OH2  OT    -0.834000       15.9994           0
   34158 WT2  3646 TIP3 H1   HT     0.417000        1.0080           0
   34159 WT2  3646 TIP3 H2   HT     0.417000        1.0080           0
   34160 WT2  3647 TIP3 OH2  OT    -0.834000       15.9994           0
   34161 WT2  3647 TIP3 H1   HT     0.417000        1.0080           0
   34162 WT2  3647 TIP3 H2   HT     0.417000        1.0080           0
   34163 WT2  3648 TIP3 OH2  OT    -0.834000       15.9994           0
   34164 WT2  3648 TIP3 H1   HT     0.417000        1.0080           0
   34165 WT2  3648 TIP3 H2   HT     0.417000        1.0080           0
   34166 WT2  3649 TIP3 OH2  OT    -0.834000       15.9994           0
   34167 WT2  3649 TIP3 H1   HT     0.417000        1.0080           0
   34168 WT2  3649 TIP3 H2   HT     0.417000        1.0080           0
   34169 WT2  3650 TIP3 OH2  OT    -0.834000       15.9994           0
   34170 WT2  3650 TIP3 H1   HT     0.417000        1.0080           0
   34171 WT2  3650 TIP3 H2   HT     0.417000        1.0080           0
   34172 WT2  3651 TIP3 OH2  OT    -0.834000       15.9994           0
   34173 WT2  3651 TIP3 H1   HT     0.417000        1.0080           0
   34174 WT2  3651 TIP3 H2   HT     0.417000        1.0080           0
   34175 WT2  3652 TIP3 OH2  OT    -0.834000       15.9994           0
   34176 WT2  3652 TIP3 H1   HT     0.417000        1.0080           0
   34177 WT2  3652 TIP3 H2   HT     0.417000        1.0080           0
   34178 WT2  3653 TIP3 OH2  OT    -0.834000       15.9994           0
   34179 WT2  3653 TIP3 H1   HT     0.417000        1.0080           0
   34180 WT2  3653 TIP3 H2   HT     0.417000        1.0080           0
   34181 WT2  3654 TIP3 OH2  OT    -0.834000       15.9994           0
   34182 WT2  3654 TIP3 H1   HT     0.417000        1.0080           0
   34183 WT2  3654 TIP3 H2   HT     0.417000        1.0080           0
   34184 WT2  3655 TIP3 OH2  OT    -0.834000       15.9994           0
   34185 WT2  3655 TIP3 H1   HT     0.417000        1.0080           0
   34186 WT2  3655 TIP3 H2   HT     0.417000        1.0080           0
   34187 WT2  3656 TIP3 OH2  OT    -0.834000       15.9994           0
   34188 WT2  3656 TIP3 H1   HT     0.417000        1.0080           0
   34189 WT2  3656 TIP3 H2   HT     0.417000        1.0080           0
   34190 WT2  3657 TIP3 OH2  OT    -0.834000       15.9994           0
   34191 WT2  3657 TIP3 H1   HT     0.417000        1.0080           0
   34192 WT2  3657 TIP3 H2   HT     0.417000        1.0080           0
   34193 WT2  3658 TIP3 OH2  OT    -0.834000       15.9994           0
   34194 WT2  3658 TIP3 H1   HT     0.417000        1.0080           0
   34195 WT2  3658 TIP3 H2   HT     0.417000        1.0080           0
   34196 WT2  3659 TIP3 OH2  OT    -0.834000       15.9994           0
   34197 WT2  3659 TIP3 H1   HT     0.417000        1.0080           0
   34198 WT2  3659 TIP3 H2   HT     0.417000        1.0080           0
   34199 WT2  3660 TIP3 OH2  OT    -0.834000       15.9994           0
   34200 WT2  3660 TIP3 H1   HT     0.417000        1.0080           0
   34201 WT2  3660 TIP3 H2   HT     0.417000        1.0080           0
   34202 WT2  3661 TIP3 OH2  OT    -0.834000       15.9994           0
   34203 WT2  3661 TIP3 H1   HT     0.417000        1.0080           0
   34204 WT2  3661 TIP3 H2   HT     0.417000        1.0080           0
   34205 WT2  3662 TIP3 OH2  OT    -0.834000       15.9994           0
   34206 WT2  3662 TIP3 H1   HT     0.417000        1.0080           0
   34207 WT2  3662 TIP3 H2   HT     0.417000        1.0080           0
   34208 WT2  3663 TIP3 OH2  OT    -0.834000       15.9994           0
   34209 WT2  3663 TIP3 H1   HT     0.417000        1.0080           0
   34210 WT2  3663 TIP3 H2   HT     0.417000        1.0080           0
   34211 WT2  3665 TIP3 OH2  OT    -0.834000       15.9994           0
   34212 WT2  3665 TIP3 H1   HT     0.417000        1.0080           0
   34213 WT2  3665 TIP3 H2   HT     0.417000        1.0080           0
   34214 WT2  3666 TIP3 OH2  OT    -0.834000       15.9994           0
   34215 WT2  3666 TIP3 H1   HT     0.417000        1.0080           0
   34216 WT2  3666 TIP3 H2   HT     0.417000        1.0080           0
   34217 WT2  3667 TIP3 OH2  OT    -0.834000       15.9994           0
   34218 WT2  3667 TIP3 H1   HT     0.417000        1.0080           0
   34219 WT2  3667 TIP3 H2   HT     0.417000        1.0080           0
   34220 WT2  3669 TIP3 OH2  OT    -0.834000       15.9994           0
   34221 WT2  3669 TIP3 H1   HT     0.417000        1.0080           0
   34222 WT2  3669 TIP3 H2   HT     0.417000        1.0080           0
   34223 WT2  3670 TIP3 OH2  OT    -0.834000       15.9994           0
   34224 WT2  3670 TIP3 H1   HT     0.417000        1.0080           0
   34225 WT2  3670 TIP3 H2   HT     0.417000        1.0080           0
   34226 WT2  3671 TIP3 OH2  OT    -0.834000       15.9994           0
   34227 WT2  3671 TIP3 H1   HT     0.417000        1.0080           0
   34228 WT2  3671 TIP3 H2   HT     0.417000        1.0080           0
   34229 WT2  3672 TIP3 OH2  OT    -0.834000       15.9994           0
   34230 WT2  3672 TIP3 H1   HT     0.417000        1.0080           0
   34231 WT2  3672 TIP3 H2   HT     0.417000        1.0080           0
   34232 WT2  3673 TIP3 OH2  OT    -0.834000       15.9994           0
   34233 WT2  3673 TIP3 H1   HT     0.417000        1.0080           0
   34234 WT2  3673 TIP3 H2   HT     0.417000        1.0080           0
   34235 WT2  3674 TIP3 OH2  OT    -0.834000       15.9994           0
   34236 WT2  3674 TIP3 H1   HT     0.417000        1.0080           0
   34237 WT2  3674 TIP3 H2   HT     0.417000        1.0080           0
   34238 WT2  3675 TIP3 OH2  OT    -0.834000       15.9994           0
   34239 WT2  3675 TIP3 H1   HT     0.417000        1.0080           0
   34240 WT2  3675 TIP3 H2   HT     0.417000        1.0080           0
   34241 WT2  3677 TIP3 OH2  OT    -0.834000       15.9994           0
   34242 WT2  3677 TIP3 H1   HT     0.417000        1.0080           0
   34243 WT2  3677 TIP3 H2   HT     0.417000        1.0080           0
   34244 WT2  3678 TIP3 OH2  OT    -0.834000       15.9994           0
   34245 WT2  3678 TIP3 H1   HT     0.417000        1.0080           0
   34246 WT2  3678 TIP3 H2   HT     0.417000        1.0080           0
   34247 WT2  3679 TIP3 OH2  OT    -0.834000       15.9994           0
   34248 WT2  3679 TIP3 H1   HT     0.417000        1.0080           0
   34249 WT2  3679 TIP3 H2   HT     0.417000        1.0080           0
   34250 WT2  3680 TIP3 OH2  OT    -0.834000       15.9994           0
   34251 WT2  3680 TIP3 H1   HT     0.417000        1.0080           0
   34252 WT2  3680 TIP3 H2   HT     0.417000        1.0080           0
   34253 WT2  3681 TIP3 OH2  OT    -0.834000       15.9994           0
   34254 WT2  3681 TIP3 H1   HT     0.417000        1.0080           0
   34255 WT2  3681 TIP3 H2   HT     0.417000        1.0080           0
   34256 WT2  3682 TIP3 OH2  OT    -0.834000       15.9994           0
   34257 WT2  3682 TIP3 H1   HT     0.417000        1.0080           0
   34258 WT2  3682 TIP3 H2   HT     0.417000        1.0080           0
   34259 WT2  3683 TIP3 OH2  OT    -0.834000       15.9994           0
   34260 WT2  3683 TIP3 H1   HT     0.417000        1.0080           0
   34261 WT2  3683 TIP3 H2   HT     0.417000        1.0080           0
   34262 WT2  3684 TIP3 OH2  OT    -0.834000       15.9994           0
   34263 WT2  3684 TIP3 H1   HT     0.417000        1.0080           0
   34264 WT2  3684 TIP3 H2   HT     0.417000        1.0080           0
   34265 WT2  3685 TIP3 OH2  OT    -0.834000       15.9994           0
   34266 WT2  3685 TIP3 H1   HT     0.417000        1.0080           0
   34267 WT2  3685 TIP3 H2   HT     0.417000        1.0080           0
   34268 WT2  3687 TIP3 OH2  OT    -0.834000       15.9994           0
   34269 WT2  3687 TIP3 H1   HT     0.417000        1.0080           0
   34270 WT2  3687 TIP3 H2   HT     0.417000        1.0080           0
   34271 WT2  3688 TIP3 OH2  OT    -0.834000       15.9994           0
   34272 WT2  3688 TIP3 H1   HT     0.417000        1.0080           0
   34273 WT2  3688 TIP3 H2   HT     0.417000        1.0080           0
   34274 WT2  3689 TIP3 OH2  OT    -0.834000       15.9994           0
   34275 WT2  3689 TIP3 H1   HT     0.417000        1.0080           0
   34276 WT2  3689 TIP3 H2   HT     0.417000        1.0080           0
   34277 WT2  3690 TIP3 OH2  OT    -0.834000       15.9994           0
   34278 WT2  3690 TIP3 H1   HT     0.417000        1.0080           0
   34279 WT2  3690 TIP3 H2   HT     0.417000        1.0080           0
   34280 WT2  3691 TIP3 OH2  OT    -0.834000       15.9994           0
   34281 WT2  3691 TIP3 H1   HT     0.417000        1.0080           0
   34282 WT2  3691 TIP3 H2   HT     0.417000        1.0080           0
   34283 WT2  3692 TIP3 OH2  OT    -0.834000       15.9994           0
   34284 WT2  3692 TIP3 H1   HT     0.417000        1.0080           0
   34285 WT2  3692 TIP3 H2   HT     0.417000        1.0080           0
   34286 WT2  3693 TIP3 OH2  OT    -0.834000       15.9994           0
   34287 WT2  3693 TIP3 H1   HT     0.417000        1.0080           0
   34288 WT2  3693 TIP3 H2   HT     0.417000        1.0080           0
   34289 WT2  3694 TIP3 OH2  OT    -0.834000       15.9994           0
   34290 WT2  3694 TIP3 H1   HT     0.417000        1.0080           0
   34291 WT2  3694 TIP3 H2   HT     0.417000        1.0080           0
   34292 WT2  3695 TIP3 OH2  OT    -0.834000       15.9994           0
   34293 WT2  3695 TIP3 H1   HT     0.417000        1.0080           0
   34294 WT2  3695 TIP3 H2   HT     0.417000        1.0080           0
   34295 WT2  3697 TIP3 OH2  OT    -0.834000       15.9994           0
   34296 WT2  3697 TIP3 H1   HT     0.417000        1.0080           0
   34297 WT2  3697 TIP3 H2   HT     0.417000        1.0080           0
   34298 WT2  3698 TIP3 OH2  OT    -0.834000       15.9994           0
   34299 WT2  3698 TIP3 H1   HT     0.417000        1.0080           0
   34300 WT2  3698 TIP3 H2   HT     0.417000        1.0080           0
   34301 WT2  3700 TIP3 OH2  OT    -0.834000       15.9994           0
   34302 WT2  3700 TIP3 H1   HT     0.417000        1.0080           0
   34303 WT2  3700 TIP3 H2   HT     0.417000        1.0080           0
   34304 WT2  3701 TIP3 OH2  OT    -0.834000       15.9994           0
   34305 WT2  3701 TIP3 H1   HT     0.417000        1.0080           0
   34306 WT2  3701 TIP3 H2   HT     0.417000        1.0080           0
   34307 WT2  3702 TIP3 OH2  OT    -0.834000       15.9994           0
   34308 WT2  3702 TIP3 H1   HT     0.417000        1.0080           0
   34309 WT2  3702 TIP3 H2   HT     0.417000        1.0080           0
   34310 WT2  3703 TIP3 OH2  OT    -0.834000       15.9994           0
   34311 WT2  3703 TIP3 H1   HT     0.417000        1.0080           0
   34312 WT2  3703 TIP3 H2   HT     0.417000        1.0080           0
   34313 WT2  3704 TIP3 OH2  OT    -0.834000       15.9994           0
   34314 WT2  3704 TIP3 H1   HT     0.417000        1.0080           0
   34315 WT2  3704 TIP3 H2   HT     0.417000        1.0080           0
   34316 WT2  3706 TIP3 OH2  OT    -0.834000       15.9994           0
   34317 WT2  3706 TIP3 H1   HT     0.417000        1.0080           0
   34318 WT2  3706 TIP3 H2   HT     0.417000        1.0080           0
   34319 WT2  3707 TIP3 OH2  OT    -0.834000       15.9994           0
   34320 WT2  3707 TIP3 H1   HT     0.417000        1.0080           0
   34321 WT2  3707 TIP3 H2   HT     0.417000        1.0080           0
   34322 WT2  3708 TIP3 OH2  OT    -0.834000       15.9994           0
   34323 WT2  3708 TIP3 H1   HT     0.417000        1.0080           0
   34324 WT2  3708 TIP3 H2   HT     0.417000        1.0080           0
   34325 WT2  3709 TIP3 OH2  OT    -0.834000       15.9994           0
   34326 WT2  3709 TIP3 H1   HT     0.417000        1.0080           0
   34327 WT2  3709 TIP3 H2   HT     0.417000        1.0080           0
   34328 WT2  3710 TIP3 OH2  OT    -0.834000       15.9994           0
   34329 WT2  3710 TIP3 H1   HT     0.417000        1.0080           0
   34330 WT2  3710 TIP3 H2   HT     0.417000        1.0080           0
   34331 WT2  3711 TIP3 OH2  OT    -0.834000       15.9994           0
   34332 WT2  3711 TIP3 H1   HT     0.417000        1.0080           0
   34333 WT2  3711 TIP3 H2   HT     0.417000        1.0080           0
   34334 WT2  3713 TIP3 OH2  OT    -0.834000       15.9994           0
   34335 WT2  3713 TIP3 H1   HT     0.417000        1.0080           0
   34336 WT2  3713 TIP3 H2   HT     0.417000        1.0080           0
   34337 WT2  3714 TIP3 OH2  OT    -0.834000       15.9994           0
   34338 WT2  3714 TIP3 H1   HT     0.417000        1.0080           0
   34339 WT2  3714 TIP3 H2   HT     0.417000        1.0080           0
   34340 WT2  3715 TIP3 OH2  OT    -0.834000       15.9994           0
   34341 WT2  3715 TIP3 H1   HT     0.417000        1.0080           0
   34342 WT2  3715 TIP3 H2   HT     0.417000        1.0080           0
   34343 WT2  3716 TIP3 OH2  OT    -0.834000       15.9994           0
   34344 WT2  3716 TIP3 H1   HT     0.417000        1.0080           0
   34345 WT2  3716 TIP3 H2   HT     0.417000        1.0080           0
   34346 WT2  3717 TIP3 OH2  OT    -0.834000       15.9994           0
   34347 WT2  3717 TIP3 H1   HT     0.417000        1.0080           0
   34348 WT2  3717 TIP3 H2   HT     0.417000        1.0080           0
   34349 WT2  3718 TIP3 OH2  OT    -0.834000       15.9994           0
   34350 WT2  3718 TIP3 H1   HT     0.417000        1.0080           0
   34351 WT2  3718 TIP3 H2   HT     0.417000        1.0080           0
   34352 WT2  3719 TIP3 OH2  OT    -0.834000       15.9994           0
   34353 WT2  3719 TIP3 H1   HT     0.417000        1.0080           0
   34354 WT2  3719 TIP3 H2   HT     0.417000        1.0080           0
   34355 WT2  3721 TIP3 OH2  OT    -0.834000       15.9994           0
   34356 WT2  3721 TIP3 H1   HT     0.417000        1.0080           0
   34357 WT2  3721 TIP3 H2   HT     0.417000        1.0080           0
   34358 WT2  3722 TIP3 OH2  OT    -0.834000       15.9994           0
   34359 WT2  3722 TIP3 H1   HT     0.417000        1.0080           0
   34360 WT2  3722 TIP3 H2   HT     0.417000        1.0080           0
   34361 WT2  3723 TIP3 OH2  OT    -0.834000       15.9994           0
   34362 WT2  3723 TIP3 H1   HT     0.417000        1.0080           0
   34363 WT2  3723 TIP3 H2   HT     0.417000        1.0080           0
   34364 WT2  3724 TIP3 OH2  OT    -0.834000       15.9994           0
   34365 WT2  3724 TIP3 H1   HT     0.417000        1.0080           0
   34366 WT2  3724 TIP3 H2   HT     0.417000        1.0080           0
   34367 WT2  3725 TIP3 OH2  OT    -0.834000       15.9994           0
   34368 WT2  3725 TIP3 H1   HT     0.417000        1.0080           0
   34369 WT2  3725 TIP3 H2   HT     0.417000        1.0080           0
   34370 WT2  3726 TIP3 OH2  OT    -0.834000       15.9994           0
   34371 WT2  3726 TIP3 H1   HT     0.417000        1.0080           0
   34372 WT2  3726 TIP3 H2   HT     0.417000        1.0080           0
   34373 WT2  3727 TIP3 OH2  OT    -0.834000       15.9994           0
   34374 WT2  3727 TIP3 H1   HT     0.417000        1.0080           0
   34375 WT2  3727 TIP3 H2   HT     0.417000        1.0080           0
   34376 WT2  3728 TIP3 OH2  OT    -0.834000       15.9994           0
   34377 WT2  3728 TIP3 H1   HT     0.417000        1.0080           0
   34378 WT2  3728 TIP3 H2   HT     0.417000        1.0080           0
   34379 WT2  3729 TIP3 OH2  OT    -0.834000       15.9994           0
   34380 WT2  3729 TIP3 H1   HT     0.417000        1.0080           0
   34381 WT2  3729 TIP3 H2   HT     0.417000        1.0080           0
   34382 WT2  3730 TIP3 OH2  OT    -0.834000       15.9994           0
   34383 WT2  3730 TIP3 H1   HT     0.417000        1.0080           0
   34384 WT2  3730 TIP3 H2   HT     0.417000        1.0080           0
   34385 WT2  3731 TIP3 OH2  OT    -0.834000       15.9994           0
   34386 WT2  3731 TIP3 H1   HT     0.417000        1.0080           0
   34387 WT2  3731 TIP3 H2   HT     0.417000        1.0080           0
   34388 WT2  3732 TIP3 OH2  OT    -0.834000       15.9994           0
   34389 WT2  3732 TIP3 H1   HT     0.417000        1.0080           0
   34390 WT2  3732 TIP3 H2   HT     0.417000        1.0080           0
   34391 WT2  3733 TIP3 OH2  OT    -0.834000       15.9994           0
   34392 WT2  3733 TIP3 H1   HT     0.417000        1.0080           0
   34393 WT2  3733 TIP3 H2   HT     0.417000        1.0080           0
   34394 WT2  3734 TIP3 OH2  OT    -0.834000       15.9994           0
   34395 WT2  3734 TIP3 H1   HT     0.417000        1.0080           0
   34396 WT2  3734 TIP3 H2   HT     0.417000        1.0080           0
   34397 WT2  3736 TIP3 OH2  OT    -0.834000       15.9994           0
   34398 WT2  3736 TIP3 H1   HT     0.417000        1.0080           0
   34399 WT2  3736 TIP3 H2   HT     0.417000        1.0080           0
   34400 WT2  3737 TIP3 OH2  OT    -0.834000       15.9994           0
   34401 WT2  3737 TIP3 H1   HT     0.417000        1.0080           0
   34402 WT2  3737 TIP3 H2   HT     0.417000        1.0080           0
   34403 WT2  3739 TIP3 OH2  OT    -0.834000       15.9994           0
   34404 WT2  3739 TIP3 H1   HT     0.417000        1.0080           0
   34405 WT2  3739 TIP3 H2   HT     0.417000        1.0080           0
   34406 WT2  3740 TIP3 OH2  OT    -0.834000       15.9994           0
   34407 WT2  3740 TIP3 H1   HT     0.417000        1.0080           0
   34408 WT2  3740 TIP3 H2   HT     0.417000        1.0080           0
   34409 WT2  3743 TIP3 OH2  OT    -0.834000       15.9994           0
   34410 WT2  3743 TIP3 H1   HT     0.417000        1.0080           0
   34411 WT2  3743 TIP3 H2   HT     0.417000        1.0080           0
   34412 WT2  3744 TIP3 OH2  OT    -0.834000       15.9994           0
   34413 WT2  3744 TIP3 H1   HT     0.417000        1.0080           0
   34414 WT2  3744 TIP3 H2   HT     0.417000        1.0080           0
   34415 WT2  3745 TIP3 OH2  OT    -0.834000       15.9994           0
   34416 WT2  3745 TIP3 H1   HT     0.417000        1.0080           0
   34417 WT2  3745 TIP3 H2   HT     0.417000        1.0080           0
   34418 WT2  3746 TIP3 OH2  OT    -0.834000       15.9994           0
   34419 WT2  3746 TIP3 H1   HT     0.417000        1.0080           0
   34420 WT2  3746 TIP3 H2   HT     0.417000        1.0080           0
   34421 WT2  3748 TIP3 OH2  OT    -0.834000       15.9994           0
   34422 WT2  3748 TIP3 H1   HT     0.417000        1.0080           0
   34423 WT2  3748 TIP3 H2   HT     0.417000        1.0080           0
   34424 WT2  3749 TIP3 OH2  OT    -0.834000       15.9994           0
   34425 WT2  3749 TIP3 H1   HT     0.417000        1.0080           0
   34426 WT2  3749 TIP3 H2   HT     0.417000        1.0080           0
   34427 WT2  3750 TIP3 OH2  OT    -0.834000       15.9994           0
   34428 WT2  3750 TIP3 H1   HT     0.417000        1.0080           0
   34429 WT2  3750 TIP3 H2   HT     0.417000        1.0080           0
   34430 WT2  3751 TIP3 OH2  OT    -0.834000       15.9994           0
   34431 WT2  3751 TIP3 H1   HT     0.417000        1.0080           0
   34432 WT2  3751 TIP3 H2   HT     0.417000        1.0080           0
   34433 WT2  3752 TIP3 OH2  OT    -0.834000       15.9994           0
   34434 WT2  3752 TIP3 H1   HT     0.417000        1.0080           0
   34435 WT2  3752 TIP3 H2   HT     0.417000        1.0080           0
   34436 WT2  3753 TIP3 OH2  OT    -0.834000       15.9994           0
   34437 WT2  3753 TIP3 H1   HT     0.417000        1.0080           0
   34438 WT2  3753 TIP3 H2   HT     0.417000        1.0080           0
   34439 WT2  3754 TIP3 OH2  OT    -0.834000       15.9994           0
   34440 WT2  3754 TIP3 H1   HT     0.417000        1.0080           0
   34441 WT2  3754 TIP3 H2   HT     0.417000        1.0080           0
   34442 WT2  3759 TIP3 OH2  OT    -0.834000       15.9994           0
   34443 WT2  3759 TIP3 H1   HT     0.417000        1.0080           0
   34444 WT2  3759 TIP3 H2   HT     0.417000        1.0080           0
   34445 WT2  3760 TIP3 OH2  OT    -0.834000       15.9994           0
   34446 WT2  3760 TIP3 H1   HT     0.417000        1.0080           0
   34447 WT2  3760 TIP3 H2   HT     0.417000        1.0080           0
   34448 WT2  3761 TIP3 OH2  OT    -0.834000       15.9994           0
   34449 WT2  3761 TIP3 H1   HT     0.417000        1.0080           0
   34450 WT2  3761 TIP3 H2   HT     0.417000        1.0080           0
   34451 WT2  3762 TIP3 OH2  OT    -0.834000       15.9994           0
   34452 WT2  3762 TIP3 H1   HT     0.417000        1.0080           0
   34453 WT2  3762 TIP3 H2   HT     0.417000        1.0080           0
   34454 WT2  3763 TIP3 OH2  OT    -0.834000       15.9994           0
   34455 WT2  3763 TIP3 H1   HT     0.417000        1.0080           0
   34456 WT2  3763 TIP3 H2   HT     0.417000        1.0080           0
   34457 WT2  3765 TIP3 OH2  OT    -0.834000       15.9994           0
   34458 WT2  3765 TIP3 H1   HT     0.417000        1.0080           0
   34459 WT2  3765 TIP3 H2   HT     0.417000        1.0080           0
   34460 WT2  3766 TIP3 OH2  OT    -0.834000       15.9994           0
   34461 WT2  3766 TIP3 H1   HT     0.417000        1.0080           0
   34462 WT2  3766 TIP3 H2   HT     0.417000        1.0080           0
   34463 WT2  3767 TIP3 OH2  OT    -0.834000       15.9994           0
   34464 WT2  3767 TIP3 H1   HT     0.417000        1.0080           0
   34465 WT2  3767 TIP3 H2   HT     0.417000        1.0080           0
   34466 WT2  3768 TIP3 OH2  OT    -0.834000       15.9994           0
   34467 WT2  3768 TIP3 H1   HT     0.417000        1.0080           0
   34468 WT2  3768 TIP3 H2   HT     0.417000        1.0080           0
   34469 WT2  3769 TIP3 OH2  OT    -0.834000       15.9994           0
   34470 WT2  3769 TIP3 H1   HT     0.417000        1.0080           0
   34471 WT2  3769 TIP3 H2   HT     0.417000        1.0080           0
   34472 WT2  3771 TIP3 OH2  OT    -0.834000       15.9994           0
   34473 WT2  3771 TIP3 H1   HT     0.417000        1.0080           0
   34474 WT2  3771 TIP3 H2   HT     0.417000        1.0080           0
   34475 WT2  3773 TIP3 OH2  OT    -0.834000       15.9994           0
   34476 WT2  3773 TIP3 H1   HT     0.417000        1.0080           0
   34477 WT2  3773 TIP3 H2   HT     0.417000        1.0080           0
   34478 WT2  3776 TIP3 OH2  OT    -0.834000       15.9994           0
   34479 WT2  3776 TIP3 H1   HT     0.417000        1.0080           0
   34480 WT2  3776 TIP3 H2   HT     0.417000        1.0080           0
   34481 WT2  3777 TIP3 OH2  OT    -0.834000       15.9994           0
   34482 WT2  3777 TIP3 H1   HT     0.417000        1.0080           0
   34483 WT2  3777 TIP3 H2   HT     0.417000        1.0080           0
   34484 WT2  3778 TIP3 OH2  OT    -0.834000       15.9994           0
   34485 WT2  3778 TIP3 H1   HT     0.417000        1.0080           0
   34486 WT2  3778 TIP3 H2   HT     0.417000        1.0080           0
   34487 WT2  3779 TIP3 OH2  OT    -0.834000       15.9994           0
   34488 WT2  3779 TIP3 H1   HT     0.417000        1.0080           0
   34489 WT2  3779 TIP3 H2   HT     0.417000        1.0080           0
   34490 WT2  3780 TIP3 OH2  OT    -0.834000       15.9994           0
   34491 WT2  3780 TIP3 H1   HT     0.417000        1.0080           0
   34492 WT2  3780 TIP3 H2   HT     0.417000        1.0080           0
   34493 WT2  3781 TIP3 OH2  OT    -0.834000       15.9994           0
   34494 WT2  3781 TIP3 H1   HT     0.417000        1.0080           0
   34495 WT2  3781 TIP3 H2   HT     0.417000        1.0080           0
   34496 WT2  3782 TIP3 OH2  OT    -0.834000       15.9994           0
   34497 WT2  3782 TIP3 H1   HT     0.417000        1.0080           0
   34498 WT2  3782 TIP3 H2   HT     0.417000        1.0080           0
   34499 WT2  3783 TIP3 OH2  OT    -0.834000       15.9994           0
   34500 WT2  3783 TIP3 H1   HT     0.417000        1.0080           0
   34501 WT2  3783 TIP3 H2   HT     0.417000        1.0080           0
   34502 WT2  3784 TIP3 OH2  OT    -0.834000       15.9994           0
   34503 WT2  3784 TIP3 H1   HT     0.417000        1.0080           0
   34504 WT2  3784 TIP3 H2   HT     0.417000        1.0080           0
   34505 WT2  3785 TIP3 OH2  OT    -0.834000       15.9994           0
   34506 WT2  3785 TIP3 H1   HT     0.417000        1.0080           0
   34507 WT2  3785 TIP3 H2   HT     0.417000        1.0080           0
   34508 WT2  3789 TIP3 OH2  OT    -0.834000       15.9994           0
   34509 WT2  3789 TIP3 H1   HT     0.417000        1.0080           0
   34510 WT2  3789 TIP3 H2   HT     0.417000        1.0080           0
   34511 WT2  3790 TIP3 OH2  OT    -0.834000       15.9994           0
   34512 WT2  3790 TIP3 H1   HT     0.417000        1.0080           0
   34513 WT2  3790 TIP3 H2   HT     0.417000        1.0080           0
   34514 WT2  3792 TIP3 OH2  OT    -0.834000       15.9994           0
   34515 WT2  3792 TIP3 H1   HT     0.417000        1.0080           0
   34516 WT2  3792 TIP3 H2   HT     0.417000        1.0080           0
   34517 WT2  3793 TIP3 OH2  OT    -0.834000       15.9994           0
   34518 WT2  3793 TIP3 H1   HT     0.417000        1.0080           0
   34519 WT2  3793 TIP3 H2   HT     0.417000        1.0080           0
   34520 WT2  3794 TIP3 OH2  OT    -0.834000       15.9994           0
   34521 WT2  3794 TIP3 H1   HT     0.417000        1.0080           0
   34522 WT2  3794 TIP3 H2   HT     0.417000        1.0080           0
   34523 WT2  3795 TIP3 OH2  OT    -0.834000       15.9994           0
   34524 WT2  3795 TIP3 H1   HT     0.417000        1.0080           0
   34525 WT2  3795 TIP3 H2   HT     0.417000        1.0080           0
   34526 WT2  3796 TIP3 OH2  OT    -0.834000       15.9994           0
   34527 WT2  3796 TIP3 H1   HT     0.417000        1.0080           0
   34528 WT2  3796 TIP3 H2   HT     0.417000        1.0080           0
   34529 WT2  3797 TIP3 OH2  OT    -0.834000       15.9994           0
   34530 WT2  3797 TIP3 H1   HT     0.417000        1.0080           0
   34531 WT2  3797 TIP3 H2   HT     0.417000        1.0080           0
   34532 WT2  3798 TIP3 OH2  OT    -0.834000       15.9994           0
   34533 WT2  3798 TIP3 H1   HT     0.417000        1.0080           0
   34534 WT2  3798 TIP3 H2   HT     0.417000        1.0080           0
   34535 WT2  3799 TIP3 OH2  OT    -0.834000       15.9994           0
   34536 WT2  3799 TIP3 H1   HT     0.417000        1.0080           0
   34537 WT2  3799 TIP3 H2   HT     0.417000        1.0080           0
   34538 WT2  3800 TIP3 OH2  OT    -0.834000       15.9994           0
   34539 WT2  3800 TIP3 H1   HT     0.417000        1.0080           0
   34540 WT2  3800 TIP3 H2   HT     0.417000        1.0080           0
   34541 WT2  3802 TIP3 OH2  OT    -0.834000       15.9994           0
   34542 WT2  3802 TIP3 H1   HT     0.417000        1.0080           0
   34543 WT2  3802 TIP3 H2   HT     0.417000        1.0080           0
   34544 WT2  3803 TIP3 OH2  OT    -0.834000       15.9994           0
   34545 WT2  3803 TIP3 H1   HT     0.417000        1.0080           0
   34546 WT2  3803 TIP3 H2   HT     0.417000        1.0080           0
   34547 WT2  3805 TIP3 OH2  OT    -0.834000       15.9994           0
   34548 WT2  3805 TIP3 H1   HT     0.417000        1.0080           0
   34549 WT2  3805 TIP3 H2   HT     0.417000        1.0080           0
   34550 WT2  3806 TIP3 OH2  OT    -0.834000       15.9994           0
   34551 WT2  3806 TIP3 H1   HT     0.417000        1.0080           0
   34552 WT2  3806 TIP3 H2   HT     0.417000        1.0080           0
   34553 WT2  3807 TIP3 OH2  OT    -0.834000       15.9994           0
   34554 WT2  3807 TIP3 H1   HT     0.417000        1.0080           0
   34555 WT2  3807 TIP3 H2   HT     0.417000        1.0080           0
   34556 WT2  3808 TIP3 OH2  OT    -0.834000       15.9994           0
   34557 WT2  3808 TIP3 H1   HT     0.417000        1.0080           0
   34558 WT2  3808 TIP3 H2   HT     0.417000        1.0080           0
   34559 WT2  3809 TIP3 OH2  OT    -0.834000       15.9994           0
   34560 WT2  3809 TIP3 H1   HT     0.417000        1.0080           0
   34561 WT2  3809 TIP3 H2   HT     0.417000        1.0080           0
   34562 WT2  3811 TIP3 OH2  OT    -0.834000       15.9994           0
   34563 WT2  3811 TIP3 H1   HT     0.417000        1.0080           0
   34564 WT2  3811 TIP3 H2   HT     0.417000        1.0080           0
   34565 WT2  3812 TIP3 OH2  OT    -0.834000       15.9994           0
   34566 WT2  3812 TIP3 H1   HT     0.417000        1.0080           0
   34567 WT2  3812 TIP3 H2   HT     0.417000        1.0080           0
   34568 WT2  3813 TIP3 OH2  OT    -0.834000       15.9994           0
   34569 WT2  3813 TIP3 H1   HT     0.417000        1.0080           0
   34570 WT2  3813 TIP3 H2   HT     0.417000        1.0080           0
   34571 WT2  3814 TIP3 OH2  OT    -0.834000       15.9994           0
   34572 WT2  3814 TIP3 H1   HT     0.417000        1.0080           0
   34573 WT2  3814 TIP3 H2   HT     0.417000        1.0080           0
   34574 WT2  3815 TIP3 OH2  OT    -0.834000       15.9994           0
   34575 WT2  3815 TIP3 H1   HT     0.417000        1.0080           0
   34576 WT2  3815 TIP3 H2   HT     0.417000        1.0080           0
   34577 WT2  3816 TIP3 OH2  OT    -0.834000       15.9994           0
   34578 WT2  3816 TIP3 H1   HT     0.417000        1.0080           0
   34579 WT2  3816 TIP3 H2   HT     0.417000        1.0080           0
   34580 WT2  3817 TIP3 OH2  OT    -0.834000       15.9994           0
   34581 WT2  3817 TIP3 H1   HT     0.417000        1.0080           0
   34582 WT2  3817 TIP3 H2   HT     0.417000        1.0080           0
   34583 WT2  3818 TIP3 OH2  OT    -0.834000       15.9994           0
   34584 WT2  3818 TIP3 H1   HT     0.417000        1.0080           0
   34585 WT2  3818 TIP3 H2   HT     0.417000        1.0080           0
   34586 WT2  3820 TIP3 OH2  OT    -0.834000       15.9994           0
   34587 WT2  3820 TIP3 H1   HT     0.417000        1.0080           0
   34588 WT2  3820 TIP3 H2   HT     0.417000        1.0080           0
   34589 WT2  3821 TIP3 OH2  OT    -0.834000       15.9994           0
   34590 WT2  3821 TIP3 H1   HT     0.417000        1.0080           0
   34591 WT2  3821 TIP3 H2   HT     0.417000        1.0080           0
   34592 WT2  3823 TIP3 OH2  OT    -0.834000       15.9994           0
   34593 WT2  3823 TIP3 H1   HT     0.417000        1.0080           0
   34594 WT2  3823 TIP3 H2   HT     0.417000        1.0080           0
   34595 WT2  3825 TIP3 OH2  OT    -0.834000       15.9994           0
   34596 WT2  3825 TIP3 H1   HT     0.417000        1.0080           0
   34597 WT2  3825 TIP3 H2   HT     0.417000        1.0080           0
   34598 WT2  3827 TIP3 OH2  OT    -0.834000       15.9994           0
   34599 WT2  3827 TIP3 H1   HT     0.417000        1.0080           0
   34600 WT2  3827 TIP3 H2   HT     0.417000        1.0080           0
   34601 WT2  3828 TIP3 OH2  OT    -0.834000       15.9994           0
   34602 WT2  3828 TIP3 H1   HT     0.417000        1.0080           0
   34603 WT2  3828 TIP3 H2   HT     0.417000        1.0080           0
   34604 WT2  3829 TIP3 OH2  OT    -0.834000       15.9994           0
   34605 WT2  3829 TIP3 H1   HT     0.417000        1.0080           0
   34606 WT2  3829 TIP3 H2   HT     0.417000        1.0080           0
   34607 WT2  3830 TIP3 OH2  OT    -0.834000       15.9994           0
   34608 WT2  3830 TIP3 H1   HT     0.417000        1.0080           0
   34609 WT2  3830 TIP3 H2   HT     0.417000        1.0080           0
   34610 WT2  3831 TIP3 OH2  OT    -0.834000       15.9994           0
   34611 WT2  3831 TIP3 H1   HT     0.417000        1.0080           0
   34612 WT2  3831 TIP3 H2   HT     0.417000        1.0080           0
   34613 WT2  3832 TIP3 OH2  OT    -0.834000       15.9994           0
   34614 WT2  3832 TIP3 H1   HT     0.417000        1.0080           0
   34615 WT2  3832 TIP3 H2   HT     0.417000        1.0080           0
   34616 WT2  3833 TIP3 OH2  OT    -0.834000       15.9994           0
   34617 WT2  3833 TIP3 H1   HT     0.417000        1.0080           0
   34618 WT2  3833 TIP3 H2   HT     0.417000        1.0080           0
   34619 WT2  3834 TIP3 OH2  OT    -0.834000       15.9994           0
   34620 WT2  3834 TIP3 H1   HT     0.417000        1.0080           0
   34621 WT2  3834 TIP3 H2   HT     0.417000        1.0080           0
   34622 WT2  3836 TIP3 OH2  OT    -0.834000       15.9994           0
   34623 WT2  3836 TIP3 H1   HT     0.417000        1.0080           0
   34624 WT2  3836 TIP3 H2   HT     0.417000        1.0080           0
   34625 WT2  3837 TIP3 OH2  OT    -0.834000       15.9994           0
   34626 WT2  3837 TIP3 H1   HT     0.417000        1.0080           0
   34627 WT2  3837 TIP3 H2   HT     0.417000        1.0080           0
   34628 WT2  3838 TIP3 OH2  OT    -0.834000       15.9994           0
   34629 WT2  3838 TIP3 H1   HT     0.417000        1.0080           0
   34630 WT2  3838 TIP3 H2   HT     0.417000        1.0080           0
   34631 WT2  3839 TIP3 OH2  OT    -0.834000       15.9994           0
   34632 WT2  3839 TIP3 H1   HT     0.417000        1.0080           0
   34633 WT2  3839 TIP3 H2   HT     0.417000        1.0080           0
   34634 WT2  3841 TIP3 OH2  OT    -0.834000       15.9994           0
   34635 WT2  3841 TIP3 H1   HT     0.417000        1.0080           0
   34636 WT2  3841 TIP3 H2   HT     0.417000        1.0080           0
   34637 WT2  3842 TIP3 OH2  OT    -0.834000       15.9994           0
   34638 WT2  3842 TIP3 H1   HT     0.417000        1.0080           0
   34639 WT2  3842 TIP3 H2   HT     0.417000        1.0080           0
   34640 WT2  3843 TIP3 OH2  OT    -0.834000       15.9994           0
   34641 WT2  3843 TIP3 H1   HT     0.417000        1.0080           0
   34642 WT2  3843 TIP3 H2   HT     0.417000        1.0080           0
   34643 WT2  3844 TIP3 OH2  OT    -0.834000       15.9994           0
   34644 WT2  3844 TIP3 H1   HT     0.417000        1.0080           0
   34645 WT2  3844 TIP3 H2   HT     0.417000        1.0080           0
   34646 WT2  3845 TIP3 OH2  OT    -0.834000       15.9994           0
   34647 WT2  3845 TIP3 H1   HT     0.417000        1.0080           0
   34648 WT2  3845 TIP3 H2   HT     0.417000        1.0080           0
   34649 WT2  3846 TIP3 OH2  OT    -0.834000       15.9994           0
   34650 WT2  3846 TIP3 H1   HT     0.417000        1.0080           0
   34651 WT2  3846 TIP3 H2   HT     0.417000        1.0080           0
   34652 WT2  3847 TIP3 OH2  OT    -0.834000       15.9994           0
   34653 WT2  3847 TIP3 H1   HT     0.417000        1.0080           0
   34654 WT2  3847 TIP3 H2   HT     0.417000        1.0080           0
   34655 WT2  3848 TIP3 OH2  OT    -0.834000       15.9994           0
   34656 WT2  3848 TIP3 H1   HT     0.417000        1.0080           0
   34657 WT2  3848 TIP3 H2   HT     0.417000        1.0080           0
   34658 WT2  3849 TIP3 OH2  OT    -0.834000       15.9994           0
   34659 WT2  3849 TIP3 H1   HT     0.417000        1.0080           0
   34660 WT2  3849 TIP3 H2   HT     0.417000        1.0080           0
   34661 WT2  3850 TIP3 OH2  OT    -0.834000       15.9994           0
   34662 WT2  3850 TIP3 H1   HT     0.417000        1.0080           0
   34663 WT2  3850 TIP3 H2   HT     0.417000        1.0080           0
   34664 WT2  3851 TIP3 OH2  OT    -0.834000       15.9994           0
   34665 WT2  3851 TIP3 H1   HT     0.417000        1.0080           0
   34666 WT2  3851 TIP3 H2   HT     0.417000        1.0080           0
   34667 WT2  3853 TIP3 OH2  OT    -0.834000       15.9994           0
   34668 WT2  3853 TIP3 H1   HT     0.417000        1.0080           0
   34669 WT2  3853 TIP3 H2   HT     0.417000        1.0080           0
   34670 WT2  3854 TIP3 OH2  OT    -0.834000       15.9994           0
   34671 WT2  3854 TIP3 H1   HT     0.417000        1.0080           0
   34672 WT2  3854 TIP3 H2   HT     0.417000        1.0080           0
   34673 WT2  3855 TIP3 OH2  OT    -0.834000       15.9994           0
   34674 WT2  3855 TIP3 H1   HT     0.417000        1.0080           0
   34675 WT2  3855 TIP3 H2   HT     0.417000        1.0080           0
   34676 WT2  3856 TIP3 OH2  OT    -0.834000       15.9994           0
   34677 WT2  3856 TIP3 H1   HT     0.417000        1.0080           0
   34678 WT2  3856 TIP3 H2   HT     0.417000        1.0080           0
   34679 WT2  3858 TIP3 OH2  OT    -0.834000       15.9994           0
   34680 WT2  3858 TIP3 H1   HT     0.417000        1.0080           0
   34681 WT2  3858 TIP3 H2   HT     0.417000        1.0080           0
   34682 WT2  3859 TIP3 OH2  OT    -0.834000       15.9994           0
   34683 WT2  3859 TIP3 H1   HT     0.417000        1.0080           0
   34684 WT2  3859 TIP3 H2   HT     0.417000        1.0080           0
   34685 WT2  3860 TIP3 OH2  OT    -0.834000       15.9994           0
   34686 WT2  3860 TIP3 H1   HT     0.417000        1.0080           0
   34687 WT2  3860 TIP3 H2   HT     0.417000        1.0080           0
   34688 WT2  3861 TIP3 OH2  OT    -0.834000       15.9994           0
   34689 WT2  3861 TIP3 H1   HT     0.417000        1.0080           0
   34690 WT2  3861 TIP3 H2   HT     0.417000        1.0080           0
   34691 WT2  3863 TIP3 OH2  OT    -0.834000       15.9994           0
   34692 WT2  3863 TIP3 H1   HT     0.417000        1.0080           0
   34693 WT2  3863 TIP3 H2   HT     0.417000        1.0080           0
   34694 WT2  3864 TIP3 OH2  OT    -0.834000       15.9994           0
   34695 WT2  3864 TIP3 H1   HT     0.417000        1.0080           0
   34696 WT2  3864 TIP3 H2   HT     0.417000        1.0080           0
   34697 WT2  3865 TIP3 OH2  OT    -0.834000       15.9994           0
   34698 WT2  3865 TIP3 H1   HT     0.417000        1.0080           0
   34699 WT2  3865 TIP3 H2   HT     0.417000        1.0080           0
   34700 WT2  3866 TIP3 OH2  OT    -0.834000       15.9994           0
   34701 WT2  3866 TIP3 H1   HT     0.417000        1.0080           0
   34702 WT2  3866 TIP3 H2   HT     0.417000        1.0080           0
   34703 WT2  3867 TIP3 OH2  OT    -0.834000       15.9994           0
   34704 WT2  3867 TIP3 H1   HT     0.417000        1.0080           0
   34705 WT2  3867 TIP3 H2   HT     0.417000        1.0080           0
   34706 WT2  3868 TIP3 OH2  OT    -0.834000       15.9994           0
   34707 WT2  3868 TIP3 H1   HT     0.417000        1.0080           0
   34708 WT2  3868 TIP3 H2   HT     0.417000        1.0080           0
   34709 WT2  3869 TIP3 OH2  OT    -0.834000       15.9994           0
   34710 WT2  3869 TIP3 H1   HT     0.417000        1.0080           0
   34711 WT2  3869 TIP3 H2   HT     0.417000        1.0080           0
   34712 WT2  3870 TIP3 OH2  OT    -0.834000       15.9994           0
   34713 WT2  3870 TIP3 H1   HT     0.417000        1.0080           0
   34714 WT2  3870 TIP3 H2   HT     0.417000        1.0080           0
   34715 WT2  3872 TIP3 OH2  OT    -0.834000       15.9994           0
   34716 WT2  3872 TIP3 H1   HT     0.417000        1.0080           0
   34717 WT2  3872 TIP3 H2   HT     0.417000        1.0080           0
   34718 WT2  3873 TIP3 OH2  OT    -0.834000       15.9994           0
   34719 WT2  3873 TIP3 H1   HT     0.417000        1.0080           0
   34720 WT2  3873 TIP3 H2   HT     0.417000        1.0080           0
   34721 WT2  3874 TIP3 OH2  OT    -0.834000       15.9994           0
   34722 WT2  3874 TIP3 H1   HT     0.417000        1.0080           0
   34723 WT2  3874 TIP3 H2   HT     0.417000        1.0080           0
   34724 WT2  3875 TIP3 OH2  OT    -0.834000       15.9994           0
   34725 WT2  3875 TIP3 H1   HT     0.417000        1.0080           0
   34726 WT2  3875 TIP3 H2   HT     0.417000        1.0080           0
   34727 WT2  3877 TIP3 OH2  OT    -0.834000       15.9994           0
   34728 WT2  3877 TIP3 H1   HT     0.417000        1.0080           0
   34729 WT2  3877 TIP3 H2   HT     0.417000        1.0080           0
   34730 WT2  3880 TIP3 OH2  OT    -0.834000       15.9994           0
   34731 WT2  3880 TIP3 H1   HT     0.417000        1.0080           0
   34732 WT2  3880 TIP3 H2   HT     0.417000        1.0080           0
   34733 WT2  3881 TIP3 OH2  OT    -0.834000       15.9994           0
   34734 WT2  3881 TIP3 H1   HT     0.417000        1.0080           0
   34735 WT2  3881 TIP3 H2   HT     0.417000        1.0080           0
   34736 WT2  3883 TIP3 OH2  OT    -0.834000       15.9994           0
   34737 WT2  3883 TIP3 H1   HT     0.417000        1.0080           0
   34738 WT2  3883 TIP3 H2   HT     0.417000        1.0080           0
   34739 WT2  3884 TIP3 OH2  OT    -0.834000       15.9994           0
   34740 WT2  3884 TIP3 H1   HT     0.417000        1.0080           0
   34741 WT2  3884 TIP3 H2   HT     0.417000        1.0080           0
   34742 WT2  3885 TIP3 OH2  OT    -0.834000       15.9994           0
   34743 WT2  3885 TIP3 H1   HT     0.417000        1.0080           0
   34744 WT2  3885 TIP3 H2   HT     0.417000        1.0080           0
   34745 WT2  3886 TIP3 OH2  OT    -0.834000       15.9994           0
   34746 WT2  3886 TIP3 H1   HT     0.417000        1.0080           0
   34747 WT2  3886 TIP3 H2   HT     0.417000        1.0080           0
   34748 WT2  3887 TIP3 OH2  OT    -0.834000       15.9994           0
   34749 WT2  3887 TIP3 H1   HT     0.417000        1.0080           0
   34750 WT2  3887 TIP3 H2   HT     0.417000        1.0080           0
   34751 WT2  3888 TIP3 OH2  OT    -0.834000       15.9994           0
   34752 WT2  3888 TIP3 H1   HT     0.417000        1.0080           0
   34753 WT2  3888 TIP3 H2   HT     0.417000        1.0080           0
   34754 WT2  3889 TIP3 OH2  OT    -0.834000       15.9994           0
   34755 WT2  3889 TIP3 H1   HT     0.417000        1.0080           0
   34756 WT2  3889 TIP3 H2   HT     0.417000        1.0080           0
   34757 WT2  3890 TIP3 OH2  OT    -0.834000       15.9994           0
   34758 WT2  3890 TIP3 H1   HT     0.417000        1.0080           0
   34759 WT2  3890 TIP3 H2   HT     0.417000        1.0080           0
   34760 WT2  3891 TIP3 OH2  OT    -0.834000       15.9994           0
   34761 WT2  3891 TIP3 H1   HT     0.417000        1.0080           0
   34762 WT2  3891 TIP3 H2   HT     0.417000        1.0080           0
   34763 WT2  3892 TIP3 OH2  OT    -0.834000       15.9994           0
   34764 WT2  3892 TIP3 H1   HT     0.417000        1.0080           0
   34765 WT2  3892 TIP3 H2   HT     0.417000        1.0080           0
   34766 WT2  3893 TIP3 OH2  OT    -0.834000       15.9994           0
   34767 WT2  3893 TIP3 H1   HT     0.417000        1.0080           0
   34768 WT2  3893 TIP3 H2   HT     0.417000        1.0080           0
   34769 WT2  3894 TIP3 OH2  OT    -0.834000       15.9994           0
   34770 WT2  3894 TIP3 H1   HT     0.417000        1.0080           0
   34771 WT2  3894 TIP3 H2   HT     0.417000        1.0080           0
   34772 WT2  3895 TIP3 OH2  OT    -0.834000       15.9994           0
   34773 WT2  3895 TIP3 H1   HT     0.417000        1.0080           0
   34774 WT2  3895 TIP3 H2   HT     0.417000        1.0080           0
   34775 WT2  3896 TIP3 OH2  OT    -0.834000       15.9994           0
   34776 WT2  3896 TIP3 H1   HT     0.417000        1.0080           0
   34777 WT2  3896 TIP3 H2   HT     0.417000        1.0080           0
   34778 WT2  3897 TIP3 OH2  OT    -0.834000       15.9994           0
   34779 WT2  3897 TIP3 H1   HT     0.417000        1.0080           0
   34780 WT2  3897 TIP3 H2   HT     0.417000        1.0080           0
   34781 WT2  3898 TIP3 OH2  OT    -0.834000       15.9994           0
   34782 WT2  3898 TIP3 H1   HT     0.417000        1.0080           0
   34783 WT2  3898 TIP3 H2   HT     0.417000        1.0080           0
   34784 WT2  3900 TIP3 OH2  OT    -0.834000       15.9994           0
   34785 WT2  3900 TIP3 H1   HT     0.417000        1.0080           0
   34786 WT2  3900 TIP3 H2   HT     0.417000        1.0080           0
   34787 WT2  3901 TIP3 OH2  OT    -0.834000       15.9994           0
   34788 WT2  3901 TIP3 H1   HT     0.417000        1.0080           0
   34789 WT2  3901 TIP3 H2   HT     0.417000        1.0080           0
   34790 WT2  3902 TIP3 OH2  OT    -0.834000       15.9994           0
   34791 WT2  3902 TIP3 H1   HT     0.417000        1.0080           0
   34792 WT2  3902 TIP3 H2   HT     0.417000        1.0080           0
   34793 WT2  3903 TIP3 OH2  OT    -0.834000       15.9994           0
   34794 WT2  3903 TIP3 H1   HT     0.417000        1.0080           0
   34795 WT2  3903 TIP3 H2   HT     0.417000        1.0080           0
   34796 WT2  3904 TIP3 OH2  OT    -0.834000       15.9994           0
   34797 WT2  3904 TIP3 H1   HT     0.417000        1.0080           0
   34798 WT2  3904 TIP3 H2   HT     0.417000        1.0080           0
   34799 WT2  3905 TIP3 OH2  OT    -0.834000       15.9994           0
   34800 WT2  3905 TIP3 H1   HT     0.417000        1.0080           0
   34801 WT2  3905 TIP3 H2   HT     0.417000        1.0080           0
   34802 WT2  3907 TIP3 OH2  OT    -0.834000       15.9994           0
   34803 WT2  3907 TIP3 H1   HT     0.417000        1.0080           0
   34804 WT2  3907 TIP3 H2   HT     0.417000        1.0080           0
   34805 WT2  3909 TIP3 OH2  OT    -0.834000       15.9994           0
   34806 WT2  3909 TIP3 H1   HT     0.417000        1.0080           0
   34807 WT2  3909 TIP3 H2   HT     0.417000        1.0080           0
   34808 WT2  3910 TIP3 OH2  OT    -0.834000       15.9994           0
   34809 WT2  3910 TIP3 H1   HT     0.417000        1.0080           0
   34810 WT2  3910 TIP3 H2   HT     0.417000        1.0080           0
   34811 WT2  3911 TIP3 OH2  OT    -0.834000       15.9994           0
   34812 WT2  3911 TIP3 H1   HT     0.417000        1.0080           0
   34813 WT2  3911 TIP3 H2   HT     0.417000        1.0080           0
   34814 WT2  3912 TIP3 OH2  OT    -0.834000       15.9994           0
   34815 WT2  3912 TIP3 H1   HT     0.417000        1.0080           0
   34816 WT2  3912 TIP3 H2   HT     0.417000        1.0080           0
   34817 WT2  3913 TIP3 OH2  OT    -0.834000       15.9994           0
   34818 WT2  3913 TIP3 H1   HT     0.417000        1.0080           0
   34819 WT2  3913 TIP3 H2   HT     0.417000        1.0080           0
   34820 WT2  3914 TIP3 OH2  OT    -0.834000       15.9994           0
   34821 WT2  3914 TIP3 H1   HT     0.417000        1.0080           0
   34822 WT2  3914 TIP3 H2   HT     0.417000        1.0080           0
   34823 WT2  3915 TIP3 OH2  OT    -0.834000       15.9994           0
   34824 WT2  3915 TIP3 H1   HT     0.417000        1.0080           0
   34825 WT2  3915 TIP3 H2   HT     0.417000        1.0080           0
   34826 WT2  3916 TIP3 OH2  OT    -0.834000       15.9994           0
   34827 WT2  3916 TIP3 H1   HT     0.417000        1.0080           0
   34828 WT2  3916 TIP3 H2   HT     0.417000        1.0080           0
   34829 WT2  3917 TIP3 OH2  OT    -0.834000       15.9994           0
   34830 WT2  3917 TIP3 H1   HT     0.417000        1.0080           0
   34831 WT2  3917 TIP3 H2   HT     0.417000        1.0080           0
   34832 WT2  3918 TIP3 OH2  OT    -0.834000       15.9994           0
   34833 WT2  3918 TIP3 H1   HT     0.417000        1.0080           0
   34834 WT2  3918 TIP3 H2   HT     0.417000        1.0080           0
   34835 WT2  3919 TIP3 OH2  OT    -0.834000       15.9994           0
   34836 WT2  3919 TIP3 H1   HT     0.417000        1.0080           0
   34837 WT2  3919 TIP3 H2   HT     0.417000        1.0080           0
   34838 WT2  3920 TIP3 OH2  OT    -0.834000       15.9994           0
   34839 WT2  3920 TIP3 H1   HT     0.417000        1.0080           0
   34840 WT2  3920 TIP3 H2   HT     0.417000        1.0080           0
   34841 WT2  3921 TIP3 OH2  OT    -0.834000       15.9994           0
   34842 WT2  3921 TIP3 H1   HT     0.417000        1.0080           0
   34843 WT2  3921 TIP3 H2   HT     0.417000        1.0080           0
   34844 WT2  3922 TIP3 OH2  OT    -0.834000       15.9994           0
   34845 WT2  3922 TIP3 H1   HT     0.417000        1.0080           0
   34846 WT2  3922 TIP3 H2   HT     0.417000        1.0080           0
   34847 WT2  3924 TIP3 OH2  OT    -0.834000       15.9994           0
   34848 WT2  3924 TIP3 H1   HT     0.417000        1.0080           0
   34849 WT2  3924 TIP3 H2   HT     0.417000        1.0080           0
   34850 WT2  3925 TIP3 OH2  OT    -0.834000       15.9994           0
   34851 WT2  3925 TIP3 H1   HT     0.417000        1.0080           0
   34852 WT2  3925 TIP3 H2   HT     0.417000        1.0080           0
   34853 WT2  3926 TIP3 OH2  OT    -0.834000       15.9994           0
   34854 WT2  3926 TIP3 H1   HT     0.417000        1.0080           0
   34855 WT2  3926 TIP3 H2   HT     0.417000        1.0080           0
   34856 WT2  3927 TIP3 OH2  OT    -0.834000       15.9994           0
   34857 WT2  3927 TIP3 H1   HT     0.417000        1.0080           0
   34858 WT2  3927 TIP3 H2   HT     0.417000        1.0080           0
   34859 WT2  3929 TIP3 OH2  OT    -0.834000       15.9994           0
   34860 WT2  3929 TIP3 H1   HT     0.417000        1.0080           0
   34861 WT2  3929 TIP3 H2   HT     0.417000        1.0080           0
   34862 WT2  3930 TIP3 OH2  OT    -0.834000       15.9994           0
   34863 WT2  3930 TIP3 H1   HT     0.417000        1.0080           0
   34864 WT2  3930 TIP3 H2   HT     0.417000        1.0080           0
   34865 WT2  3931 TIP3 OH2  OT    -0.834000       15.9994           0
   34866 WT2  3931 TIP3 H1   HT     0.417000        1.0080           0
   34867 WT2  3931 TIP3 H2   HT     0.417000        1.0080           0
   34868 WT2  3932 TIP3 OH2  OT    -0.834000       15.9994           0
   34869 WT2  3932 TIP3 H1   HT     0.417000        1.0080           0
   34870 WT2  3932 TIP3 H2   HT     0.417000        1.0080           0
   34871 WT2  3933 TIP3 OH2  OT    -0.834000       15.9994           0
   34872 WT2  3933 TIP3 H1   HT     0.417000        1.0080           0
   34873 WT2  3933 TIP3 H2   HT     0.417000        1.0080           0
   34874 WT2  3934 TIP3 OH2  OT    -0.834000       15.9994           0
   34875 WT2  3934 TIP3 H1   HT     0.417000        1.0080           0
   34876 WT2  3934 TIP3 H2   HT     0.417000        1.0080           0
   34877 WT2  3935 TIP3 OH2  OT    -0.834000       15.9994           0
   34878 WT2  3935 TIP3 H1   HT     0.417000        1.0080           0
   34879 WT2  3935 TIP3 H2   HT     0.417000        1.0080           0
   34880 WT2  3937 TIP3 OH2  OT    -0.834000       15.9994           0
   34881 WT2  3937 TIP3 H1   HT     0.417000        1.0080           0
   34882 WT2  3937 TIP3 H2   HT     0.417000        1.0080           0
   34883 WT2  3938 TIP3 OH2  OT    -0.834000       15.9994           0
   34884 WT2  3938 TIP3 H1   HT     0.417000        1.0080           0
   34885 WT2  3938 TIP3 H2   HT     0.417000        1.0080           0
   34886 WT2  3939 TIP3 OH2  OT    -0.834000       15.9994           0
   34887 WT2  3939 TIP3 H1   HT     0.417000        1.0080           0
   34888 WT2  3939 TIP3 H2   HT     0.417000        1.0080           0
   34889 WT2  3940 TIP3 OH2  OT    -0.834000       15.9994           0
   34890 WT2  3940 TIP3 H1   HT     0.417000        1.0080           0
   34891 WT2  3940 TIP3 H2   HT     0.417000        1.0080           0
   34892 WT2  3941 TIP3 OH2  OT    -0.834000       15.9994           0
   34893 WT2  3941 TIP3 H1   HT     0.417000        1.0080           0
   34894 WT2  3941 TIP3 H2   HT     0.417000        1.0080           0
   34895 WT2  3942 TIP3 OH2  OT    -0.834000       15.9994           0
   34896 WT2  3942 TIP3 H1   HT     0.417000        1.0080           0
   34897 WT2  3942 TIP3 H2   HT     0.417000        1.0080           0
   34898 WT2  3943 TIP3 OH2  OT    -0.834000       15.9994           0
   34899 WT2  3943 TIP3 H1   HT     0.417000        1.0080           0
   34900 WT2  3943 TIP3 H2   HT     0.417000        1.0080           0
   34901 WT2  3945 TIP3 OH2  OT    -0.834000       15.9994           0
   34902 WT2  3945 TIP3 H1   HT     0.417000        1.0080           0
   34903 WT2  3945 TIP3 H2   HT     0.417000        1.0080           0
   34904 WT2  3946 TIP3 OH2  OT    -0.834000       15.9994           0
   34905 WT2  3946 TIP3 H1   HT     0.417000        1.0080           0
   34906 WT2  3946 TIP3 H2   HT     0.417000        1.0080           0
   34907 WT2  3947 TIP3 OH2  OT    -0.834000       15.9994           0
   34908 WT2  3947 TIP3 H1   HT     0.417000        1.0080           0
   34909 WT2  3947 TIP3 H2   HT     0.417000        1.0080           0
   34910 WT2  3948 TIP3 OH2  OT    -0.834000       15.9994           0
   34911 WT2  3948 TIP3 H1   HT     0.417000        1.0080           0
   34912 WT2  3948 TIP3 H2   HT     0.417000        1.0080           0
   34913 WT2  3949 TIP3 OH2  OT    -0.834000       15.9994           0
   34914 WT2  3949 TIP3 H1   HT     0.417000        1.0080           0
   34915 WT2  3949 TIP3 H2   HT     0.417000        1.0080           0
   34916 WT2  3950 TIP3 OH2  OT    -0.834000       15.9994           0
   34917 WT2  3950 TIP3 H1   HT     0.417000        1.0080           0
   34918 WT2  3950 TIP3 H2   HT     0.417000        1.0080           0
   34919 WT2  3951 TIP3 OH2  OT    -0.834000       15.9994           0
   34920 WT2  3951 TIP3 H1   HT     0.417000        1.0080           0
   34921 WT2  3951 TIP3 H2   HT     0.417000        1.0080           0
   34922 WT2  3952 TIP3 OH2  OT    -0.834000       15.9994           0
   34923 WT2  3952 TIP3 H1   HT     0.417000        1.0080           0
   34924 WT2  3952 TIP3 H2   HT     0.417000        1.0080           0
   34925 WT2  3953 TIP3 OH2  OT    -0.834000       15.9994           0
   34926 WT2  3953 TIP3 H1   HT     0.417000        1.0080           0
   34927 WT2  3953 TIP3 H2   HT     0.417000        1.0080           0
   34928 WT2  3955 TIP3 OH2  OT    -0.834000       15.9994           0
   34929 WT2  3955 TIP3 H1   HT     0.417000        1.0080           0
   34930 WT2  3955 TIP3 H2   HT     0.417000        1.0080           0
   34931 WT2  3956 TIP3 OH2  OT    -0.834000       15.9994           0
   34932 WT2  3956 TIP3 H1   HT     0.417000        1.0080           0
   34933 WT2  3956 TIP3 H2   HT     0.417000        1.0080           0
   34934 WT2  3957 TIP3 OH2  OT    -0.834000       15.9994           0
   34935 WT2  3957 TIP3 H1   HT     0.417000        1.0080           0
   34936 WT2  3957 TIP3 H2   HT     0.417000        1.0080           0
   34937 WT2  3958 TIP3 OH2  OT    -0.834000       15.9994           0
   34938 WT2  3958 TIP3 H1   HT     0.417000        1.0080           0
   34939 WT2  3958 TIP3 H2   HT     0.417000        1.0080           0
   34940 WT2  3959 TIP3 OH2  OT    -0.834000       15.9994           0
   34941 WT2  3959 TIP3 H1   HT     0.417000        1.0080           0
   34942 WT2  3959 TIP3 H2   HT     0.417000        1.0080           0
   34943 WT2  3960 TIP3 OH2  OT    -0.834000       15.9994           0
   34944 WT2  3960 TIP3 H1   HT     0.417000        1.0080           0
   34945 WT2  3960 TIP3 H2   HT     0.417000        1.0080           0
   34946 WT2  3961 TIP3 OH2  OT    -0.834000       15.9994           0
   34947 WT2  3961 TIP3 H1   HT     0.417000        1.0080           0
   34948 WT2  3961 TIP3 H2   HT     0.417000        1.0080           0
   34949 WT2  3962 TIP3 OH2  OT    -0.834000       15.9994           0
   34950 WT2  3962 TIP3 H1   HT     0.417000        1.0080           0
   34951 WT2  3962 TIP3 H2   HT     0.417000        1.0080           0
   34952 WT2  3963 TIP3 OH2  OT    -0.834000       15.9994           0
   34953 WT2  3963 TIP3 H1   HT     0.417000        1.0080           0
   34954 WT2  3963 TIP3 H2   HT     0.417000        1.0080           0
   34955 WT2  3964 TIP3 OH2  OT    -0.834000       15.9994           0
   34956 WT2  3964 TIP3 H1   HT     0.417000        1.0080           0
   34957 WT2  3964 TIP3 H2   HT     0.417000        1.0080           0
   34958 WT2  3966 TIP3 OH2  OT    -0.834000       15.9994           0
   34959 WT2  3966 TIP3 H1   HT     0.417000        1.0080           0
   34960 WT2  3966 TIP3 H2   HT     0.417000        1.0080           0
   34961 WT2  3967 TIP3 OH2  OT    -0.834000       15.9994           0
   34962 WT2  3967 TIP3 H1   HT     0.417000        1.0080           0
   34963 WT2  3967 TIP3 H2   HT     0.417000        1.0080           0
   34964 WT2  3969 TIP3 OH2  OT    -0.834000       15.9994           0
   34965 WT2  3969 TIP3 H1   HT     0.417000        1.0080           0
   34966 WT2  3969 TIP3 H2   HT     0.417000        1.0080           0
   34967 WT2  3970 TIP3 OH2  OT    -0.834000       15.9994           0
   34968 WT2  3970 TIP3 H1   HT     0.417000        1.0080           0
   34969 WT2  3970 TIP3 H2   HT     0.417000        1.0080           0
   34970 WT2  3971 TIP3 OH2  OT    -0.834000       15.9994           0
   34971 WT2  3971 TIP3 H1   HT     0.417000        1.0080           0
   34972 WT2  3971 TIP3 H2   HT     0.417000        1.0080           0
   34973 WT2  3972 TIP3 OH2  OT    -0.834000       15.9994           0
   34974 WT2  3972 TIP3 H1   HT     0.417000        1.0080           0
   34975 WT2  3972 TIP3 H2   HT     0.417000        1.0080           0
   34976 WT2  3973 TIP3 OH2  OT    -0.834000       15.9994           0
   34977 WT2  3973 TIP3 H1   HT     0.417000        1.0080           0
   34978 WT2  3973 TIP3 H2   HT     0.417000        1.0080           0
   34979 WT2  3974 TIP3 OH2  OT    -0.834000       15.9994           0
   34980 WT2  3974 TIP3 H1   HT     0.417000        1.0080           0
   34981 WT2  3974 TIP3 H2   HT     0.417000        1.0080           0
   34982 WT2  3975 TIP3 OH2  OT    -0.834000       15.9994           0
   34983 WT2  3975 TIP3 H1   HT     0.417000        1.0080           0
   34984 WT2  3975 TIP3 H2   HT     0.417000        1.0080           0
   34985 WT2  3977 TIP3 OH2  OT    -0.834000       15.9994           0
   34986 WT2  3977 TIP3 H1   HT     0.417000        1.0080           0
   34987 WT2  3977 TIP3 H2   HT     0.417000        1.0080           0
   34988 WT2  3978 TIP3 OH2  OT    -0.834000       15.9994           0
   34989 WT2  3978 TIP3 H1   HT     0.417000        1.0080           0
   34990 WT2  3978 TIP3 H2   HT     0.417000        1.0080           0
   34991 WT2  3979 TIP3 OH2  OT    -0.834000       15.9994           0
   34992 WT2  3979 TIP3 H1   HT     0.417000        1.0080           0
   34993 WT2  3979 TIP3 H2   HT     0.417000        1.0080           0
   34994 WT2  3980 TIP3 OH2  OT    -0.834000       15.9994           0
   34995 WT2  3980 TIP3 H1   HT     0.417000        1.0080           0
   34996 WT2  3980 TIP3 H2   HT     0.417000        1.0080           0
   34997 WT2  3981 TIP3 OH2  OT    -0.834000       15.9994           0
   34998 WT2  3981 TIP3 H1   HT     0.417000        1.0080           0
   34999 WT2  3981 TIP3 H2   HT     0.417000        1.0080           0
   35000 WT2  3982 TIP3 OH2  OT    -0.834000       15.9994           0
   35001 WT2  3982 TIP3 H1   HT     0.417000        1.0080           0
   35002 WT2  3982 TIP3 H2   HT     0.417000        1.0080           0
   35003 WT2  3983 TIP3 OH2  OT    -0.834000       15.9994           0
   35004 WT2  3983 TIP3 H1   HT     0.417000        1.0080           0
   35005 WT2  3983 TIP3 H2   HT     0.417000        1.0080           0
   35006 WT2  3985 TIP3 OH2  OT    -0.834000       15.9994           0
   35007 WT2  3985 TIP3 H1   HT     0.417000        1.0080           0
   35008 WT2  3985 TIP3 H2   HT     0.417000        1.0080           0
   35009 WT2  3986 TIP3 OH2  OT    -0.834000       15.9994           0
   35010 WT2  3986 TIP3 H1   HT     0.417000        1.0080           0
   35011 WT2  3986 TIP3 H2   HT     0.417000        1.0080           0
   35012 WT2  3987 TIP3 OH2  OT    -0.834000       15.9994           0
   35013 WT2  3987 TIP3 H1   HT     0.417000        1.0080           0
   35014 WT2  3987 TIP3 H2   HT     0.417000        1.0080           0
   35015 WT2  3988 TIP3 OH2  OT    -0.834000       15.9994           0
   35016 WT2  3988 TIP3 H1   HT     0.417000        1.0080           0
   35017 WT2  3988 TIP3 H2   HT     0.417000        1.0080           0
   35018 WT2  3989 TIP3 OH2  OT    -0.834000       15.9994           0
   35019 WT2  3989 TIP3 H1   HT     0.417000        1.0080           0
   35020 WT2  3989 TIP3 H2   HT     0.417000        1.0080           0
   35021 WT2  3990 TIP3 OH2  OT    -0.834000       15.9994           0
   35022 WT2  3990 TIP3 H1   HT     0.417000        1.0080           0
   35023 WT2  3990 TIP3 H2   HT     0.417000        1.0080           0
   35024 WT2  3991 TIP3 OH2  OT    -0.834000       15.9994           0
   35025 WT2  3991 TIP3 H1   HT     0.417000        1.0080           0
   35026 WT2  3991 TIP3 H2   HT     0.417000        1.0080           0
   35027 WT2  3992 TIP3 OH2  OT    -0.834000       15.9994           0
   35028 WT2  3992 TIP3 H1   HT     0.417000        1.0080           0
   35029 WT2  3992 TIP3 H2   HT     0.417000        1.0080           0
   35030 WT2  3993 TIP3 OH2  OT    -0.834000       15.9994           0
   35031 WT2  3993 TIP3 H1   HT     0.417000        1.0080           0
   35032 WT2  3993 TIP3 H2   HT     0.417000        1.0080           0
   35033 WT2  3994 TIP3 OH2  OT    -0.834000       15.9994           0
   35034 WT2  3994 TIP3 H1   HT     0.417000        1.0080           0
   35035 WT2  3994 TIP3 H2   HT     0.417000        1.0080           0
   35036 WT2  3995 TIP3 OH2  OT    -0.834000       15.9994           0
   35037 WT2  3995 TIP3 H1   HT     0.417000        1.0080           0
   35038 WT2  3995 TIP3 H2   HT     0.417000        1.0080           0
   35039 WT2  3996 TIP3 OH2  OT    -0.834000       15.9994           0
   35040 WT2  3996 TIP3 H1   HT     0.417000        1.0080           0
   35041 WT2  3996 TIP3 H2   HT     0.417000        1.0080           0
   35042 WT2  3997 TIP3 OH2  OT    -0.834000       15.9994           0
   35043 WT2  3997 TIP3 H1   HT     0.417000        1.0080           0
   35044 WT2  3997 TIP3 H2   HT     0.417000        1.0080           0
   35045 WT2  3998 TIP3 OH2  OT    -0.834000       15.9994           0
   35046 WT2  3998 TIP3 H1   HT     0.417000        1.0080           0
   35047 WT2  3998 TIP3 H2   HT     0.417000        1.0080           0
   35048 WT2  3999 TIP3 OH2  OT    -0.834000       15.9994           0
   35049 WT2  3999 TIP3 H1   HT     0.417000        1.0080           0
   35050 WT2  3999 TIP3 H2   HT     0.417000        1.0080           0
   35051 WT2  4000 TIP3 OH2  OT    -0.834000       15.9994           0
   35052 WT2  4000 TIP3 H1   HT     0.417000        1.0080           0
   35053 WT2  4000 TIP3 H2   HT     0.417000        1.0080           0
   35054 WT2  4001 TIP3 OH2  OT    -0.834000       15.9994           0
   35055 WT2  4001 TIP3 H1   HT     0.417000        1.0080           0
   35056 WT2  4001 TIP3 H2   HT     0.417000        1.0080           0
   35057 WT2  4002 TIP3 OH2  OT    -0.834000       15.9994           0
   35058 WT2  4002 TIP3 H1   HT     0.417000        1.0080           0
   35059 WT2  4002 TIP3 H2   HT     0.417000        1.0080           0
   35060 WT2  4004 TIP3 OH2  OT    -0.834000       15.9994           0
   35061 WT2  4004 TIP3 H1   HT     0.417000        1.0080           0
   35062 WT2  4004 TIP3 H2   HT     0.417000        1.0080           0
   35063 WT2  4005 TIP3 OH2  OT    -0.834000       15.9994           0
   35064 WT2  4005 TIP3 H1   HT     0.417000        1.0080           0
   35065 WT2  4005 TIP3 H2   HT     0.417000        1.0080           0
   35066 WT2  4006 TIP3 OH2  OT    -0.834000       15.9994           0
   35067 WT2  4006 TIP3 H1   HT     0.417000        1.0080           0
   35068 WT2  4006 TIP3 H2   HT     0.417000        1.0080           0
   35069 WT2  4008 TIP3 OH2  OT    -0.834000       15.9994           0
   35070 WT2  4008 TIP3 H1   HT     0.417000        1.0080           0
   35071 WT2  4008 TIP3 H2   HT     0.417000        1.0080           0
   35072 WT2  4009 TIP3 OH2  OT    -0.834000       15.9994           0
   35073 WT2  4009 TIP3 H1   HT     0.417000        1.0080           0
   35074 WT2  4009 TIP3 H2   HT     0.417000        1.0080           0
   35075 WT2  4010 TIP3 OH2  OT    -0.834000       15.9994           0
   35076 WT2  4010 TIP3 H1   HT     0.417000        1.0080           0
   35077 WT2  4010 TIP3 H2   HT     0.417000        1.0080           0
   35078 WT2  4011 TIP3 OH2  OT    -0.834000       15.9994           0
   35079 WT2  4011 TIP3 H1   HT     0.417000        1.0080           0
   35080 WT2  4011 TIP3 H2   HT     0.417000        1.0080           0
   35081 WT2  4012 TIP3 OH2  OT    -0.834000       15.9994           0
   35082 WT2  4012 TIP3 H1   HT     0.417000        1.0080           0
   35083 WT2  4012 TIP3 H2   HT     0.417000        1.0080           0
   35084 WT2  4013 TIP3 OH2  OT    -0.834000       15.9994           0
   35085 WT2  4013 TIP3 H1   HT     0.417000        1.0080           0
   35086 WT2  4013 TIP3 H2   HT     0.417000        1.0080           0
   35087 WT2  4015 TIP3 OH2  OT    -0.834000       15.9994           0
   35088 WT2  4015 TIP3 H1   HT     0.417000        1.0080           0
   35089 WT2  4015 TIP3 H2   HT     0.417000        1.0080           0
   35090 WT2  4017 TIP3 OH2  OT    -0.834000       15.9994           0
   35091 WT2  4017 TIP3 H1   HT     0.417000        1.0080           0
   35092 WT2  4017 TIP3 H2   HT     0.417000        1.0080           0
   35093 WT2  4018 TIP3 OH2  OT    -0.834000       15.9994           0
   35094 WT2  4018 TIP3 H1   HT     0.417000        1.0080           0
   35095 WT2  4018 TIP3 H2   HT     0.417000        1.0080           0
   35096 WT2  4019 TIP3 OH2  OT    -0.834000       15.9994           0
   35097 WT2  4019 TIP3 H1   HT     0.417000        1.0080           0
   35098 WT2  4019 TIP3 H2   HT     0.417000        1.0080           0
   35099 WT2  4022 TIP3 OH2  OT    -0.834000       15.9994           0
   35100 WT2  4022 TIP3 H1   HT     0.417000        1.0080           0
   35101 WT2  4022 TIP3 H2   HT     0.417000        1.0080           0
   35102 WT2  4023 TIP3 OH2  OT    -0.834000       15.9994           0
   35103 WT2  4023 TIP3 H1   HT     0.417000        1.0080           0
   35104 WT2  4023 TIP3 H2   HT     0.417000        1.0080           0
   35105 WT2  4024 TIP3 OH2  OT    -0.834000       15.9994           0
   35106 WT2  4024 TIP3 H1   HT     0.417000        1.0080           0
   35107 WT2  4024 TIP3 H2   HT     0.417000        1.0080           0
   35108 WT2  4026 TIP3 OH2  OT    -0.834000       15.9994           0
   35109 WT2  4026 TIP3 H1   HT     0.417000        1.0080           0
   35110 WT2  4026 TIP3 H2   HT     0.417000        1.0080           0
   35111 WT2  4027 TIP3 OH2  OT    -0.834000       15.9994           0
   35112 WT2  4027 TIP3 H1   HT     0.417000        1.0080           0
   35113 WT2  4027 TIP3 H2   HT     0.417000        1.0080           0
   35114 WT2  4028 TIP3 OH2  OT    -0.834000       15.9994           0
   35115 WT2  4028 TIP3 H1   HT     0.417000        1.0080           0
   35116 WT2  4028 TIP3 H2   HT     0.417000        1.0080           0
   35117 WT2  4029 TIP3 OH2  OT    -0.834000       15.9994           0
   35118 WT2  4029 TIP3 H1   HT     0.417000        1.0080           0
   35119 WT2  4029 TIP3 H2   HT     0.417000        1.0080           0
   35120 WT2  4030 TIP3 OH2  OT    -0.834000       15.9994           0
   35121 WT2  4030 TIP3 H1   HT     0.417000        1.0080           0
   35122 WT2  4030 TIP3 H2   HT     0.417000        1.0080           0
   35123 WT2  4031 TIP3 OH2  OT    -0.834000       15.9994           0
   35124 WT2  4031 TIP3 H1   HT     0.417000        1.0080           0
   35125 WT2  4031 TIP3 H2   HT     0.417000        1.0080           0
   35126 WT2  4032 TIP3 OH2  OT    -0.834000       15.9994           0
   35127 WT2  4032 TIP3 H1   HT     0.417000        1.0080           0
   35128 WT2  4032 TIP3 H2   HT     0.417000        1.0080           0
   35129 WT2  4033 TIP3 OH2  OT    -0.834000       15.9994           0
   35130 WT2  4033 TIP3 H1   HT     0.417000        1.0080           0
   35131 WT2  4033 TIP3 H2   HT     0.417000        1.0080           0
   35132 WT2  4034 TIP3 OH2  OT    -0.834000       15.9994           0
   35133 WT2  4034 TIP3 H1   HT     0.417000        1.0080           0
   35134 WT2  4034 TIP3 H2   HT     0.417000        1.0080           0
   35135 WT2  4035 TIP3 OH2  OT    -0.834000       15.9994           0
   35136 WT2  4035 TIP3 H1   HT     0.417000        1.0080           0
   35137 WT2  4035 TIP3 H2   HT     0.417000        1.0080           0
   35138 WT2  4036 TIP3 OH2  OT    -0.834000       15.9994           0
   35139 WT2  4036 TIP3 H1   HT     0.417000        1.0080           0
   35140 WT2  4036 TIP3 H2   HT     0.417000        1.0080           0
   35141 WT2  4037 TIP3 OH2  OT    -0.834000       15.9994           0
   35142 WT2  4037 TIP3 H1   HT     0.417000        1.0080           0
   35143 WT2  4037 TIP3 H2   HT     0.417000        1.0080           0
   35144 WT2  4038 TIP3 OH2  OT    -0.834000       15.9994           0
   35145 WT2  4038 TIP3 H1   HT     0.417000        1.0080           0
   35146 WT2  4038 TIP3 H2   HT     0.417000        1.0080           0
   35147 WT2  4039 TIP3 OH2  OT    -0.834000       15.9994           0
   35148 WT2  4039 TIP3 H1   HT     0.417000        1.0080           0
   35149 WT2  4039 TIP3 H2   HT     0.417000        1.0080           0
   35150 WT2  4040 TIP3 OH2  OT    -0.834000       15.9994           0
   35151 WT2  4040 TIP3 H1   HT     0.417000        1.0080           0
   35152 WT2  4040 TIP3 H2   HT     0.417000        1.0080           0
   35153 WT2  4042 TIP3 OH2  OT    -0.834000       15.9994           0
   35154 WT2  4042 TIP3 H1   HT     0.417000        1.0080           0
   35155 WT2  4042 TIP3 H2   HT     0.417000        1.0080           0
   35156 WT2  4043 TIP3 OH2  OT    -0.834000       15.9994           0
   35157 WT2  4043 TIP3 H1   HT     0.417000        1.0080           0
   35158 WT2  4043 TIP3 H2   HT     0.417000        1.0080           0
   35159 WT2  4044 TIP3 OH2  OT    -0.834000       15.9994           0
   35160 WT2  4044 TIP3 H1   HT     0.417000        1.0080           0
   35161 WT2  4044 TIP3 H2   HT     0.417000        1.0080           0
   35162 WT2  4045 TIP3 OH2  OT    -0.834000       15.9994           0
   35163 WT2  4045 TIP3 H1   HT     0.417000        1.0080           0
   35164 WT2  4045 TIP3 H2   HT     0.417000        1.0080           0
   35165 WT2  4047 TIP3 OH2  OT    -0.834000       15.9994           0
   35166 WT2  4047 TIP3 H1   HT     0.417000        1.0080           0
   35167 WT2  4047 TIP3 H2   HT     0.417000        1.0080           0
   35168 WT2  4048 TIP3 OH2  OT    -0.834000       15.9994           0
   35169 WT2  4048 TIP3 H1   HT     0.417000        1.0080           0
   35170 WT2  4048 TIP3 H2   HT     0.417000        1.0080           0
   35171 WT2  4049 TIP3 OH2  OT    -0.834000       15.9994           0
   35172 WT2  4049 TIP3 H1   HT     0.417000        1.0080           0
   35173 WT2  4049 TIP3 H2   HT     0.417000        1.0080           0
   35174 WT2  4050 TIP3 OH2  OT    -0.834000       15.9994           0
   35175 WT2  4050 TIP3 H1   HT     0.417000        1.0080           0
   35176 WT2  4050 TIP3 H2   HT     0.417000        1.0080           0
   35177 WT2  4051 TIP3 OH2  OT    -0.834000       15.9994           0
   35178 WT2  4051 TIP3 H1   HT     0.417000        1.0080           0
   35179 WT2  4051 TIP3 H2   HT     0.417000        1.0080           0
   35180 WT2  4052 TIP3 OH2  OT    -0.834000       15.9994           0
   35181 WT2  4052 TIP3 H1   HT     0.417000        1.0080           0
   35182 WT2  4052 TIP3 H2   HT     0.417000        1.0080           0
   35183 WT2  4053 TIP3 OH2  OT    -0.834000       15.9994           0
   35184 WT2  4053 TIP3 H1   HT     0.417000        1.0080           0
   35185 WT2  4053 TIP3 H2   HT     0.417000        1.0080           0
   35186 WT2  4054 TIP3 OH2  OT    -0.834000       15.9994           0
   35187 WT2  4054 TIP3 H1   HT     0.417000        1.0080           0
   35188 WT2  4054 TIP3 H2   HT     0.417000        1.0080           0
   35189 WT2  4055 TIP3 OH2  OT    -0.834000       15.9994           0
   35190 WT2  4055 TIP3 H1   HT     0.417000        1.0080           0
   35191 WT2  4055 TIP3 H2   HT     0.417000        1.0080           0
   35192 WT2  4056 TIP3 OH2  OT    -0.834000       15.9994           0
   35193 WT2  4056 TIP3 H1   HT     0.417000        1.0080           0
   35194 WT2  4056 TIP3 H2   HT     0.417000        1.0080           0
   35195 WT2  4057 TIP3 OH2  OT    -0.834000       15.9994           0
   35196 WT2  4057 TIP3 H1   HT     0.417000        1.0080           0
   35197 WT2  4057 TIP3 H2   HT     0.417000        1.0080           0
   35198 WT2  4058 TIP3 OH2  OT    -0.834000       15.9994           0
   35199 WT2  4058 TIP3 H1   HT     0.417000        1.0080           0
   35200 WT2  4058 TIP3 H2   HT     0.417000        1.0080           0
   35201 WT2  4060 TIP3 OH2  OT    -0.834000       15.9994           0
   35202 WT2  4060 TIP3 H1   HT     0.417000        1.0080           0
   35203 WT2  4060 TIP3 H2   HT     0.417000        1.0080           0
   35204 WT2  4061 TIP3 OH2  OT    -0.834000       15.9994           0
   35205 WT2  4061 TIP3 H1   HT     0.417000        1.0080           0
   35206 WT2  4061 TIP3 H2   HT     0.417000        1.0080           0
   35207 WT2  4062 TIP3 OH2  OT    -0.834000       15.9994           0
   35208 WT2  4062 TIP3 H1   HT     0.417000        1.0080           0
   35209 WT2  4062 TIP3 H2   HT     0.417000        1.0080           0
   35210 WT2  4063 TIP3 OH2  OT    -0.834000       15.9994           0
   35211 WT2  4063 TIP3 H1   HT     0.417000        1.0080           0
   35212 WT2  4063 TIP3 H2   HT     0.417000        1.0080           0
   35213 WT2  4064 TIP3 OH2  OT    -0.834000       15.9994           0
   35214 WT2  4064 TIP3 H1   HT     0.417000        1.0080           0
   35215 WT2  4064 TIP3 H2   HT     0.417000        1.0080           0
   35216 WT2  4065 TIP3 OH2  OT    -0.834000       15.9994           0
   35217 WT2  4065 TIP3 H1   HT     0.417000        1.0080           0
   35218 WT2  4065 TIP3 H2   HT     0.417000        1.0080           0
   35219 WT2  4069 TIP3 OH2  OT    -0.834000       15.9994           0
   35220 WT2  4069 TIP3 H1   HT     0.417000        1.0080           0
   35221 WT2  4069 TIP3 H2   HT     0.417000        1.0080           0
   35222 WT2  4070 TIP3 OH2  OT    -0.834000       15.9994           0
   35223 WT2  4070 TIP3 H1   HT     0.417000        1.0080           0
   35224 WT2  4070 TIP3 H2   HT     0.417000        1.0080           0
   35225 WT2  4071 TIP3 OH2  OT    -0.834000       15.9994           0
   35226 WT2  4071 TIP3 H1   HT     0.417000        1.0080           0
   35227 WT2  4071 TIP3 H2   HT     0.417000        1.0080           0
   35228 WT2  4072 TIP3 OH2  OT    -0.834000       15.9994           0
   35229 WT2  4072 TIP3 H1   HT     0.417000        1.0080           0
   35230 WT2  4072 TIP3 H2   HT     0.417000        1.0080           0
   35231 WT2  4073 TIP3 OH2  OT    -0.834000       15.9994           0
   35232 WT2  4073 TIP3 H1   HT     0.417000        1.0080           0
   35233 WT2  4073 TIP3 H2   HT     0.417000        1.0080           0
   35234 WT2  4074 TIP3 OH2  OT    -0.834000       15.9994           0
   35235 WT2  4074 TIP3 H1   HT     0.417000        1.0080           0
   35236 WT2  4074 TIP3 H2   HT     0.417000        1.0080           0
   35237 WT2  4075 TIP3 OH2  OT    -0.834000       15.9994           0
   35238 WT2  4075 TIP3 H1   HT     0.417000        1.0080           0
   35239 WT2  4075 TIP3 H2   HT     0.417000        1.0080           0
   35240 WT2  4076 TIP3 OH2  OT    -0.834000       15.9994           0
   35241 WT2  4076 TIP3 H1   HT     0.417000        1.0080           0
   35242 WT2  4076 TIP3 H2   HT     0.417000        1.0080           0
   35243 WT2  4077 TIP3 OH2  OT    -0.834000       15.9994           0
   35244 WT2  4077 TIP3 H1   HT     0.417000        1.0080           0
   35245 WT2  4077 TIP3 H2   HT     0.417000        1.0080           0
   35246 WT2  4078 TIP3 OH2  OT    -0.834000       15.9994           0
   35247 WT2  4078 TIP3 H1   HT     0.417000        1.0080           0
   35248 WT2  4078 TIP3 H2   HT     0.417000        1.0080           0
   35249 WT2  4079 TIP3 OH2  OT    -0.834000       15.9994           0
   35250 WT2  4079 TIP3 H1   HT     0.417000        1.0080           0
   35251 WT2  4079 TIP3 H2   HT     0.417000        1.0080           0
   35252 WT2  4080 TIP3 OH2  OT    -0.834000       15.9994           0
   35253 WT2  4080 TIP3 H1   HT     0.417000        1.0080           0
   35254 WT2  4080 TIP3 H2   HT     0.417000        1.0080           0
   35255 WT2  4081 TIP3 OH2  OT    -0.834000       15.9994           0
   35256 WT2  4081 TIP3 H1   HT     0.417000        1.0080           0
   35257 WT2  4081 TIP3 H2   HT     0.417000        1.0080           0
   35258 WT2  4082 TIP3 OH2  OT    -0.834000       15.9994           0
   35259 WT2  4082 TIP3 H1   HT     0.417000        1.0080           0
   35260 WT2  4082 TIP3 H2   HT     0.417000        1.0080           0
   35261 WT2  4083 TIP3 OH2  OT    -0.834000       15.9994           0
   35262 WT2  4083 TIP3 H1   HT     0.417000        1.0080           0
   35263 WT2  4083 TIP3 H2   HT     0.417000        1.0080           0
   35264 WT2  4084 TIP3 OH2  OT    -0.834000       15.9994           0
   35265 WT2  4084 TIP3 H1   HT     0.417000        1.0080           0
   35266 WT2  4084 TIP3 H2   HT     0.417000        1.0080           0
   35267 WT2  4085 TIP3 OH2  OT    -0.834000       15.9994           0
   35268 WT2  4085 TIP3 H1   HT     0.417000        1.0080           0
   35269 WT2  4085 TIP3 H2   HT     0.417000        1.0080           0
   35270 WT2  4086 TIP3 OH2  OT    -0.834000       15.9994           0
   35271 WT2  4086 TIP3 H1   HT     0.417000        1.0080           0
   35272 WT2  4086 TIP3 H2   HT     0.417000        1.0080           0
   35273 WT2  4087 TIP3 OH2  OT    -0.834000       15.9994           0
   35274 WT2  4087 TIP3 H1   HT     0.417000        1.0080           0
   35275 WT2  4087 TIP3 H2   HT     0.417000        1.0080           0
   35276 WT2  4088 TIP3 OH2  OT    -0.834000       15.9994           0
   35277 WT2  4088 TIP3 H1   HT     0.417000        1.0080           0
   35278 WT2  4088 TIP3 H2   HT     0.417000        1.0080           0
   35279 WT2  4089 TIP3 OH2  OT    -0.834000       15.9994           0
   35280 WT2  4089 TIP3 H1   HT     0.417000        1.0080           0
   35281 WT2  4089 TIP3 H2   HT     0.417000        1.0080           0
   35282 WT2  4090 TIP3 OH2  OT    -0.834000       15.9994           0
   35283 WT2  4090 TIP3 H1   HT     0.417000        1.0080           0
   35284 WT2  4090 TIP3 H2   HT     0.417000        1.0080           0
   35285 WT2  4091 TIP3 OH2  OT    -0.834000       15.9994           0
   35286 WT2  4091 TIP3 H1   HT     0.417000        1.0080           0
   35287 WT2  4091 TIP3 H2   HT     0.417000        1.0080           0
   35288 WT2  4092 TIP3 OH2  OT    -0.834000       15.9994           0
   35289 WT2  4092 TIP3 H1   HT     0.417000        1.0080           0
   35290 WT2  4092 TIP3 H2   HT     0.417000        1.0080           0
   35291 WT2  4093 TIP3 OH2  OT    -0.834000       15.9994           0
   35292 WT2  4093 TIP3 H1   HT     0.417000        1.0080           0
   35293 WT2  4093 TIP3 H2   HT     0.417000        1.0080           0
   35294 WT2  4094 TIP3 OH2  OT    -0.834000       15.9994           0
   35295 WT2  4094 TIP3 H1   HT     0.417000        1.0080           0
   35296 WT2  4094 TIP3 H2   HT     0.417000        1.0080           0
   35297 WT2  4096 TIP3 OH2  OT    -0.834000       15.9994           0
   35298 WT2  4096 TIP3 H1   HT     0.417000        1.0080           0
   35299 WT2  4096 TIP3 H2   HT     0.417000        1.0080           0
   35300 WT2  4097 TIP3 OH2  OT    -0.834000       15.9994           0
   35301 WT2  4097 TIP3 H1   HT     0.417000        1.0080           0
   35302 WT2  4097 TIP3 H2   HT     0.417000        1.0080           0
   35303 WT2  4098 TIP3 OH2  OT    -0.834000       15.9994           0
   35304 WT2  4098 TIP3 H1   HT     0.417000        1.0080           0
   35305 WT2  4098 TIP3 H2   HT     0.417000        1.0080           0
   35306 WT2  4099 TIP3 OH2  OT    -0.834000       15.9994           0
   35307 WT2  4099 TIP3 H1   HT     0.417000        1.0080           0
   35308 WT2  4099 TIP3 H2   HT     0.417000        1.0080           0
   35309 WT2  4101 TIP3 OH2  OT    -0.834000       15.9994           0
   35310 WT2  4101 TIP3 H1   HT     0.417000        1.0080           0
   35311 WT2  4101 TIP3 H2   HT     0.417000        1.0080           0
   35312 WT2  4102 TIP3 OH2  OT    -0.834000       15.9994           0
   35313 WT2  4102 TIP3 H1   HT     0.417000        1.0080           0
   35314 WT2  4102 TIP3 H2   HT     0.417000        1.0080           0
   35315 WT2  4103 TIP3 OH2  OT    -0.834000       15.9994           0
   35316 WT2  4103 TIP3 H1   HT     0.417000        1.0080           0
   35317 WT2  4103 TIP3 H2   HT     0.417000        1.0080           0
   35318 WT2  4104 TIP3 OH2  OT    -0.834000       15.9994           0
   35319 WT2  4104 TIP3 H1   HT     0.417000        1.0080           0
   35320 WT2  4104 TIP3 H2   HT     0.417000        1.0080           0
   35321 WT2  4105 TIP3 OH2  OT    -0.834000       15.9994           0
   35322 WT2  4105 TIP3 H1   HT     0.417000        1.0080           0
   35323 WT2  4105 TIP3 H2   HT     0.417000        1.0080           0
   35324 WT2  4106 TIP3 OH2  OT    -0.834000       15.9994           0
   35325 WT2  4106 TIP3 H1   HT     0.417000        1.0080           0
   35326 WT2  4106 TIP3 H2   HT     0.417000        1.0080           0
   35327 WT2  4107 TIP3 OH2  OT    -0.834000       15.9994           0
   35328 WT2  4107 TIP3 H1   HT     0.417000        1.0080           0
   35329 WT2  4107 TIP3 H2   HT     0.417000        1.0080           0
   35330 WT2  4108 TIP3 OH2  OT    -0.834000       15.9994           0
   35331 WT2  4108 TIP3 H1   HT     0.417000        1.0080           0
   35332 WT2  4108 TIP3 H2   HT     0.417000        1.0080           0
   35333 WT2  4111 TIP3 OH2  OT    -0.834000       15.9994           0
   35334 WT2  4111 TIP3 H1   HT     0.417000        1.0080           0
   35335 WT2  4111 TIP3 H2   HT     0.417000        1.0080           0
   35336 WT2  4113 TIP3 OH2  OT    -0.834000       15.9994           0
   35337 WT2  4113 TIP3 H1   HT     0.417000        1.0080           0
   35338 WT2  4113 TIP3 H2   HT     0.417000        1.0080           0
   35339 WT2  4114 TIP3 OH2  OT    -0.834000       15.9994           0
   35340 WT2  4114 TIP3 H1   HT     0.417000        1.0080           0
   35341 WT2  4114 TIP3 H2   HT     0.417000        1.0080           0
   35342 WT2  4115 TIP3 OH2  OT    -0.834000       15.9994           0
   35343 WT2  4115 TIP3 H1   HT     0.417000        1.0080           0
   35344 WT2  4115 TIP3 H2   HT     0.417000        1.0080           0
   35345 WT2  4116 TIP3 OH2  OT    -0.834000       15.9994           0
   35346 WT2  4116 TIP3 H1   HT     0.417000        1.0080           0
   35347 WT2  4116 TIP3 H2   HT     0.417000        1.0080           0
   35348 WT2  4118 TIP3 OH2  OT    -0.834000       15.9994           0
   35349 WT2  4118 TIP3 H1   HT     0.417000        1.0080           0
   35350 WT2  4118 TIP3 H2   HT     0.417000        1.0080           0
   35351 WT2  4119 TIP3 OH2  OT    -0.834000       15.9994           0
   35352 WT2  4119 TIP3 H1   HT     0.417000        1.0080           0
   35353 WT2  4119 TIP3 H2   HT     0.417000        1.0080           0
   35354 WT2  4120 TIP3 OH2  OT    -0.834000       15.9994           0
   35355 WT2  4120 TIP3 H1   HT     0.417000        1.0080           0
   35356 WT2  4120 TIP3 H2   HT     0.417000        1.0080           0
   35357 WT2  4121 TIP3 OH2  OT    -0.834000       15.9994           0
   35358 WT2  4121 TIP3 H1   HT     0.417000        1.0080           0
   35359 WT2  4121 TIP3 H2   HT     0.417000        1.0080           0
   35360 WT2  4122 TIP3 OH2  OT    -0.834000       15.9994           0
   35361 WT2  4122 TIP3 H1   HT     0.417000        1.0080           0
   35362 WT2  4122 TIP3 H2   HT     0.417000        1.0080           0
   35363 WT2  4123 TIP3 OH2  OT    -0.834000       15.9994           0
   35364 WT2  4123 TIP3 H1   HT     0.417000        1.0080           0
   35365 WT2  4123 TIP3 H2   HT     0.417000        1.0080           0
   35366 WT2  4124 TIP3 OH2  OT    -0.834000       15.9994           0
   35367 WT2  4124 TIP3 H1   HT     0.417000        1.0080           0
   35368 WT2  4124 TIP3 H2   HT     0.417000        1.0080           0
   35369 WT2  4125 TIP3 OH2  OT    -0.834000       15.9994           0
   35370 WT2  4125 TIP3 H1   HT     0.417000        1.0080           0
   35371 WT2  4125 TIP3 H2   HT     0.417000        1.0080           0
   35372 WT2  4126 TIP3 OH2  OT    -0.834000       15.9994           0
   35373 WT2  4126 TIP3 H1   HT     0.417000        1.0080           0
   35374 WT2  4126 TIP3 H2   HT     0.417000        1.0080           0
   35375 WT2  4127 TIP3 OH2  OT    -0.834000       15.9994           0
   35376 WT2  4127 TIP3 H1   HT     0.417000        1.0080           0
   35377 WT2  4127 TIP3 H2   HT     0.417000        1.0080           0
   35378 WT2  4129 TIP3 OH2  OT    -0.834000       15.9994           0
   35379 WT2  4129 TIP3 H1   HT     0.417000        1.0080           0
   35380 WT2  4129 TIP3 H2   HT     0.417000        1.0080           0
   35381 WT2  4130 TIP3 OH2  OT    -0.834000       15.9994           0
   35382 WT2  4130 TIP3 H1   HT     0.417000        1.0080           0
   35383 WT2  4130 TIP3 H2   HT     0.417000        1.0080           0
   35384 WT2  4131 TIP3 OH2  OT    -0.834000       15.9994           0
   35385 WT2  4131 TIP3 H1   HT     0.417000        1.0080           0
   35386 WT2  4131 TIP3 H2   HT     0.417000        1.0080           0
   35387 WT2  4132 TIP3 OH2  OT    -0.834000       15.9994           0
   35388 WT2  4132 TIP3 H1   HT     0.417000        1.0080           0
   35389 WT2  4132 TIP3 H2   HT     0.417000        1.0080           0
   35390 WT2  4133 TIP3 OH2  OT    -0.834000       15.9994           0
   35391 WT2  4133 TIP3 H1   HT     0.417000        1.0080           0
   35392 WT2  4133 TIP3 H2   HT     0.417000        1.0080           0
   35393 WT2  4134 TIP3 OH2  OT    -0.834000       15.9994           0
   35394 WT2  4134 TIP3 H1   HT     0.417000        1.0080           0
   35395 WT2  4134 TIP3 H2   HT     0.417000        1.0080           0
   35396 WT2  4135 TIP3 OH2  OT    -0.834000       15.9994           0
   35397 WT2  4135 TIP3 H1   HT     0.417000        1.0080           0
   35398 WT2  4135 TIP3 H2   HT     0.417000        1.0080           0
   35399 WT2  4136 TIP3 OH2  OT    -0.834000       15.9994           0
   35400 WT2  4136 TIP3 H1   HT     0.417000        1.0080           0
   35401 WT2  4136 TIP3 H2   HT     0.417000        1.0080           0
   35402 WT2  4137 TIP3 OH2  OT    -0.834000       15.9994           0
   35403 WT2  4137 TIP3 H1   HT     0.417000        1.0080           0
   35404 WT2  4137 TIP3 H2   HT     0.417000        1.0080           0
   35405 WT2  4138 TIP3 OH2  OT    -0.834000       15.9994           0
   35406 WT2  4138 TIP3 H1   HT     0.417000        1.0080           0
   35407 WT2  4138 TIP3 H2   HT     0.417000        1.0080           0
   35408 WT2  4139 TIP3 OH2  OT    -0.834000       15.9994           0
   35409 WT2  4139 TIP3 H1   HT     0.417000        1.0080           0
   35410 WT2  4139 TIP3 H2   HT     0.417000        1.0080           0
   35411 WT2  4140 TIP3 OH2  OT    -0.834000       15.9994           0
   35412 WT2  4140 TIP3 H1   HT     0.417000        1.0080           0
   35413 WT2  4140 TIP3 H2   HT     0.417000        1.0080           0
   35414 WT2  4141 TIP3 OH2  OT    -0.834000       15.9994           0
   35415 WT2  4141 TIP3 H1   HT     0.417000        1.0080           0
   35416 WT2  4141 TIP3 H2   HT     0.417000        1.0080           0
   35417 WT2  4142 TIP3 OH2  OT    -0.834000       15.9994           0
   35418 WT2  4142 TIP3 H1   HT     0.417000        1.0080           0
   35419 WT2  4142 TIP3 H2   HT     0.417000        1.0080           0
   35420 WT2  4143 TIP3 OH2  OT    -0.834000       15.9994           0
   35421 WT2  4143 TIP3 H1   HT     0.417000        1.0080           0
   35422 WT2  4143 TIP3 H2   HT     0.417000        1.0080           0
   35423 WT2  4144 TIP3 OH2  OT    -0.834000       15.9994           0
   35424 WT2  4144 TIP3 H1   HT     0.417000        1.0080           0
   35425 WT2  4144 TIP3 H2   HT     0.417000        1.0080           0
   35426 WT2  4145 TIP3 OH2  OT    -0.834000       15.9994           0
   35427 WT2  4145 TIP3 H1   HT     0.417000        1.0080           0
   35428 WT2  4145 TIP3 H2   HT     0.417000        1.0080           0
   35429 WT2  4146 TIP3 OH2  OT    -0.834000       15.9994           0
   35430 WT2  4146 TIP3 H1   HT     0.417000        1.0080           0
   35431 WT2  4146 TIP3 H2   HT     0.417000        1.0080           0
   35432 WT2  4147 TIP3 OH2  OT    -0.834000       15.9994           0
   35433 WT2  4147 TIP3 H1   HT     0.417000        1.0080           0
   35434 WT2  4147 TIP3 H2   HT     0.417000        1.0080           0
   35435 WT2  4148 TIP3 OH2  OT    -0.834000       15.9994           0
   35436 WT2  4148 TIP3 H1   HT     0.417000        1.0080           0
   35437 WT2  4148 TIP3 H2   HT     0.417000        1.0080           0
   35438 WT2  4149 TIP3 OH2  OT    -0.834000       15.9994           0
   35439 WT2  4149 TIP3 H1   HT     0.417000        1.0080           0
   35440 WT2  4149 TIP3 H2   HT     0.417000        1.0080           0
   35441 WT2  4150 TIP3 OH2  OT    -0.834000       15.9994           0
   35442 WT2  4150 TIP3 H1   HT     0.417000        1.0080           0
   35443 WT2  4150 TIP3 H2   HT     0.417000        1.0080           0
   35444 WT2  4151 TIP3 OH2  OT    -0.834000       15.9994           0
   35445 WT2  4151 TIP3 H1   HT     0.417000        1.0080           0
   35446 WT2  4151 TIP3 H2   HT     0.417000        1.0080           0
   35447 WT2  4152 TIP3 OH2  OT    -0.834000       15.9994           0
   35448 WT2  4152 TIP3 H1   HT     0.417000        1.0080           0
   35449 WT2  4152 TIP3 H2   HT     0.417000        1.0080           0
   35450 WT2  4153 TIP3 OH2  OT    -0.834000       15.9994           0
   35451 WT2  4153 TIP3 H1   HT     0.417000        1.0080           0
   35452 WT2  4153 TIP3 H2   HT     0.417000        1.0080           0
   35453 WT2  4156 TIP3 OH2  OT    -0.834000       15.9994           0
   35454 WT2  4156 TIP3 H1   HT     0.417000        1.0080           0
   35455 WT2  4156 TIP3 H2   HT     0.417000        1.0080           0
   35456 WT2  4157 TIP3 OH2  OT    -0.834000       15.9994           0
   35457 WT2  4157 TIP3 H1   HT     0.417000        1.0080           0
   35458 WT2  4157 TIP3 H2   HT     0.417000        1.0080           0
   35459 WT2  4158 TIP3 OH2  OT    -0.834000       15.9994           0
   35460 WT2  4158 TIP3 H1   HT     0.417000        1.0080           0
   35461 WT2  4158 TIP3 H2   HT     0.417000        1.0080           0
   35462 WT2  4159 TIP3 OH2  OT    -0.834000       15.9994           0
   35463 WT2  4159 TIP3 H1   HT     0.417000        1.0080           0
   35464 WT2  4159 TIP3 H2   HT     0.417000        1.0080           0
   35465 WT2  4160 TIP3 OH2  OT    -0.834000       15.9994           0
   35466 WT2  4160 TIP3 H1   HT     0.417000        1.0080           0
   35467 WT2  4160 TIP3 H2   HT     0.417000        1.0080           0
   35468 WT2  4161 TIP3 OH2  OT    -0.834000       15.9994           0
   35469 WT2  4161 TIP3 H1   HT     0.417000        1.0080           0
   35470 WT2  4161 TIP3 H2   HT     0.417000        1.0080           0
   35471 WT2  4162 TIP3 OH2  OT    -0.834000       15.9994           0
   35472 WT2  4162 TIP3 H1   HT     0.417000        1.0080           0
   35473 WT2  4162 TIP3 H2   HT     0.417000        1.0080           0
   35474 WT2  4163 TIP3 OH2  OT    -0.834000       15.9994           0
   35475 WT2  4163 TIP3 H1   HT     0.417000        1.0080           0
   35476 WT2  4163 TIP3 H2   HT     0.417000        1.0080           0
   35477 WT2  4164 TIP3 OH2  OT    -0.834000       15.9994           0
   35478 WT2  4164 TIP3 H1   HT     0.417000        1.0080           0
   35479 WT2  4164 TIP3 H2   HT     0.417000        1.0080           0
   35480 WT2  4165 TIP3 OH2  OT    -0.834000       15.9994           0
   35481 WT2  4165 TIP3 H1   HT     0.417000        1.0080           0
   35482 WT2  4165 TIP3 H2   HT     0.417000        1.0080           0
   35483 WT2  4167 TIP3 OH2  OT    -0.834000       15.9994           0
   35484 WT2  4167 TIP3 H1   HT     0.417000        1.0080           0
   35485 WT2  4167 TIP3 H2   HT     0.417000        1.0080           0
   35486 WT2  4168 TIP3 OH2  OT    -0.834000       15.9994           0
   35487 WT2  4168 TIP3 H1   HT     0.417000        1.0080           0
   35488 WT2  4168 TIP3 H2   HT     0.417000        1.0080           0
   35489 WT2  4170 TIP3 OH2  OT    -0.834000       15.9994           0
   35490 WT2  4170 TIP3 H1   HT     0.417000        1.0080           0
   35491 WT2  4170 TIP3 H2   HT     0.417000        1.0080           0
   35492 WT2  4171 TIP3 OH2  OT    -0.834000       15.9994           0
   35493 WT2  4171 TIP3 H1   HT     0.417000        1.0080           0
   35494 WT2  4171 TIP3 H2   HT     0.417000        1.0080           0
   35495 WT2  4172 TIP3 OH2  OT    -0.834000       15.9994           0
   35496 WT2  4172 TIP3 H1   HT     0.417000        1.0080           0
   35497 WT2  4172 TIP3 H2   HT     0.417000        1.0080           0
   35498 WT2  4173 TIP3 OH2  OT    -0.834000       15.9994           0
   35499 WT2  4173 TIP3 H1   HT     0.417000        1.0080           0
   35500 WT2  4173 TIP3 H2   HT     0.417000        1.0080           0
   35501 WT2  4174 TIP3 OH2  OT    -0.834000       15.9994           0
   35502 WT2  4174 TIP3 H1   HT     0.417000        1.0080           0
   35503 WT2  4174 TIP3 H2   HT     0.417000        1.0080           0
   35504 WT2  4175 TIP3 OH2  OT    -0.834000       15.9994           0
   35505 WT2  4175 TIP3 H1   HT     0.417000        1.0080           0
   35506 WT2  4175 TIP3 H2   HT     0.417000        1.0080           0
   35507 WT2  4176 TIP3 OH2  OT    -0.834000       15.9994           0
   35508 WT2  4176 TIP3 H1   HT     0.417000        1.0080           0
   35509 WT2  4176 TIP3 H2   HT     0.417000        1.0080           0
   35510 WT2  4177 TIP3 OH2  OT    -0.834000       15.9994           0
   35511 WT2  4177 TIP3 H1   HT     0.417000        1.0080           0
   35512 WT2  4177 TIP3 H2   HT     0.417000        1.0080           0
   35513 WT2  4179 TIP3 OH2  OT    -0.834000       15.9994           0
   35514 WT2  4179 TIP3 H1   HT     0.417000        1.0080           0
   35515 WT2  4179 TIP3 H2   HT     0.417000        1.0080           0
   35516 WT2  4180 TIP3 OH2  OT    -0.834000       15.9994           0
   35517 WT2  4180 TIP3 H1   HT     0.417000        1.0080           0
   35518 WT2  4180 TIP3 H2   HT     0.417000        1.0080           0
   35519 WT2  4184 TIP3 OH2  OT    -0.834000       15.9994           0
   35520 WT2  4184 TIP3 H1   HT     0.417000        1.0080           0
   35521 WT2  4184 TIP3 H2   HT     0.417000        1.0080           0
   35522 WT2  4185 TIP3 OH2  OT    -0.834000       15.9994           0
   35523 WT2  4185 TIP3 H1   HT     0.417000        1.0080           0
   35524 WT2  4185 TIP3 H2   HT     0.417000        1.0080           0
   35525 WT2  4186 TIP3 OH2  OT    -0.834000       15.9994           0
   35526 WT2  4186 TIP3 H1   HT     0.417000        1.0080           0
   35527 WT2  4186 TIP3 H2   HT     0.417000        1.0080           0
   35528 WT2  4187 TIP3 OH2  OT    -0.834000       15.9994           0
   35529 WT2  4187 TIP3 H1   HT     0.417000        1.0080           0
   35530 WT2  4187 TIP3 H2   HT     0.417000        1.0080           0
   35531 WT2  4188 TIP3 OH2  OT    -0.834000       15.9994           0
   35532 WT2  4188 TIP3 H1   HT     0.417000        1.0080           0
   35533 WT2  4188 TIP3 H2   HT     0.417000        1.0080           0
   35534 WT2  4189 TIP3 OH2  OT    -0.834000       15.9994           0
   35535 WT2  4189 TIP3 H1   HT     0.417000        1.0080           0
   35536 WT2  4189 TIP3 H2   HT     0.417000        1.0080           0
   35537 WT2  4190 TIP3 OH2  OT    -0.834000       15.9994           0
   35538 WT2  4190 TIP3 H1   HT     0.417000        1.0080           0
   35539 WT2  4190 TIP3 H2   HT     0.417000        1.0080           0
   35540 WT2  4191 TIP3 OH2  OT    -0.834000       15.9994           0
   35541 WT2  4191 TIP3 H1   HT     0.417000        1.0080           0
   35542 WT2  4191 TIP3 H2   HT     0.417000        1.0080           0
   35543 WT2  4192 TIP3 OH2  OT    -0.834000       15.9994           0
   35544 WT2  4192 TIP3 H1   HT     0.417000        1.0080           0
   35545 WT2  4192 TIP3 H2   HT     0.417000        1.0080           0
   35546 WT2  4195 TIP3 OH2  OT    -0.834000       15.9994           0
   35547 WT2  4195 TIP3 H1   HT     0.417000        1.0080           0
   35548 WT2  4195 TIP3 H2   HT     0.417000        1.0080           0
   35549 WT2  4196 TIP3 OH2  OT    -0.834000       15.9994           0
   35550 WT2  4196 TIP3 H1   HT     0.417000        1.0080           0
   35551 WT2  4196 TIP3 H2   HT     0.417000        1.0080           0
   35552 WT2  4197 TIP3 OH2  OT    -0.834000       15.9994           0
   35553 WT2  4197 TIP3 H1   HT     0.417000        1.0080           0
   35554 WT2  4197 TIP3 H2   HT     0.417000        1.0080           0
   35555 WT2  4199 TIP3 OH2  OT    -0.834000       15.9994           0
   35556 WT2  4199 TIP3 H1   HT     0.417000        1.0080           0
   35557 WT2  4199 TIP3 H2   HT     0.417000        1.0080           0
   35558 WT2  4200 TIP3 OH2  OT    -0.834000       15.9994           0
   35559 WT2  4200 TIP3 H1   HT     0.417000        1.0080           0
   35560 WT2  4200 TIP3 H2   HT     0.417000        1.0080           0
   35561 WT2  4201 TIP3 OH2  OT    -0.834000       15.9994           0
   35562 WT2  4201 TIP3 H1   HT     0.417000        1.0080           0
   35563 WT2  4201 TIP3 H2   HT     0.417000        1.0080           0
   35564 WT2  4202 TIP3 OH2  OT    -0.834000       15.9994           0
   35565 WT2  4202 TIP3 H1   HT     0.417000        1.0080           0
   35566 WT2  4202 TIP3 H2   HT     0.417000        1.0080           0
   35567 WT2  4203 TIP3 OH2  OT    -0.834000       15.9994           0
   35568 WT2  4203 TIP3 H1   HT     0.417000        1.0080           0
   35569 WT2  4203 TIP3 H2   HT     0.417000        1.0080           0
   35570 WT2  4204 TIP3 OH2  OT    -0.834000       15.9994           0
   35571 WT2  4204 TIP3 H1   HT     0.417000        1.0080           0
   35572 WT2  4204 TIP3 H2   HT     0.417000        1.0080           0
   35573 WT2  4205 TIP3 OH2  OT    -0.834000       15.9994           0
   35574 WT2  4205 TIP3 H1   HT     0.417000        1.0080           0
   35575 WT2  4205 TIP3 H2   HT     0.417000        1.0080           0
   35576 WT2  4206 TIP3 OH2  OT    -0.834000       15.9994           0
   35577 WT2  4206 TIP3 H1   HT     0.417000        1.0080           0
   35578 WT2  4206 TIP3 H2   HT     0.417000        1.0080           0
   35579 WT2  4210 TIP3 OH2  OT    -0.834000       15.9994           0
   35580 WT2  4210 TIP3 H1   HT     0.417000        1.0080           0
   35581 WT2  4210 TIP3 H2   HT     0.417000        1.0080           0
   35582 WT2  4214 TIP3 OH2  OT    -0.834000       15.9994           0
   35583 WT2  4214 TIP3 H1   HT     0.417000        1.0080           0
   35584 WT2  4214 TIP3 H2   HT     0.417000        1.0080           0
   35585 WT2  4215 TIP3 OH2  OT    -0.834000       15.9994           0
   35586 WT2  4215 TIP3 H1   HT     0.417000        1.0080           0
   35587 WT2  4215 TIP3 H2   HT     0.417000        1.0080           0
   35588 WT2  4216 TIP3 OH2  OT    -0.834000       15.9994           0
   35589 WT2  4216 TIP3 H1   HT     0.417000        1.0080           0
   35590 WT2  4216 TIP3 H2   HT     0.417000        1.0080           0
   35591 WT2  4217 TIP3 OH2  OT    -0.834000       15.9994           0
   35592 WT2  4217 TIP3 H1   HT     0.417000        1.0080           0
   35593 WT2  4217 TIP3 H2   HT     0.417000        1.0080           0
   35594 WT2  4218 TIP3 OH2  OT    -0.834000       15.9994           0
   35595 WT2  4218 TIP3 H1   HT     0.417000        1.0080           0
   35596 WT2  4218 TIP3 H2   HT     0.417000        1.0080           0
   35597 WT2  4219 TIP3 OH2  OT    -0.834000       15.9994           0
   35598 WT2  4219 TIP3 H1   HT     0.417000        1.0080           0
   35599 WT2  4219 TIP3 H2   HT     0.417000        1.0080           0
   35600 WT2  4220 TIP3 OH2  OT    -0.834000       15.9994           0
   35601 WT2  4220 TIP3 H1   HT     0.417000        1.0080           0
   35602 WT2  4220 TIP3 H2   HT     0.417000        1.0080           0
   35603 WT2  4221 TIP3 OH2  OT    -0.834000       15.9994           0
   35604 WT2  4221 TIP3 H1   HT     0.417000        1.0080           0
   35605 WT2  4221 TIP3 H2   HT     0.417000        1.0080           0
   35606 WT2  4222 TIP3 OH2  OT    -0.834000       15.9994           0
   35607 WT2  4222 TIP3 H1   HT     0.417000        1.0080           0
   35608 WT2  4222 TIP3 H2   HT     0.417000        1.0080           0
   35609 WT2  4224 TIP3 OH2  OT    -0.834000       15.9994           0
   35610 WT2  4224 TIP3 H1   HT     0.417000        1.0080           0
   35611 WT2  4224 TIP3 H2   HT     0.417000        1.0080           0
   35612 WT2  4225 TIP3 OH2  OT    -0.834000       15.9994           0
   35613 WT2  4225 TIP3 H1   HT     0.417000        1.0080           0
   35614 WT2  4225 TIP3 H2   HT     0.417000        1.0080           0
   35615 WT2  4226 TIP3 OH2  OT    -0.834000       15.9994           0
   35616 WT2  4226 TIP3 H1   HT     0.417000        1.0080           0
   35617 WT2  4226 TIP3 H2   HT     0.417000        1.0080           0
   35618 WT2  4227 TIP3 OH2  OT    -0.834000       15.9994           0
   35619 WT2  4227 TIP3 H1   HT     0.417000        1.0080           0
   35620 WT2  4227 TIP3 H2   HT     0.417000        1.0080           0
   35621 WT2  4228 TIP3 OH2  OT    -0.834000       15.9994           0
   35622 WT2  4228 TIP3 H1   HT     0.417000        1.0080           0
   35623 WT2  4228 TIP3 H2   HT     0.417000        1.0080           0
   35624 WT2  4229 TIP3 OH2  OT    -0.834000       15.9994           0
   35625 WT2  4229 TIP3 H1   HT     0.417000        1.0080           0
   35626 WT2  4229 TIP3 H2   HT     0.417000        1.0080           0
   35627 WT2  4230 TIP3 OH2  OT    -0.834000       15.9994           0
   35628 WT2  4230 TIP3 H1   HT     0.417000        1.0080           0
   35629 WT2  4230 TIP3 H2   HT     0.417000        1.0080           0
   35630 WT2  4231 TIP3 OH2  OT    -0.834000       15.9994           0
   35631 WT2  4231 TIP3 H1   HT     0.417000        1.0080           0
   35632 WT2  4231 TIP3 H2   HT     0.417000        1.0080           0
   35633 WT2  4232 TIP3 OH2  OT    -0.834000       15.9994           0
   35634 WT2  4232 TIP3 H1   HT     0.417000        1.0080           0
   35635 WT2  4232 TIP3 H2   HT     0.417000        1.0080           0
   35636 WT2  4233 TIP3 OH2  OT    -0.834000       15.9994           0
   35637 WT2  4233 TIP3 H1   HT     0.417000        1.0080           0
   35638 WT2  4233 TIP3 H2   HT     0.417000        1.0080           0
   35639 WT2  4234 TIP3 OH2  OT    -0.834000       15.9994           0
   35640 WT2  4234 TIP3 H1   HT     0.417000        1.0080           0
   35641 WT2  4234 TIP3 H2   HT     0.417000        1.0080           0
   35642 WT2  4235 TIP3 OH2  OT    -0.834000       15.9994           0
   35643 WT2  4235 TIP3 H1   HT     0.417000        1.0080           0
   35644 WT2  4235 TIP3 H2   HT     0.417000        1.0080           0
   35645 WT2  4236 TIP3 OH2  OT    -0.834000       15.9994           0
   35646 WT2  4236 TIP3 H1   HT     0.417000        1.0080           0
   35647 WT2  4236 TIP3 H2   HT     0.417000        1.0080           0
   35648 WT2  4238 TIP3 OH2  OT    -0.834000       15.9994           0
   35649 WT2  4238 TIP3 H1   HT     0.417000        1.0080           0
   35650 WT2  4238 TIP3 H2   HT     0.417000        1.0080           0
   35651 WT2  4239 TIP3 OH2  OT    -0.834000       15.9994           0
   35652 WT2  4239 TIP3 H1   HT     0.417000        1.0080           0
   35653 WT2  4239 TIP3 H2   HT     0.417000        1.0080           0
   35654 WT2  4241 TIP3 OH2  OT    -0.834000       15.9994           0
   35655 WT2  4241 TIP3 H1   HT     0.417000        1.0080           0
   35656 WT2  4241 TIP3 H2   HT     0.417000        1.0080           0
   35657 WT2  4242 TIP3 OH2  OT    -0.834000       15.9994           0
   35658 WT2  4242 TIP3 H1   HT     0.417000        1.0080           0
   35659 WT2  4242 TIP3 H2   HT     0.417000        1.0080           0
   35660 WT2  4243 TIP3 OH2  OT    -0.834000       15.9994           0
   35661 WT2  4243 TIP3 H1   HT     0.417000        1.0080           0
   35662 WT2  4243 TIP3 H2   HT     0.417000        1.0080           0
   35663 WT2  4244 TIP3 OH2  OT    -0.834000       15.9994           0
   35664 WT2  4244 TIP3 H1   HT     0.417000        1.0080           0
   35665 WT2  4244 TIP3 H2   HT     0.417000        1.0080           0
   35666 WT2  4245 TIP3 OH2  OT    -0.834000       15.9994           0
   35667 WT2  4245 TIP3 H1   HT     0.417000        1.0080           0
   35668 WT2  4245 TIP3 H2   HT     0.417000        1.0080           0
   35669 WT2  4246 TIP3 OH2  OT    -0.834000       15.9994           0
   35670 WT2  4246 TIP3 H1   HT     0.417000        1.0080           0
   35671 WT2  4246 TIP3 H2   HT     0.417000        1.0080           0
   35672 WT2  4247 TIP3 OH2  OT    -0.834000       15.9994           0
   35673 WT2  4247 TIP3 H1   HT     0.417000        1.0080           0
   35674 WT2  4247 TIP3 H2   HT     0.417000        1.0080           0
   35675 WT2  4248 TIP3 OH2  OT    -0.834000       15.9994           0
   35676 WT2  4248 TIP3 H1   HT     0.417000        1.0080           0
   35677 WT2  4248 TIP3 H2   HT     0.417000        1.0080           0
   35678 WT2  4249 TIP3 OH2  OT    -0.834000       15.9994           0
   35679 WT2  4249 TIP3 H1   HT     0.417000        1.0080           0
   35680 WT2  4249 TIP3 H2   HT     0.417000        1.0080           0
   35681 WT2  4250 TIP3 OH2  OT    -0.834000       15.9994           0
   35682 WT2  4250 TIP3 H1   HT     0.417000        1.0080           0
   35683 WT2  4250 TIP3 H2   HT     0.417000        1.0080           0
   35684 WT2  4252 TIP3 OH2  OT    -0.834000       15.9994           0
   35685 WT2  4252 TIP3 H1   HT     0.417000        1.0080           0
   35686 WT2  4252 TIP3 H2   HT     0.417000        1.0080           0
   35687 WT2  4253 TIP3 OH2  OT    -0.834000       15.9994           0
   35688 WT2  4253 TIP3 H1   HT     0.417000        1.0080           0
   35689 WT2  4253 TIP3 H2   HT     0.417000        1.0080           0
   35690 WT2  4254 TIP3 OH2  OT    -0.834000       15.9994           0
   35691 WT2  4254 TIP3 H1   HT     0.417000        1.0080           0
   35692 WT2  4254 TIP3 H2   HT     0.417000        1.0080           0
   35693 WT2  4255 TIP3 OH2  OT    -0.834000       15.9994           0
   35694 WT2  4255 TIP3 H1   HT     0.417000        1.0080           0
   35695 WT2  4255 TIP3 H2   HT     0.417000        1.0080           0
   35696 WT2  4259 TIP3 OH2  OT    -0.834000       15.9994           0
   35697 WT2  4259 TIP3 H1   HT     0.417000        1.0080           0
   35698 WT2  4259 TIP3 H2   HT     0.417000        1.0080           0
   35699 WT2  4261 TIP3 OH2  OT    -0.834000       15.9994           0
   35700 WT2  4261 TIP3 H1   HT     0.417000        1.0080           0
   35701 WT2  4261 TIP3 H2   HT     0.417000        1.0080           0
   35702 WT2  4262 TIP3 OH2  OT    -0.834000       15.9994           0
   35703 WT2  4262 TIP3 H1   HT     0.417000        1.0080           0
   35704 WT2  4262 TIP3 H2   HT     0.417000        1.0080           0
   35705 WT2  4263 TIP3 OH2  OT    -0.834000       15.9994           0
   35706 WT2  4263 TIP3 H1   HT     0.417000        1.0080           0
   35707 WT2  4263 TIP3 H2   HT     0.417000        1.0080           0
   35708 WT2  4264 TIP3 OH2  OT    -0.834000       15.9994           0
   35709 WT2  4264 TIP3 H1   HT     0.417000        1.0080           0
   35710 WT2  4264 TIP3 H2   HT     0.417000        1.0080           0
   35711 WT2  4267 TIP3 OH2  OT    -0.834000       15.9994           0
   35712 WT2  4267 TIP3 H1   HT     0.417000        1.0080           0
   35713 WT2  4267 TIP3 H2   HT     0.417000        1.0080           0
   35714 WT2  4268 TIP3 OH2  OT    -0.834000       15.9994           0
   35715 WT2  4268 TIP3 H1   HT     0.417000        1.0080           0
   35716 WT2  4268 TIP3 H2   HT     0.417000        1.0080           0
   35717 WT2  4269 TIP3 OH2  OT    -0.834000       15.9994           0
   35718 WT2  4269 TIP3 H1   HT     0.417000        1.0080           0
   35719 WT2  4269 TIP3 H2   HT     0.417000        1.0080           0
   35720 WT2  4270 TIP3 OH2  OT    -0.834000       15.9994           0
   35721 WT2  4270 TIP3 H1   HT     0.417000        1.0080           0
   35722 WT2  4270 TIP3 H2   HT     0.417000        1.0080           0
   35723 WT2  4271 TIP3 OH2  OT    -0.834000       15.9994           0
   35724 WT2  4271 TIP3 H1   HT     0.417000        1.0080           0
   35725 WT2  4271 TIP3 H2   HT     0.417000        1.0080           0
   35726 WT2  4272 TIP3 OH2  OT    -0.834000       15.9994           0
   35727 WT2  4272 TIP3 H1   HT     0.417000        1.0080           0
   35728 WT2  4272 TIP3 H2   HT     0.417000        1.0080           0
   35729 WT2  4274 TIP3 OH2  OT    -0.834000       15.9994           0
   35730 WT2  4274 TIP3 H1   HT     0.417000        1.0080           0
   35731 WT2  4274 TIP3 H2   HT     0.417000        1.0080           0
   35732 WT2  4275 TIP3 OH2  OT    -0.834000       15.9994           0
   35733 WT2  4275 TIP3 H1   HT     0.417000        1.0080           0
   35734 WT2  4275 TIP3 H2   HT     0.417000        1.0080           0
   35735 WT2  4276 TIP3 OH2  OT    -0.834000       15.9994           0
   35736 WT2  4276 TIP3 H1   HT     0.417000        1.0080           0
   35737 WT2  4276 TIP3 H2   HT     0.417000        1.0080           0
   35738 WT2  4277 TIP3 OH2  OT    -0.834000       15.9994           0
   35739 WT2  4277 TIP3 H1   HT     0.417000        1.0080           0
   35740 WT2  4277 TIP3 H2   HT     0.417000        1.0080           0
   35741 WT2  4278 TIP3 OH2  OT    -0.834000       15.9994           0
   35742 WT2  4278 TIP3 H1   HT     0.417000        1.0080           0
   35743 WT2  4278 TIP3 H2   HT     0.417000        1.0080           0
   35744 WT2  4280 TIP3 OH2  OT    -0.834000       15.9994           0
   35745 WT2  4280 TIP3 H1   HT     0.417000        1.0080           0
   35746 WT2  4280 TIP3 H2   HT     0.417000        1.0080           0
   35747 WT2  4281 TIP3 OH2  OT    -0.834000       15.9994           0
   35748 WT2  4281 TIP3 H1   HT     0.417000        1.0080           0
   35749 WT2  4281 TIP3 H2   HT     0.417000        1.0080           0
   35750 WT2  4283 TIP3 OH2  OT    -0.834000       15.9994           0
   35751 WT2  4283 TIP3 H1   HT     0.417000        1.0080           0
   35752 WT2  4283 TIP3 H2   HT     0.417000        1.0080           0
   35753 WT2  4285 TIP3 OH2  OT    -0.834000       15.9994           0
   35754 WT2  4285 TIP3 H1   HT     0.417000        1.0080           0
   35755 WT2  4285 TIP3 H2   HT     0.417000        1.0080           0
   35756 WT2  4286 TIP3 OH2  OT    -0.834000       15.9994           0
   35757 WT2  4286 TIP3 H1   HT     0.417000        1.0080           0
   35758 WT2  4286 TIP3 H2   HT     0.417000        1.0080           0
   35759 WT2  4287 TIP3 OH2  OT    -0.834000       15.9994           0
   35760 WT2  4287 TIP3 H1   HT     0.417000        1.0080           0
   35761 WT2  4287 TIP3 H2   HT     0.417000        1.0080           0
   35762 WT2  4288 TIP3 OH2  OT    -0.834000       15.9994           0
   35763 WT2  4288 TIP3 H1   HT     0.417000        1.0080           0
   35764 WT2  4288 TIP3 H2   HT     0.417000        1.0080           0
   35765 WT2  4289 TIP3 OH2  OT    -0.834000       15.9994           0
   35766 WT2  4289 TIP3 H1   HT     0.417000        1.0080           0
   35767 WT2  4289 TIP3 H2   HT     0.417000        1.0080           0
   35768 WT2  4290 TIP3 OH2  OT    -0.834000       15.9994           0
   35769 WT2  4290 TIP3 H1   HT     0.417000        1.0080           0
   35770 WT2  4290 TIP3 H2   HT     0.417000        1.0080           0
   35771 WT2  4291 TIP3 OH2  OT    -0.834000       15.9994           0
   35772 WT2  4291 TIP3 H1   HT     0.417000        1.0080           0
   35773 WT2  4291 TIP3 H2   HT     0.417000        1.0080           0
   35774 WT2  4292 TIP3 OH2  OT    -0.834000       15.9994           0
   35775 WT2  4292 TIP3 H1   HT     0.417000        1.0080           0
   35776 WT2  4292 TIP3 H2   HT     0.417000        1.0080           0
   35777 WT2  4293 TIP3 OH2  OT    -0.834000       15.9994           0
   35778 WT2  4293 TIP3 H1   HT     0.417000        1.0080           0
   35779 WT2  4293 TIP3 H2   HT     0.417000        1.0080           0
   35780 WT2  4294 TIP3 OH2  OT    -0.834000       15.9994           0
   35781 WT2  4294 TIP3 H1   HT     0.417000        1.0080           0
   35782 WT2  4294 TIP3 H2   HT     0.417000        1.0080           0
   35783 WT2  4295 TIP3 OH2  OT    -0.834000       15.9994           0
   35784 WT2  4295 TIP3 H1   HT     0.417000        1.0080           0
   35785 WT2  4295 TIP3 H2   HT     0.417000        1.0080           0
   35786 WT2  4296 TIP3 OH2  OT    -0.834000       15.9994           0
   35787 WT2  4296 TIP3 H1   HT     0.417000        1.0080           0
   35788 WT2  4296 TIP3 H2   HT     0.417000        1.0080           0
   35789 WT2  4298 TIP3 OH2  OT    -0.834000       15.9994           0
   35790 WT2  4298 TIP3 H1   HT     0.417000        1.0080           0
   35791 WT2  4298 TIP3 H2   HT     0.417000        1.0080           0
   35792 WT2  4299 TIP3 OH2  OT    -0.834000       15.9994           0
   35793 WT2  4299 TIP3 H1   HT     0.417000        1.0080           0
   35794 WT2  4299 TIP3 H2   HT     0.417000        1.0080           0
   35795 WT2  4300 TIP3 OH2  OT    -0.834000       15.9994           0
   35796 WT2  4300 TIP3 H1   HT     0.417000        1.0080           0
   35797 WT2  4300 TIP3 H2   HT     0.417000        1.0080           0
   35798 WT2  4301 TIP3 OH2  OT    -0.834000       15.9994           0
   35799 WT2  4301 TIP3 H1   HT     0.417000        1.0080           0
   35800 WT2  4301 TIP3 H2   HT     0.417000        1.0080           0
   35801 WT2  4302 TIP3 OH2  OT    -0.834000       15.9994           0
   35802 WT2  4302 TIP3 H1   HT     0.417000        1.0080           0
   35803 WT2  4302 TIP3 H2   HT     0.417000        1.0080           0
   35804 WT2  4303 TIP3 OH2  OT    -0.834000       15.9994           0
   35805 WT2  4303 TIP3 H1   HT     0.417000        1.0080           0
   35806 WT2  4303 TIP3 H2   HT     0.417000        1.0080           0
   35807 WT2  4305 TIP3 OH2  OT    -0.834000       15.9994           0
   35808 WT2  4305 TIP3 H1   HT     0.417000        1.0080           0
   35809 WT2  4305 TIP3 H2   HT     0.417000        1.0080           0
   35810 WT2  4308 TIP3 OH2  OT    -0.834000       15.9994           0
   35811 WT2  4308 TIP3 H1   HT     0.417000        1.0080           0
   35812 WT2  4308 TIP3 H2   HT     0.417000        1.0080           0
   35813 WT2  4309 TIP3 OH2  OT    -0.834000       15.9994           0
   35814 WT2  4309 TIP3 H1   HT     0.417000        1.0080           0
   35815 WT2  4309 TIP3 H2   HT     0.417000        1.0080           0
   35816 WT2  4311 TIP3 OH2  OT    -0.834000       15.9994           0
   35817 WT2  4311 TIP3 H1   HT     0.417000        1.0080           0
   35818 WT2  4311 TIP3 H2   HT     0.417000        1.0080           0
   35819 WT2  4312 TIP3 OH2  OT    -0.834000       15.9994           0
   35820 WT2  4312 TIP3 H1   HT     0.417000        1.0080           0
   35821 WT2  4312 TIP3 H2   HT     0.417000        1.0080           0
   35822 WT2  4313 TIP3 OH2  OT    -0.834000       15.9994           0
   35823 WT2  4313 TIP3 H1   HT     0.417000        1.0080           0
   35824 WT2  4313 TIP3 H2   HT     0.417000        1.0080           0
   35825 WT2  4314 TIP3 OH2  OT    -0.834000       15.9994           0
   35826 WT2  4314 TIP3 H1   HT     0.417000        1.0080           0
   35827 WT2  4314 TIP3 H2   HT     0.417000        1.0080           0
   35828 WT2  4315 TIP3 OH2  OT    -0.834000       15.9994           0
   35829 WT2  4315 TIP3 H1   HT     0.417000        1.0080           0
   35830 WT2  4315 TIP3 H2   HT     0.417000        1.0080           0
   35831 WT2  4316 TIP3 OH2  OT    -0.834000       15.9994           0
   35832 WT2  4316 TIP3 H1   HT     0.417000        1.0080           0
   35833 WT2  4316 TIP3 H2   HT     0.417000        1.0080           0
   35834 WT2  4317 TIP3 OH2  OT    -0.834000       15.9994           0
   35835 WT2  4317 TIP3 H1   HT     0.417000        1.0080           0
   35836 WT2  4317 TIP3 H2   HT     0.417000        1.0080           0
   35837 WT2  4318 TIP3 OH2  OT    -0.834000       15.9994           0
   35838 WT2  4318 TIP3 H1   HT     0.417000        1.0080           0
   35839 WT2  4318 TIP3 H2   HT     0.417000        1.0080           0
   35840 WT2  4319 TIP3 OH2  OT    -0.834000       15.9994           0
   35841 WT2  4319 TIP3 H1   HT     0.417000        1.0080           0
   35842 WT2  4319 TIP3 H2   HT     0.417000        1.0080           0
   35843 WT2  4320 TIP3 OH2  OT    -0.834000       15.9994           0
   35844 WT2  4320 TIP3 H1   HT     0.417000        1.0080           0
   35845 WT2  4320 TIP3 H2   HT     0.417000        1.0080           0
   35846 WT2  4321 TIP3 OH2  OT    -0.834000       15.9994           0
   35847 WT2  4321 TIP3 H1   HT     0.417000        1.0080           0
   35848 WT2  4321 TIP3 H2   HT     0.417000        1.0080           0
   35849 WT2  4322 TIP3 OH2  OT    -0.834000       15.9994           0
   35850 WT2  4322 TIP3 H1   HT     0.417000        1.0080           0
   35851 WT2  4322 TIP3 H2   HT     0.417000        1.0080           0
   35852 WT2  4323 TIP3 OH2  OT    -0.834000       15.9994           0
   35853 WT2  4323 TIP3 H1   HT     0.417000        1.0080           0
   35854 WT2  4323 TIP3 H2   HT     0.417000        1.0080           0
   35855 WT2  4324 TIP3 OH2  OT    -0.834000       15.9994           0
   35856 WT2  4324 TIP3 H1   HT     0.417000        1.0080           0
   35857 WT2  4324 TIP3 H2   HT     0.417000        1.0080           0
   35858 WT2  4325 TIP3 OH2  OT    -0.834000       15.9994           0
   35859 WT2  4325 TIP3 H1   HT     0.417000        1.0080           0
   35860 WT2  4325 TIP3 H2   HT     0.417000        1.0080           0
   35861 WT2  4326 TIP3 OH2  OT    -0.834000       15.9994           0
   35862 WT2  4326 TIP3 H1   HT     0.417000        1.0080           0
   35863 WT2  4326 TIP3 H2   HT     0.417000        1.0080           0
   35864 WT2  4327 TIP3 OH2  OT    -0.834000       15.9994           0
   35865 WT2  4327 TIP3 H1   HT     0.417000        1.0080           0
   35866 WT2  4327 TIP3 H2   HT     0.417000        1.0080           0
   35867 WT2  4328 TIP3 OH2  OT    -0.834000       15.9994           0
   35868 WT2  4328 TIP3 H1   HT     0.417000        1.0080           0
   35869 WT2  4328 TIP3 H2   HT     0.417000        1.0080           0
   35870 WT2  4329 TIP3 OH2  OT    -0.834000       15.9994           0
   35871 WT2  4329 TIP3 H1   HT     0.417000        1.0080           0
   35872 WT2  4329 TIP3 H2   HT     0.417000        1.0080           0
   35873 WT2  4330 TIP3 OH2  OT    -0.834000       15.9994           0
   35874 WT2  4330 TIP3 H1   HT     0.417000        1.0080           0
   35875 WT2  4330 TIP3 H2   HT     0.417000        1.0080           0
   35876 WT2  4332 TIP3 OH2  OT    -0.834000       15.9994           0
   35877 WT2  4332 TIP3 H1   HT     0.417000        1.0080           0
   35878 WT2  4332 TIP3 H2   HT     0.417000        1.0080           0
   35879 WT2  4333 TIP3 OH2  OT    -0.834000       15.9994           0
   35880 WT2  4333 TIP3 H1   HT     0.417000        1.0080           0
   35881 WT2  4333 TIP3 H2   HT     0.417000        1.0080           0
   35882 WT2  4334 TIP3 OH2  OT    -0.834000       15.9994           0
   35883 WT2  4334 TIP3 H1   HT     0.417000        1.0080           0
   35884 WT2  4334 TIP3 H2   HT     0.417000        1.0080           0
   35885 WT2  4335 TIP3 OH2  OT    -0.834000       15.9994           0
   35886 WT2  4335 TIP3 H1   HT     0.417000        1.0080           0
   35887 WT2  4335 TIP3 H2   HT     0.417000        1.0080           0
   35888 WT2  4336 TIP3 OH2  OT    -0.834000       15.9994           0
   35889 WT2  4336 TIP3 H1   HT     0.417000        1.0080           0
   35890 WT2  4336 TIP3 H2   HT     0.417000        1.0080           0
   35891 WT2  4338 TIP3 OH2  OT    -0.834000       15.9994           0
   35892 WT2  4338 TIP3 H1   HT     0.417000        1.0080           0
   35893 WT2  4338 TIP3 H2   HT     0.417000        1.0080           0
   35894 WT2  4339 TIP3 OH2  OT    -0.834000       15.9994           0
   35895 WT2  4339 TIP3 H1   HT     0.417000        1.0080           0
   35896 WT2  4339 TIP3 H2   HT     0.417000        1.0080           0
   35897 WT2  4340 TIP3 OH2  OT    -0.834000       15.9994           0
   35898 WT2  4340 TIP3 H1   HT     0.417000        1.0080           0
   35899 WT2  4340 TIP3 H2   HT     0.417000        1.0080           0
   35900 WT2  4341 TIP3 OH2  OT    -0.834000       15.9994           0
   35901 WT2  4341 TIP3 H1   HT     0.417000        1.0080           0
   35902 WT2  4341 TIP3 H2   HT     0.417000        1.0080           0
   35903 WT2  4342 TIP3 OH2  OT    -0.834000       15.9994           0
   35904 WT2  4342 TIP3 H1   HT     0.417000        1.0080           0
   35905 WT2  4342 TIP3 H2   HT     0.417000        1.0080           0
   35906 WT2  4343 TIP3 OH2  OT    -0.834000       15.9994           0
   35907 WT2  4343 TIP3 H1   HT     0.417000        1.0080           0
   35908 WT2  4343 TIP3 H2   HT     0.417000        1.0080           0
   35909 WT2  4344 TIP3 OH2  OT    -0.834000       15.9994           0
   35910 WT2  4344 TIP3 H1   HT     0.417000        1.0080           0
   35911 WT2  4344 TIP3 H2   HT     0.417000        1.0080           0
   35912 WT2  4345 TIP3 OH2  OT    -0.834000       15.9994           0
   35913 WT2  4345 TIP3 H1   HT     0.417000        1.0080           0
   35914 WT2  4345 TIP3 H2   HT     0.417000        1.0080           0
   35915 WT2  4346 TIP3 OH2  OT    -0.834000       15.9994           0
   35916 WT2  4346 TIP3 H1   HT     0.417000        1.0080           0
   35917 WT2  4346 TIP3 H2   HT     0.417000        1.0080           0
   35918 WT2  4347 TIP3 OH2  OT    -0.834000       15.9994           0
   35919 WT2  4347 TIP3 H1   HT     0.417000        1.0080           0
   35920 WT2  4347 TIP3 H2   HT     0.417000        1.0080           0
   35921 WT2  4348 TIP3 OH2  OT    -0.834000       15.9994           0
   35922 WT2  4348 TIP3 H1   HT     0.417000        1.0080           0
   35923 WT2  4348 TIP3 H2   HT     0.417000        1.0080           0
   35924 WT2  4349 TIP3 OH2  OT    -0.834000       15.9994           0
   35925 WT2  4349 TIP3 H1   HT     0.417000        1.0080           0
   35926 WT2  4349 TIP3 H2   HT     0.417000        1.0080           0
   35927 WT2  4350 TIP3 OH2  OT    -0.834000       15.9994           0
   35928 WT2  4350 TIP3 H1   HT     0.417000        1.0080           0
   35929 WT2  4350 TIP3 H2   HT     0.417000        1.0080           0
   35930 WT2  4351 TIP3 OH2  OT    -0.834000       15.9994           0
   35931 WT2  4351 TIP3 H1   HT     0.417000        1.0080           0
   35932 WT2  4351 TIP3 H2   HT     0.417000        1.0080           0
   35933 WT2  4352 TIP3 OH2  OT    -0.834000       15.9994           0
   35934 WT2  4352 TIP3 H1   HT     0.417000        1.0080           0
   35935 WT2  4352 TIP3 H2   HT     0.417000        1.0080           0
   35936 WT2  4353 TIP3 OH2  OT    -0.834000       15.9994           0
   35937 WT2  4353 TIP3 H1   HT     0.417000        1.0080           0
   35938 WT2  4353 TIP3 H2   HT     0.417000        1.0080           0
   35939 WT2  4354 TIP3 OH2  OT    -0.834000       15.9994           0
   35940 WT2  4354 TIP3 H1   HT     0.417000        1.0080           0
   35941 WT2  4354 TIP3 H2   HT     0.417000        1.0080           0
   35942 WT2  4355 TIP3 OH2  OT    -0.834000       15.9994           0
   35943 WT2  4355 TIP3 H1   HT     0.417000        1.0080           0
   35944 WT2  4355 TIP3 H2   HT     0.417000        1.0080           0
   35945 WT2  4356 TIP3 OH2  OT    -0.834000       15.9994           0
   35946 WT2  4356 TIP3 H1   HT     0.417000        1.0080           0
   35947 WT2  4356 TIP3 H2   HT     0.417000        1.0080           0
   35948 WT2  4357 TIP3 OH2  OT    -0.834000       15.9994           0
   35949 WT2  4357 TIP3 H1   HT     0.417000        1.0080           0
   35950 WT2  4357 TIP3 H2   HT     0.417000        1.0080           0
   35951 WT2  4358 TIP3 OH2  OT    -0.834000       15.9994           0
   35952 WT2  4358 TIP3 H1   HT     0.417000        1.0080           0
   35953 WT2  4358 TIP3 H2   HT     0.417000        1.0080           0
   35954 WT2  4359 TIP3 OH2  OT    -0.834000       15.9994           0
   35955 WT2  4359 TIP3 H1   HT     0.417000        1.0080           0
   35956 WT2  4359 TIP3 H2   HT     0.417000        1.0080           0
   35957 WT2  4360 TIP3 OH2  OT    -0.834000       15.9994           0
   35958 WT2  4360 TIP3 H1   HT     0.417000        1.0080           0
   35959 WT2  4360 TIP3 H2   HT     0.417000        1.0080           0
   35960 WT2  4361 TIP3 OH2  OT    -0.834000       15.9994           0
   35961 WT2  4361 TIP3 H1   HT     0.417000        1.0080           0
   35962 WT2  4361 TIP3 H2   HT     0.417000        1.0080           0
   35963 WT2  4362 TIP3 OH2  OT    -0.834000       15.9994           0
   35964 WT2  4362 TIP3 H1   HT     0.417000        1.0080           0
   35965 WT2  4362 TIP3 H2   HT     0.417000        1.0080           0
   35966 WT2  4364 TIP3 OH2  OT    -0.834000       15.9994           0
   35967 WT2  4364 TIP3 H1   HT     0.417000        1.0080           0
   35968 WT2  4364 TIP3 H2   HT     0.417000        1.0080           0
   35969 WT2  4365 TIP3 OH2  OT    -0.834000       15.9994           0
   35970 WT2  4365 TIP3 H1   HT     0.417000        1.0080           0
   35971 WT2  4365 TIP3 H2   HT     0.417000        1.0080           0
   35972 WT2  4366 TIP3 OH2  OT    -0.834000       15.9994           0
   35973 WT2  4366 TIP3 H1   HT     0.417000        1.0080           0
   35974 WT2  4366 TIP3 H2   HT     0.417000        1.0080           0
   35975 WT2  4367 TIP3 OH2  OT    -0.834000       15.9994           0
   35976 WT2  4367 TIP3 H1   HT     0.417000        1.0080           0
   35977 WT2  4367 TIP3 H2   HT     0.417000        1.0080           0
   35978 WT2  4368 TIP3 OH2  OT    -0.834000       15.9994           0
   35979 WT2  4368 TIP3 H1   HT     0.417000        1.0080           0
   35980 WT2  4368 TIP3 H2   HT     0.417000        1.0080           0
   35981 WT2  4370 TIP3 OH2  OT    -0.834000       15.9994           0
   35982 WT2  4370 TIP3 H1   HT     0.417000        1.0080           0
   35983 WT2  4370 TIP3 H2   HT     0.417000        1.0080           0
   35984 WT2  4371 TIP3 OH2  OT    -0.834000       15.9994           0
   35985 WT2  4371 TIP3 H1   HT     0.417000        1.0080           0
   35986 WT2  4371 TIP3 H2   HT     0.417000        1.0080           0
   35987 WT2  4372 TIP3 OH2  OT    -0.834000       15.9994           0
   35988 WT2  4372 TIP3 H1   HT     0.417000        1.0080           0
   35989 WT2  4372 TIP3 H2   HT     0.417000        1.0080           0
   35990 WT2  4373 TIP3 OH2  OT    -0.834000       15.9994           0
   35991 WT2  4373 TIP3 H1   HT     0.417000        1.0080           0
   35992 WT2  4373 TIP3 H2   HT     0.417000        1.0080           0
   35993 WT2  4374 TIP3 OH2  OT    -0.834000       15.9994           0
   35994 WT2  4374 TIP3 H1   HT     0.417000        1.0080           0
   35995 WT2  4374 TIP3 H2   HT     0.417000        1.0080           0
   35996 WT2  4375 TIP3 OH2  OT    -0.834000       15.9994           0
   35997 WT2  4375 TIP3 H1   HT     0.417000        1.0080           0
   35998 WT2  4375 TIP3 H2   HT     0.417000        1.0080           0
   35999 WT2  4376 TIP3 OH2  OT    -0.834000       15.9994           0
   36000 WT2  4376 TIP3 H1   HT     0.417000        1.0080           0
   36001 WT2  4376 TIP3 H2   HT     0.417000        1.0080           0
   36002 WT2  4377 TIP3 OH2  OT    -0.834000       15.9994           0
   36003 WT2  4377 TIP3 H1   HT     0.417000        1.0080           0
   36004 WT2  4377 TIP3 H2   HT     0.417000        1.0080           0
   36005 WT2  4378 TIP3 OH2  OT    -0.834000       15.9994           0
   36006 WT2  4378 TIP3 H1   HT     0.417000        1.0080           0
   36007 WT2  4378 TIP3 H2   HT     0.417000        1.0080           0
   36008 WT2  4379 TIP3 OH2  OT    -0.834000       15.9994           0
   36009 WT2  4379 TIP3 H1   HT     0.417000        1.0080           0
   36010 WT2  4379 TIP3 H2   HT     0.417000        1.0080           0
   36011 WT2  4380 TIP3 OH2  OT    -0.834000       15.9994           0
   36012 WT2  4380 TIP3 H1   HT     0.417000        1.0080           0
   36013 WT2  4380 TIP3 H2   HT     0.417000        1.0080           0
   36014 WT2  4382 TIP3 OH2  OT    -0.834000       15.9994           0
   36015 WT2  4382 TIP3 H1   HT     0.417000        1.0080           0
   36016 WT2  4382 TIP3 H2   HT     0.417000        1.0080           0
   36017 WT2  4383 TIP3 OH2  OT    -0.834000       15.9994           0
   36018 WT2  4383 TIP3 H1   HT     0.417000        1.0080           0
   36019 WT2  4383 TIP3 H2   HT     0.417000        1.0080           0
   36020 WT2  4384 TIP3 OH2  OT    -0.834000       15.9994           0
   36021 WT2  4384 TIP3 H1   HT     0.417000        1.0080           0
   36022 WT2  4384 TIP3 H2   HT     0.417000        1.0080           0
   36023 WT2  4385 TIP3 OH2  OT    -0.834000       15.9994           0
   36024 WT2  4385 TIP3 H1   HT     0.417000        1.0080           0
   36025 WT2  4385 TIP3 H2   HT     0.417000        1.0080           0
   36026 WT2  4386 TIP3 OH2  OT    -0.834000       15.9994           0
   36027 WT2  4386 TIP3 H1   HT     0.417000        1.0080           0
   36028 WT2  4386 TIP3 H2   HT     0.417000        1.0080           0
   36029 WT2  4387 TIP3 OH2  OT    -0.834000       15.9994           0
   36030 WT2  4387 TIP3 H1   HT     0.417000        1.0080           0
   36031 WT2  4387 TIP3 H2   HT     0.417000        1.0080           0
   36032 WT2  4388 TIP3 OH2  OT    -0.834000       15.9994           0
   36033 WT2  4388 TIP3 H1   HT     0.417000        1.0080           0
   36034 WT2  4388 TIP3 H2   HT     0.417000        1.0080           0
   36035 WT2  4389 TIP3 OH2  OT    -0.834000       15.9994           0
   36036 WT2  4389 TIP3 H1   HT     0.417000        1.0080           0
   36037 WT2  4389 TIP3 H2   HT     0.417000        1.0080           0
   36038 WT2  4390 TIP3 OH2  OT    -0.834000       15.9994           0
   36039 WT2  4390 TIP3 H1   HT     0.417000        1.0080           0
   36040 WT2  4390 TIP3 H2   HT     0.417000        1.0080           0
   36041 WT2  4391 TIP3 OH2  OT    -0.834000       15.9994           0
   36042 WT2  4391 TIP3 H1   HT     0.417000        1.0080           0
   36043 WT2  4391 TIP3 H2   HT     0.417000        1.0080           0
   36044 WT2  4392 TIP3 OH2  OT    -0.834000       15.9994           0
   36045 WT2  4392 TIP3 H1   HT     0.417000        1.0080           0
   36046 WT2  4392 TIP3 H2   HT     0.417000        1.0080           0
   36047 WT2  4394 TIP3 OH2  OT    -0.834000       15.9994           0
   36048 WT2  4394 TIP3 H1   HT     0.417000        1.0080           0
   36049 WT2  4394 TIP3 H2   HT     0.417000        1.0080           0
   36050 WT2  4395 TIP3 OH2  OT    -0.834000       15.9994           0
   36051 WT2  4395 TIP3 H1   HT     0.417000        1.0080           0
   36052 WT2  4395 TIP3 H2   HT     0.417000        1.0080           0
   36053 WT2  4396 TIP3 OH2  OT    -0.834000       15.9994           0
   36054 WT2  4396 TIP3 H1   HT     0.417000        1.0080           0
   36055 WT2  4396 TIP3 H2   HT     0.417000        1.0080           0
   36056 WT2  4397 TIP3 OH2  OT    -0.834000       15.9994           0
   36057 WT2  4397 TIP3 H1   HT     0.417000        1.0080           0
   36058 WT2  4397 TIP3 H2   HT     0.417000        1.0080           0
   36059 WT2  4398 TIP3 OH2  OT    -0.834000       15.9994           0
   36060 WT2  4398 TIP3 H1   HT     0.417000        1.0080           0
   36061 WT2  4398 TIP3 H2   HT     0.417000        1.0080           0
   36062 WT2  4400 TIP3 OH2  OT    -0.834000       15.9994           0
   36063 WT2  4400 TIP3 H1   HT     0.417000        1.0080           0
   36064 WT2  4400 TIP3 H2   HT     0.417000        1.0080           0
   36065 WT2  4401 TIP3 OH2  OT    -0.834000       15.9994           0
   36066 WT2  4401 TIP3 H1   HT     0.417000        1.0080           0
   36067 WT2  4401 TIP3 H2   HT     0.417000        1.0080           0
   36068 WT2  4402 TIP3 OH2  OT    -0.834000       15.9994           0
   36069 WT2  4402 TIP3 H1   HT     0.417000        1.0080           0
   36070 WT2  4402 TIP3 H2   HT     0.417000        1.0080           0
   36071 WT2  4403 TIP3 OH2  OT    -0.834000       15.9994           0
   36072 WT2  4403 TIP3 H1   HT     0.417000        1.0080           0
   36073 WT2  4403 TIP3 H2   HT     0.417000        1.0080           0
   36074 WT2  4406 TIP3 OH2  OT    -0.834000       15.9994           0
   36075 WT2  4406 TIP3 H1   HT     0.417000        1.0080           0
   36076 WT2  4406 TIP3 H2   HT     0.417000        1.0080           0
   36077 WT2  4407 TIP3 OH2  OT    -0.834000       15.9994           0
   36078 WT2  4407 TIP3 H1   HT     0.417000        1.0080           0
   36079 WT2  4407 TIP3 H2   HT     0.417000        1.0080           0
   36080 WT2  4409 TIP3 OH2  OT    -0.834000       15.9994           0
   36081 WT2  4409 TIP3 H1   HT     0.417000        1.0080           0
   36082 WT2  4409 TIP3 H2   HT     0.417000        1.0080           0
   36083 WT2  4410 TIP3 OH2  OT    -0.834000       15.9994           0
   36084 WT2  4410 TIP3 H1   HT     0.417000        1.0080           0
   36085 WT2  4410 TIP3 H2   HT     0.417000        1.0080           0
   36086 WT2  4411 TIP3 OH2  OT    -0.834000       15.9994           0
   36087 WT2  4411 TIP3 H1   HT     0.417000        1.0080           0
   36088 WT2  4411 TIP3 H2   HT     0.417000        1.0080           0
   36089 WT2  4412 TIP3 OH2  OT    -0.834000       15.9994           0
   36090 WT2  4412 TIP3 H1   HT     0.417000        1.0080           0
   36091 WT2  4412 TIP3 H2   HT     0.417000        1.0080           0
   36092 WT2  4413 TIP3 OH2  OT    -0.834000       15.9994           0
   36093 WT2  4413 TIP3 H1   HT     0.417000        1.0080           0
   36094 WT2  4413 TIP3 H2   HT     0.417000        1.0080           0
   36095 WT2  4414 TIP3 OH2  OT    -0.834000       15.9994           0
   36096 WT2  4414 TIP3 H1   HT     0.417000        1.0080           0
   36097 WT2  4414 TIP3 H2   HT     0.417000        1.0080           0
   36098 WT2  4415 TIP3 OH2  OT    -0.834000       15.9994           0
   36099 WT2  4415 TIP3 H1   HT     0.417000        1.0080           0
   36100 WT2  4415 TIP3 H2   HT     0.417000        1.0080           0
   36101 WT2  4416 TIP3 OH2  OT    -0.834000       15.9994           0
   36102 WT2  4416 TIP3 H1   HT     0.417000        1.0080           0
   36103 WT2  4416 TIP3 H2   HT     0.417000        1.0080           0
   36104 WT2  4417 TIP3 OH2  OT    -0.834000       15.9994           0
   36105 WT2  4417 TIP3 H1   HT     0.417000        1.0080           0
   36106 WT2  4417 TIP3 H2   HT     0.417000        1.0080           0
   36107 WT2  4419 TIP3 OH2  OT    -0.834000       15.9994           0
   36108 WT2  4419 TIP3 H1   HT     0.417000        1.0080           0
   36109 WT2  4419 TIP3 H2   HT     0.417000        1.0080           0
   36110 WT2  4421 TIP3 OH2  OT    -0.834000       15.9994           0
   36111 WT2  4421 TIP3 H1   HT     0.417000        1.0080           0
   36112 WT2  4421 TIP3 H2   HT     0.417000        1.0080           0
   36113 WT2  4424 TIP3 OH2  OT    -0.834000       15.9994           0
   36114 WT2  4424 TIP3 H1   HT     0.417000        1.0080           0
   36115 WT2  4424 TIP3 H2   HT     0.417000        1.0080           0
   36116 WT2  4426 TIP3 OH2  OT    -0.834000       15.9994           0
   36117 WT2  4426 TIP3 H1   HT     0.417000        1.0080           0
   36118 WT2  4426 TIP3 H2   HT     0.417000        1.0080           0
   36119 WT2  4427 TIP3 OH2  OT    -0.834000       15.9994           0
   36120 WT2  4427 TIP3 H1   HT     0.417000        1.0080           0
   36121 WT2  4427 TIP3 H2   HT     0.417000        1.0080           0
   36122 WT2  4428 TIP3 OH2  OT    -0.834000       15.9994           0
   36123 WT2  4428 TIP3 H1   HT     0.417000        1.0080           0
   36124 WT2  4428 TIP3 H2   HT     0.417000        1.0080           0
   36125 WT2  4429 TIP3 OH2  OT    -0.834000       15.9994           0
   36126 WT2  4429 TIP3 H1   HT     0.417000        1.0080           0
   36127 WT2  4429 TIP3 H2   HT     0.417000        1.0080           0
   36128 WT2  4430 TIP3 OH2  OT    -0.834000       15.9994           0
   36129 WT2  4430 TIP3 H1   HT     0.417000        1.0080           0
   36130 WT2  4430 TIP3 H2   HT     0.417000        1.0080           0
   36131 WT2  4431 TIP3 OH2  OT    -0.834000       15.9994           0
   36132 WT2  4431 TIP3 H1   HT     0.417000        1.0080           0
   36133 WT2  4431 TIP3 H2   HT     0.417000        1.0080           0
   36134 WT2  4432 TIP3 OH2  OT    -0.834000       15.9994           0
   36135 WT2  4432 TIP3 H1   HT     0.417000        1.0080           0
   36136 WT2  4432 TIP3 H2   HT     0.417000        1.0080           0
   36137 WT2  4433 TIP3 OH2  OT    -0.834000       15.9994           0
   36138 WT2  4433 TIP3 H1   HT     0.417000        1.0080           0
   36139 WT2  4433 TIP3 H2   HT     0.417000        1.0080           0
   36140 WT2  4434 TIP3 OH2  OT    -0.834000       15.9994           0
   36141 WT2  4434 TIP3 H1   HT     0.417000        1.0080           0
   36142 WT2  4434 TIP3 H2   HT     0.417000        1.0080           0
   36143 WT2  4435 TIP3 OH2  OT    -0.834000       15.9994           0
   36144 WT2  4435 TIP3 H1   HT     0.417000        1.0080           0
   36145 WT2  4435 TIP3 H2   HT     0.417000        1.0080           0
   36146 WT2  4436 TIP3 OH2  OT    -0.834000       15.9994           0
   36147 WT2  4436 TIP3 H1   HT     0.417000        1.0080           0
   36148 WT2  4436 TIP3 H2   HT     0.417000        1.0080           0
   36149 WT2  4437 TIP3 OH2  OT    -0.834000       15.9994           0
   36150 WT2  4437 TIP3 H1   HT     0.417000        1.0080           0
   36151 WT2  4437 TIP3 H2   HT     0.417000        1.0080           0
   36152 WT2  4438 TIP3 OH2  OT    -0.834000       15.9994           0
   36153 WT2  4438 TIP3 H1   HT     0.417000        1.0080           0
   36154 WT2  4438 TIP3 H2   HT     0.417000        1.0080           0
   36155 WT2  4439 TIP3 OH2  OT    -0.834000       15.9994           0
   36156 WT2  4439 TIP3 H1   HT     0.417000        1.0080           0
   36157 WT2  4439 TIP3 H2   HT     0.417000        1.0080           0
   36158 WT2  4440 TIP3 OH2  OT    -0.834000       15.9994           0
   36159 WT2  4440 TIP3 H1   HT     0.417000        1.0080           0
   36160 WT2  4440 TIP3 H2   HT     0.417000        1.0080           0
   36161 WT2  4441 TIP3 OH2  OT    -0.834000       15.9994           0
   36162 WT2  4441 TIP3 H1   HT     0.417000        1.0080           0
   36163 WT2  4441 TIP3 H2   HT     0.417000        1.0080           0
   36164 WT2  4443 TIP3 OH2  OT    -0.834000       15.9994           0
   36165 WT2  4443 TIP3 H1   HT     0.417000        1.0080           0
   36166 WT2  4443 TIP3 H2   HT     0.417000        1.0080           0
   36167 WT2  4446 TIP3 OH2  OT    -0.834000       15.9994           0
   36168 WT2  4446 TIP3 H1   HT     0.417000        1.0080           0
   36169 WT2  4446 TIP3 H2   HT     0.417000        1.0080           0
   36170 WT2  4448 TIP3 OH2  OT    -0.834000       15.9994           0
   36171 WT2  4448 TIP3 H1   HT     0.417000        1.0080           0
   36172 WT2  4448 TIP3 H2   HT     0.417000        1.0080           0
   36173 WT2  4449 TIP3 OH2  OT    -0.834000       15.9994           0
   36174 WT2  4449 TIP3 H1   HT     0.417000        1.0080           0
   36175 WT2  4449 TIP3 H2   HT     0.417000        1.0080           0
   36176 WT2  4450 TIP3 OH2  OT    -0.834000       15.9994           0
   36177 WT2  4450 TIP3 H1   HT     0.417000        1.0080           0
   36178 WT2  4450 TIP3 H2   HT     0.417000        1.0080           0
   36179 WT2  4451 TIP3 OH2  OT    -0.834000       15.9994           0
   36180 WT2  4451 TIP3 H1   HT     0.417000        1.0080           0
   36181 WT2  4451 TIP3 H2   HT     0.417000        1.0080           0
   36182 WT2  4453 TIP3 OH2  OT    -0.834000       15.9994           0
   36183 WT2  4453 TIP3 H1   HT     0.417000        1.0080           0
   36184 WT2  4453 TIP3 H2   HT     0.417000        1.0080           0
   36185 WT2  4454 TIP3 OH2  OT    -0.834000       15.9994           0
   36186 WT2  4454 TIP3 H1   HT     0.417000        1.0080           0
   36187 WT2  4454 TIP3 H2   HT     0.417000        1.0080           0
   36188 WT2  4455 TIP3 OH2  OT    -0.834000       15.9994           0
   36189 WT2  4455 TIP3 H1   HT     0.417000        1.0080           0
   36190 WT2  4455 TIP3 H2   HT     0.417000        1.0080           0
   36191 WT2  4456 TIP3 OH2  OT    -0.834000       15.9994           0
   36192 WT2  4456 TIP3 H1   HT     0.417000        1.0080           0
   36193 WT2  4456 TIP3 H2   HT     0.417000        1.0080           0
   36194 WT2  4457 TIP3 OH2  OT    -0.834000       15.9994           0
   36195 WT2  4457 TIP3 H1   HT     0.417000        1.0080           0
   36196 WT2  4457 TIP3 H2   HT     0.417000        1.0080           0
   36197 WT2  4458 TIP3 OH2  OT    -0.834000       15.9994           0
   36198 WT2  4458 TIP3 H1   HT     0.417000        1.0080           0
   36199 WT2  4458 TIP3 H2   HT     0.417000        1.0080           0
   36200 WT2  4460 TIP3 OH2  OT    -0.834000       15.9994           0
   36201 WT2  4460 TIP3 H1   HT     0.417000        1.0080           0
   36202 WT2  4460 TIP3 H2   HT     0.417000        1.0080           0
   36203 WT2  4461 TIP3 OH2  OT    -0.834000       15.9994           0
   36204 WT2  4461 TIP3 H1   HT     0.417000        1.0080           0
   36205 WT2  4461 TIP3 H2   HT     0.417000        1.0080           0
   36206 WT2  4462 TIP3 OH2  OT    -0.834000       15.9994           0
   36207 WT2  4462 TIP3 H1   HT     0.417000        1.0080           0
   36208 WT2  4462 TIP3 H2   HT     0.417000        1.0080           0
   36209 WT2  4463 TIP3 OH2  OT    -0.834000       15.9994           0
   36210 WT2  4463 TIP3 H1   HT     0.417000        1.0080           0
   36211 WT2  4463 TIP3 H2   HT     0.417000        1.0080           0
   36212 WT2  4464 TIP3 OH2  OT    -0.834000       15.9994           0
   36213 WT2  4464 TIP3 H1   HT     0.417000        1.0080           0
   36214 WT2  4464 TIP3 H2   HT     0.417000        1.0080           0
   36215 WT2  4466 TIP3 OH2  OT    -0.834000       15.9994           0
   36216 WT2  4466 TIP3 H1   HT     0.417000        1.0080           0
   36217 WT2  4466 TIP3 H2   HT     0.417000        1.0080           0
   36218 WT2  4467 TIP3 OH2  OT    -0.834000       15.9994           0
   36219 WT2  4467 TIP3 H1   HT     0.417000        1.0080           0
   36220 WT2  4467 TIP3 H2   HT     0.417000        1.0080           0
   36221 WT2  4468 TIP3 OH2  OT    -0.834000       15.9994           0
   36222 WT2  4468 TIP3 H1   HT     0.417000        1.0080           0
   36223 WT2  4468 TIP3 H2   HT     0.417000        1.0080           0
   36224 WT2  4469 TIP3 OH2  OT    -0.834000       15.9994           0
   36225 WT2  4469 TIP3 H1   HT     0.417000        1.0080           0
   36226 WT2  4469 TIP3 H2   HT     0.417000        1.0080           0
   36227 WT2  4470 TIP3 OH2  OT    -0.834000       15.9994           0
   36228 WT2  4470 TIP3 H1   HT     0.417000        1.0080           0
   36229 WT2  4470 TIP3 H2   HT     0.417000        1.0080           0
   36230 WT2  4471 TIP3 OH2  OT    -0.834000       15.9994           0
   36231 WT2  4471 TIP3 H1   HT     0.417000        1.0080           0
   36232 WT2  4471 TIP3 H2   HT     0.417000        1.0080           0
   36233 WT2  4473 TIP3 OH2  OT    -0.834000       15.9994           0
   36234 WT2  4473 TIP3 H1   HT     0.417000        1.0080           0
   36235 WT2  4473 TIP3 H2   HT     0.417000        1.0080           0
   36236 WT2  4476 TIP3 OH2  OT    -0.834000       15.9994           0
   36237 WT2  4476 TIP3 H1   HT     0.417000        1.0080           0
   36238 WT2  4476 TIP3 H2   HT     0.417000        1.0080           0
   36239 WT2  4477 TIP3 OH2  OT    -0.834000       15.9994           0
   36240 WT2  4477 TIP3 H1   HT     0.417000        1.0080           0
   36241 WT2  4477 TIP3 H2   HT     0.417000        1.0080           0
   36242 WT2  4478 TIP3 OH2  OT    -0.834000       15.9994           0
   36243 WT2  4478 TIP3 H1   HT     0.417000        1.0080           0
   36244 WT2  4478 TIP3 H2   HT     0.417000        1.0080           0
   36245 WT2  4479 TIP3 OH2  OT    -0.834000       15.9994           0
   36246 WT2  4479 TIP3 H1   HT     0.417000        1.0080           0
   36247 WT2  4479 TIP3 H2   HT     0.417000        1.0080           0
   36248 WT2  4480 TIP3 OH2  OT    -0.834000       15.9994           0
   36249 WT2  4480 TIP3 H1   HT     0.417000        1.0080           0
   36250 WT2  4480 TIP3 H2   HT     0.417000        1.0080           0
   36251 WT2  4481 TIP3 OH2  OT    -0.834000       15.9994           0
   36252 WT2  4481 TIP3 H1   HT     0.417000        1.0080           0
   36253 WT2  4481 TIP3 H2   HT     0.417000        1.0080           0
   36254 WT2  4482 TIP3 OH2  OT    -0.834000       15.9994           0
   36255 WT2  4482 TIP3 H1   HT     0.417000        1.0080           0
   36256 WT2  4482 TIP3 H2   HT     0.417000        1.0080           0
   36257 WT2  4483 TIP3 OH2  OT    -0.834000       15.9994           0
   36258 WT2  4483 TIP3 H1   HT     0.417000        1.0080           0
   36259 WT2  4483 TIP3 H2   HT     0.417000        1.0080           0
   36260 WT2  4484 TIP3 OH2  OT    -0.834000       15.9994           0
   36261 WT2  4484 TIP3 H1   HT     0.417000        1.0080           0
   36262 WT2  4484 TIP3 H2   HT     0.417000        1.0080           0
   36263 WT2  4486 TIP3 OH2  OT    -0.834000       15.9994           0
   36264 WT2  4486 TIP3 H1   HT     0.417000        1.0080           0
   36265 WT2  4486 TIP3 H2   HT     0.417000        1.0080           0
   36266 WT2  4487 TIP3 OH2  OT    -0.834000       15.9994           0
   36267 WT2  4487 TIP3 H1   HT     0.417000        1.0080           0
   36268 WT2  4487 TIP3 H2   HT     0.417000        1.0080           0
   36269 WT2  4488 TIP3 OH2  OT    -0.834000       15.9994           0
   36270 WT2  4488 TIP3 H1   HT     0.417000        1.0080           0
   36271 WT2  4488 TIP3 H2   HT     0.417000        1.0080           0
   36272 WT2  4489 TIP3 OH2  OT    -0.834000       15.9994           0
   36273 WT2  4489 TIP3 H1   HT     0.417000        1.0080           0
   36274 WT2  4489 TIP3 H2   HT     0.417000        1.0080           0
   36275 WT2  4490 TIP3 OH2  OT    -0.834000       15.9994           0
   36276 WT2  4490 TIP3 H1   HT     0.417000        1.0080           0
   36277 WT2  4490 TIP3 H2   HT     0.417000        1.0080           0
   36278 WT2  4491 TIP3 OH2  OT    -0.834000       15.9994           0
   36279 WT2  4491 TIP3 H1   HT     0.417000        1.0080           0
   36280 WT2  4491 TIP3 H2   HT     0.417000        1.0080           0
   36281 WT2  4492 TIP3 OH2  OT    -0.834000       15.9994           0
   36282 WT2  4492 TIP3 H1   HT     0.417000        1.0080           0
   36283 WT2  4492 TIP3 H2   HT     0.417000        1.0080           0
   36284 WT2  4493 TIP3 OH2  OT    -0.834000       15.9994           0
   36285 WT2  4493 TIP3 H1   HT     0.417000        1.0080           0
   36286 WT2  4493 TIP3 H2   HT     0.417000        1.0080           0
   36287 WT2  4494 TIP3 OH2  OT    -0.834000       15.9994           0
   36288 WT2  4494 TIP3 H1   HT     0.417000        1.0080           0
   36289 WT2  4494 TIP3 H2   HT     0.417000        1.0080           0
   36290 WT2  4495 TIP3 OH2  OT    -0.834000       15.9994           0
   36291 WT2  4495 TIP3 H1   HT     0.417000        1.0080           0
   36292 WT2  4495 TIP3 H2   HT     0.417000        1.0080           0
   36293 WT2  4496 TIP3 OH2  OT    -0.834000       15.9994           0
   36294 WT2  4496 TIP3 H1   HT     0.417000        1.0080           0
   36295 WT2  4496 TIP3 H2   HT     0.417000        1.0080           0
   36296 WT2  4497 TIP3 OH2  OT    -0.834000       15.9994           0
   36297 WT2  4497 TIP3 H1   HT     0.417000        1.0080           0
   36298 WT2  4497 TIP3 H2   HT     0.417000        1.0080           0
   36299 WT2  4498 TIP3 OH2  OT    -0.834000       15.9994           0
   36300 WT2  4498 TIP3 H1   HT     0.417000        1.0080           0
   36301 WT2  4498 TIP3 H2   HT     0.417000        1.0080           0
   36302 WT2  4500 TIP3 OH2  OT    -0.834000       15.9994           0
   36303 WT2  4500 TIP3 H1   HT     0.417000        1.0080           0
   36304 WT2  4500 TIP3 H2   HT     0.417000        1.0080           0
   36305 WT2  4501 TIP3 OH2  OT    -0.834000       15.9994           0
   36306 WT2  4501 TIP3 H1   HT     0.417000        1.0080           0
   36307 WT2  4501 TIP3 H2   HT     0.417000        1.0080           0
   36308 WT2  4502 TIP3 OH2  OT    -0.834000       15.9994           0
   36309 WT2  4502 TIP3 H1   HT     0.417000        1.0080           0
   36310 WT2  4502 TIP3 H2   HT     0.417000        1.0080           0
   36311 WT2  4503 TIP3 OH2  OT    -0.834000       15.9994           0
   36312 WT2  4503 TIP3 H1   HT     0.417000        1.0080           0
   36313 WT2  4503 TIP3 H2   HT     0.417000        1.0080           0
   36314 WT2  4504 TIP3 OH2  OT    -0.834000       15.9994           0
   36315 WT2  4504 TIP3 H1   HT     0.417000        1.0080           0
   36316 WT2  4504 TIP3 H2   HT     0.417000        1.0080           0
   36317 WT2  4505 TIP3 OH2  OT    -0.834000       15.9994           0
   36318 WT2  4505 TIP3 H1   HT     0.417000        1.0080           0
   36319 WT2  4505 TIP3 H2   HT     0.417000        1.0080           0
   36320 WT2  4506 TIP3 OH2  OT    -0.834000       15.9994           0
   36321 WT2  4506 TIP3 H1   HT     0.417000        1.0080           0
   36322 WT2  4506 TIP3 H2   HT     0.417000        1.0080           0
   36323 WT2  4507 TIP3 OH2  OT    -0.834000       15.9994           0
   36324 WT2  4507 TIP3 H1   HT     0.417000        1.0080           0
   36325 WT2  4507 TIP3 H2   HT     0.417000        1.0080           0
   36326 WT2  4508 TIP3 OH2  OT    -0.834000       15.9994           0
   36327 WT2  4508 TIP3 H1   HT     0.417000        1.0080           0
   36328 WT2  4508 TIP3 H2   HT     0.417000        1.0080           0
   36329 WT2  4509 TIP3 OH2  OT    -0.834000       15.9994           0
   36330 WT2  4509 TIP3 H1   HT     0.417000        1.0080           0
   36331 WT2  4509 TIP3 H2   HT     0.417000        1.0080           0
   36332 WT2  4511 TIP3 OH2  OT    -0.834000       15.9994           0
   36333 WT2  4511 TIP3 H1   HT     0.417000        1.0080           0
   36334 WT2  4511 TIP3 H2   HT     0.417000        1.0080           0
   36335 WT2  4514 TIP3 OH2  OT    -0.834000       15.9994           0
   36336 WT2  4514 TIP3 H1   HT     0.417000        1.0080           0
   36337 WT2  4514 TIP3 H2   HT     0.417000        1.0080           0
   36338 WT2  4516 TIP3 OH2  OT    -0.834000       15.9994           0
   36339 WT2  4516 TIP3 H1   HT     0.417000        1.0080           0
   36340 WT2  4516 TIP3 H2   HT     0.417000        1.0080           0
   36341 WT2  4517 TIP3 OH2  OT    -0.834000       15.9994           0
   36342 WT2  4517 TIP3 H1   HT     0.417000        1.0080           0
   36343 WT2  4517 TIP3 H2   HT     0.417000        1.0080           0
   36344 WT2  4519 TIP3 OH2  OT    -0.834000       15.9994           0
   36345 WT2  4519 TIP3 H1   HT     0.417000        1.0080           0
   36346 WT2  4519 TIP3 H2   HT     0.417000        1.0080           0
   36347 WT2  4520 TIP3 OH2  OT    -0.834000       15.9994           0
   36348 WT2  4520 TIP3 H1   HT     0.417000        1.0080           0
   36349 WT2  4520 TIP3 H2   HT     0.417000        1.0080           0
   36350 WT2  4521 TIP3 OH2  OT    -0.834000       15.9994           0
   36351 WT2  4521 TIP3 H1   HT     0.417000        1.0080           0
   36352 WT2  4521 TIP3 H2   HT     0.417000        1.0080           0
   36353 WT2  4522 TIP3 OH2  OT    -0.834000       15.9994           0
   36354 WT2  4522 TIP3 H1   HT     0.417000        1.0080           0
   36355 WT2  4522 TIP3 H2   HT     0.417000        1.0080           0
   36356 WT2  4523 TIP3 OH2  OT    -0.834000       15.9994           0
   36357 WT2  4523 TIP3 H1   HT     0.417000        1.0080           0
   36358 WT2  4523 TIP3 H2   HT     0.417000        1.0080           0
   36359 WT2  4524 TIP3 OH2  OT    -0.834000       15.9994           0
   36360 WT2  4524 TIP3 H1   HT     0.417000        1.0080           0
   36361 WT2  4524 TIP3 H2   HT     0.417000        1.0080           0
   36362 WT2  4525 TIP3 OH2  OT    -0.834000       15.9994           0
   36363 WT2  4525 TIP3 H1   HT     0.417000        1.0080           0
   36364 WT2  4525 TIP3 H2   HT     0.417000        1.0080           0
   36365 WT2  4526 TIP3 OH2  OT    -0.834000       15.9994           0
   36366 WT2  4526 TIP3 H1   HT     0.417000        1.0080           0
   36367 WT2  4526 TIP3 H2   HT     0.417000        1.0080           0
   36368 WT2  4527 TIP3 OH2  OT    -0.834000       15.9994           0
   36369 WT2  4527 TIP3 H1   HT     0.417000        1.0080           0
   36370 WT2  4527 TIP3 H2   HT     0.417000        1.0080           0
   36371 WT2  4528 TIP3 OH2  OT    -0.834000       15.9994           0
   36372 WT2  4528 TIP3 H1   HT     0.417000        1.0080           0
   36373 WT2  4528 TIP3 H2   HT     0.417000        1.0080           0
   36374 WT2  4529 TIP3 OH2  OT    -0.834000       15.9994           0
   36375 WT2  4529 TIP3 H1   HT     0.417000        1.0080           0
   36376 WT2  4529 TIP3 H2   HT     0.417000        1.0080           0
   36377 WT2  4530 TIP3 OH2  OT    -0.834000       15.9994           0
   36378 WT2  4530 TIP3 H1   HT     0.417000        1.0080           0
   36379 WT2  4530 TIP3 H2   HT     0.417000        1.0080           0
   36380 WT2  4532 TIP3 OH2  OT    -0.834000       15.9994           0
   36381 WT2  4532 TIP3 H1   HT     0.417000        1.0080           0
   36382 WT2  4532 TIP3 H2   HT     0.417000        1.0080           0
   36383 WT2  4533 TIP3 OH2  OT    -0.834000       15.9994           0
   36384 WT2  4533 TIP3 H1   HT     0.417000        1.0080           0
   36385 WT2  4533 TIP3 H2   HT     0.417000        1.0080           0
   36386 WT2  4534 TIP3 OH2  OT    -0.834000       15.9994           0
   36387 WT2  4534 TIP3 H1   HT     0.417000        1.0080           0
   36388 WT2  4534 TIP3 H2   HT     0.417000        1.0080           0
   36389 WT2  4536 TIP3 OH2  OT    -0.834000       15.9994           0
   36390 WT2  4536 TIP3 H1   HT     0.417000        1.0080           0
   36391 WT2  4536 TIP3 H2   HT     0.417000        1.0080           0
   36392 WT2  4538 TIP3 OH2  OT    -0.834000       15.9994           0
   36393 WT2  4538 TIP3 H1   HT     0.417000        1.0080           0
   36394 WT2  4538 TIP3 H2   HT     0.417000        1.0080           0
   36395 WT2  4539 TIP3 OH2  OT    -0.834000       15.9994           0
   36396 WT2  4539 TIP3 H1   HT     0.417000        1.0080           0
   36397 WT2  4539 TIP3 H2   HT     0.417000        1.0080           0
   36398 WT2  4540 TIP3 OH2  OT    -0.834000       15.9994           0
   36399 WT2  4540 TIP3 H1   HT     0.417000        1.0080           0
   36400 WT2  4540 TIP3 H2   HT     0.417000        1.0080           0
   36401 WT2  4541 TIP3 OH2  OT    -0.834000       15.9994           0
   36402 WT2  4541 TIP3 H1   HT     0.417000        1.0080           0
   36403 WT2  4541 TIP3 H2   HT     0.417000        1.0080           0
   36404 WT2  4542 TIP3 OH2  OT    -0.834000       15.9994           0
   36405 WT2  4542 TIP3 H1   HT     0.417000        1.0080           0
   36406 WT2  4542 TIP3 H2   HT     0.417000        1.0080           0
   36407 WT2  4543 TIP3 OH2  OT    -0.834000       15.9994           0
   36408 WT2  4543 TIP3 H1   HT     0.417000        1.0080           0
   36409 WT2  4543 TIP3 H2   HT     0.417000        1.0080           0
   36410 WT2  4546 TIP3 OH2  OT    -0.834000       15.9994           0
   36411 WT2  4546 TIP3 H1   HT     0.417000        1.0080           0
   36412 WT2  4546 TIP3 H2   HT     0.417000        1.0080           0
   36413 WT2  4548 TIP3 OH2  OT    -0.834000       15.9994           0
   36414 WT2  4548 TIP3 H1   HT     0.417000        1.0080           0
   36415 WT2  4548 TIP3 H2   HT     0.417000        1.0080           0
   36416 WT2  4549 TIP3 OH2  OT    -0.834000       15.9994           0
   36417 WT2  4549 TIP3 H1   HT     0.417000        1.0080           0
   36418 WT2  4549 TIP3 H2   HT     0.417000        1.0080           0
   36419 WT2  4550 TIP3 OH2  OT    -0.834000       15.9994           0
   36420 WT2  4550 TIP3 H1   HT     0.417000        1.0080           0
   36421 WT2  4550 TIP3 H2   HT     0.417000        1.0080           0
   36422 WT2  4552 TIP3 OH2  OT    -0.834000       15.9994           0
   36423 WT2  4552 TIP3 H1   HT     0.417000        1.0080           0
   36424 WT2  4552 TIP3 H2   HT     0.417000        1.0080           0
   36425 WT2  4554 TIP3 OH2  OT    -0.834000       15.9994           0
   36426 WT2  4554 TIP3 H1   HT     0.417000        1.0080           0
   36427 WT2  4554 TIP3 H2   HT     0.417000        1.0080           0
   36428 WT2  4555 TIP3 OH2  OT    -0.834000       15.9994           0
   36429 WT2  4555 TIP3 H1   HT     0.417000        1.0080           0
   36430 WT2  4555 TIP3 H2   HT     0.417000        1.0080           0
   36431 WT2  4556 TIP3 OH2  OT    -0.834000       15.9994           0
   36432 WT2  4556 TIP3 H1   HT     0.417000        1.0080           0
   36433 WT2  4556 TIP3 H2   HT     0.417000        1.0080           0
   36434 WT2  4557 TIP3 OH2  OT    -0.834000       15.9994           0
   36435 WT2  4557 TIP3 H1   HT     0.417000        1.0080           0
   36436 WT2  4557 TIP3 H2   HT     0.417000        1.0080           0
   36437 WT2  4558 TIP3 OH2  OT    -0.834000       15.9994           0
   36438 WT2  4558 TIP3 H1   HT     0.417000        1.0080           0
   36439 WT2  4558 TIP3 H2   HT     0.417000        1.0080           0
   36440 WT2  4559 TIP3 OH2  OT    -0.834000       15.9994           0
   36441 WT2  4559 TIP3 H1   HT     0.417000        1.0080           0
   36442 WT2  4559 TIP3 H2   HT     0.417000        1.0080           0
   36443 WT2  4560 TIP3 OH2  OT    -0.834000       15.9994           0
   36444 WT2  4560 TIP3 H1   HT     0.417000        1.0080           0
   36445 WT2  4560 TIP3 H2   HT     0.417000        1.0080           0
   36446 WT2  4561 TIP3 OH2  OT    -0.834000       15.9994           0
   36447 WT2  4561 TIP3 H1   HT     0.417000        1.0080           0
   36448 WT2  4561 TIP3 H2   HT     0.417000        1.0080           0
   36449 WT2  4562 TIP3 OH2  OT    -0.834000       15.9994           0
   36450 WT2  4562 TIP3 H1   HT     0.417000        1.0080           0
   36451 WT2  4562 TIP3 H2   HT     0.417000        1.0080           0
   36452 WT2  4564 TIP3 OH2  OT    -0.834000       15.9994           0
   36453 WT2  4564 TIP3 H1   HT     0.417000        1.0080           0
   36454 WT2  4564 TIP3 H2   HT     0.417000        1.0080           0
   36455 WT2  4565 TIP3 OH2  OT    -0.834000       15.9994           0
   36456 WT2  4565 TIP3 H1   HT     0.417000        1.0080           0
   36457 WT2  4565 TIP3 H2   HT     0.417000        1.0080           0
   36458 WT2  4566 TIP3 OH2  OT    -0.834000       15.9994           0
   36459 WT2  4566 TIP3 H1   HT     0.417000        1.0080           0
   36460 WT2  4566 TIP3 H2   HT     0.417000        1.0080           0
   36461 WT2  4568 TIP3 OH2  OT    -0.834000       15.9994           0
   36462 WT2  4568 TIP3 H1   HT     0.417000        1.0080           0
   36463 WT2  4568 TIP3 H2   HT     0.417000        1.0080           0
   36464 WT2  4569 TIP3 OH2  OT    -0.834000       15.9994           0
   36465 WT2  4569 TIP3 H1   HT     0.417000        1.0080           0
   36466 WT2  4569 TIP3 H2   HT     0.417000        1.0080           0
   36467 WT2  4570 TIP3 OH2  OT    -0.834000       15.9994           0
   36468 WT2  4570 TIP3 H1   HT     0.417000        1.0080           0
   36469 WT2  4570 TIP3 H2   HT     0.417000        1.0080           0
   36470 WT2  4571 TIP3 OH2  OT    -0.834000       15.9994           0
   36471 WT2  4571 TIP3 H1   HT     0.417000        1.0080           0
   36472 WT2  4571 TIP3 H2   HT     0.417000        1.0080           0
   36473 WT2  4572 TIP3 OH2  OT    -0.834000       15.9994           0
   36474 WT2  4572 TIP3 H1   HT     0.417000        1.0080           0
   36475 WT2  4572 TIP3 H2   HT     0.417000        1.0080           0
   36476 WT2  4574 TIP3 OH2  OT    -0.834000       15.9994           0
   36477 WT2  4574 TIP3 H1   HT     0.417000        1.0080           0
   36478 WT2  4574 TIP3 H2   HT     0.417000        1.0080           0
   36479 WT2  4575 TIP3 OH2  OT    -0.834000       15.9994           0
   36480 WT2  4575 TIP3 H1   HT     0.417000        1.0080           0
   36481 WT2  4575 TIP3 H2   HT     0.417000        1.0080           0
   36482 WT2  4576 TIP3 OH2  OT    -0.834000       15.9994           0
   36483 WT2  4576 TIP3 H1   HT     0.417000        1.0080           0
   36484 WT2  4576 TIP3 H2   HT     0.417000        1.0080           0
   36485 WT2  4577 TIP3 OH2  OT    -0.834000       15.9994           0
   36486 WT2  4577 TIP3 H1   HT     0.417000        1.0080           0
   36487 WT2  4577 TIP3 H2   HT     0.417000        1.0080           0
   36488 WT2  4578 TIP3 OH2  OT    -0.834000       15.9994           0
   36489 WT2  4578 TIP3 H1   HT     0.417000        1.0080           0
   36490 WT2  4578 TIP3 H2   HT     0.417000        1.0080           0
   36491 WT2  4579 TIP3 OH2  OT    -0.834000       15.9994           0
   36492 WT2  4579 TIP3 H1   HT     0.417000        1.0080           0
   36493 WT2  4579 TIP3 H2   HT     0.417000        1.0080           0
   36494 WT2  4580 TIP3 OH2  OT    -0.834000       15.9994           0
   36495 WT2  4580 TIP3 H1   HT     0.417000        1.0080           0
   36496 WT2  4580 TIP3 H2   HT     0.417000        1.0080           0
   36497 WT2  4581 TIP3 OH2  OT    -0.834000       15.9994           0
   36498 WT2  4581 TIP3 H1   HT     0.417000        1.0080           0
   36499 WT2  4581 TIP3 H2   HT     0.417000        1.0080           0
   36500 WT2  4582 TIP3 OH2  OT    -0.834000       15.9994           0
   36501 WT2  4582 TIP3 H1   HT     0.417000        1.0080           0
   36502 WT2  4582 TIP3 H2   HT     0.417000        1.0080           0
   36503 WT2  4583 TIP3 OH2  OT    -0.834000       15.9994           0
   36504 WT2  4583 TIP3 H1   HT     0.417000        1.0080           0
   36505 WT2  4583 TIP3 H2   HT     0.417000        1.0080           0
   36506 WT2  4584 TIP3 OH2  OT    -0.834000       15.9994           0
   36507 WT2  4584 TIP3 H1   HT     0.417000        1.0080           0
   36508 WT2  4584 TIP3 H2   HT     0.417000        1.0080           0
   36509 WT2  4585 TIP3 OH2  OT    -0.834000       15.9994           0
   36510 WT2  4585 TIP3 H1   HT     0.417000        1.0080           0
   36511 WT2  4585 TIP3 H2   HT     0.417000        1.0080           0
   36512 WT2  4586 TIP3 OH2  OT    -0.834000       15.9994           0
   36513 WT2  4586 TIP3 H1   HT     0.417000        1.0080           0
   36514 WT2  4586 TIP3 H2   HT     0.417000        1.0080           0
   36515 WT2  4589 TIP3 OH2  OT    -0.834000       15.9994           0
   36516 WT2  4589 TIP3 H1   HT     0.417000        1.0080           0
   36517 WT2  4589 TIP3 H2   HT     0.417000        1.0080           0
   36518 WT2  4591 TIP3 OH2  OT    -0.834000       15.9994           0
   36519 WT2  4591 TIP3 H1   HT     0.417000        1.0080           0
   36520 WT2  4591 TIP3 H2   HT     0.417000        1.0080           0
   36521 WT2  4592 TIP3 OH2  OT    -0.834000       15.9994           0
   36522 WT2  4592 TIP3 H1   HT     0.417000        1.0080           0
   36523 WT2  4592 TIP3 H2   HT     0.417000        1.0080           0
   36524 WT2  4593 TIP3 OH2  OT    -0.834000       15.9994           0
   36525 WT2  4593 TIP3 H1   HT     0.417000        1.0080           0
   36526 WT2  4593 TIP3 H2   HT     0.417000        1.0080           0
   36527 WT2  4594 TIP3 OH2  OT    -0.834000       15.9994           0
   36528 WT2  4594 TIP3 H1   HT     0.417000        1.0080           0
   36529 WT2  4594 TIP3 H2   HT     0.417000        1.0080           0
   36530 WT2  4595 TIP3 OH2  OT    -0.834000       15.9994           0
   36531 WT2  4595 TIP3 H1   HT     0.417000        1.0080           0
   36532 WT2  4595 TIP3 H2   HT     0.417000        1.0080           0
   36533 WT2  4596 TIP3 OH2  OT    -0.834000       15.9994           0
   36534 WT2  4596 TIP3 H1   HT     0.417000        1.0080           0
   36535 WT2  4596 TIP3 H2   HT     0.417000        1.0080           0
   36536 WT2  4597 TIP3 OH2  OT    -0.834000       15.9994           0
   36537 WT2  4597 TIP3 H1   HT     0.417000        1.0080           0
   36538 WT2  4597 TIP3 H2   HT     0.417000        1.0080           0
   36539 WT2  4598 TIP3 OH2  OT    -0.834000       15.9994           0
   36540 WT2  4598 TIP3 H1   HT     0.417000        1.0080           0
   36541 WT2  4598 TIP3 H2   HT     0.417000        1.0080           0
   36542 WT2  4599 TIP3 OH2  OT    -0.834000       15.9994           0
   36543 WT2  4599 TIP3 H1   HT     0.417000        1.0080           0
   36544 WT2  4599 TIP3 H2   HT     0.417000        1.0080           0
   36545 WT2  4600 TIP3 OH2  OT    -0.834000       15.9994           0
   36546 WT2  4600 TIP3 H1   HT     0.417000        1.0080           0
   36547 WT2  4600 TIP3 H2   HT     0.417000        1.0080           0
   36548 WT2  4601 TIP3 OH2  OT    -0.834000       15.9994           0
   36549 WT2  4601 TIP3 H1   HT     0.417000        1.0080           0
   36550 WT2  4601 TIP3 H2   HT     0.417000        1.0080           0
   36551 WT2  4603 TIP3 OH2  OT    -0.834000       15.9994           0
   36552 WT2  4603 TIP3 H1   HT     0.417000        1.0080           0
   36553 WT2  4603 TIP3 H2   HT     0.417000        1.0080           0
   36554 WT2  4604 TIP3 OH2  OT    -0.834000       15.9994           0
   36555 WT2  4604 TIP3 H1   HT     0.417000        1.0080           0
   36556 WT2  4604 TIP3 H2   HT     0.417000        1.0080           0
   36557 WT2  4605 TIP3 OH2  OT    -0.834000       15.9994           0
   36558 WT2  4605 TIP3 H1   HT     0.417000        1.0080           0
   36559 WT2  4605 TIP3 H2   HT     0.417000        1.0080           0
   36560 WT2  4606 TIP3 OH2  OT    -0.834000       15.9994           0
   36561 WT2  4606 TIP3 H1   HT     0.417000        1.0080           0
   36562 WT2  4606 TIP3 H2   HT     0.417000        1.0080           0
   36563 WT2  4607 TIP3 OH2  OT    -0.834000       15.9994           0
   36564 WT2  4607 TIP3 H1   HT     0.417000        1.0080           0
   36565 WT2  4607 TIP3 H2   HT     0.417000        1.0080           0
   36566 WT2  4608 TIP3 OH2  OT    -0.834000       15.9994           0
   36567 WT2  4608 TIP3 H1   HT     0.417000        1.0080           0
   36568 WT2  4608 TIP3 H2   HT     0.417000        1.0080           0
   36569 WT2  4610 TIP3 OH2  OT    -0.834000       15.9994           0
   36570 WT2  4610 TIP3 H1   HT     0.417000        1.0080           0
   36571 WT2  4610 TIP3 H2   HT     0.417000        1.0080           0
   36572 WT2  4611 TIP3 OH2  OT    -0.834000       15.9994           0
   36573 WT2  4611 TIP3 H1   HT     0.417000        1.0080           0
   36574 WT2  4611 TIP3 H2   HT     0.417000        1.0080           0
   36575 WT2  4612 TIP3 OH2  OT    -0.834000       15.9994           0
   36576 WT2  4612 TIP3 H1   HT     0.417000        1.0080           0
   36577 WT2  4612 TIP3 H2   HT     0.417000        1.0080           0
   36578 WT2  4614 TIP3 OH2  OT    -0.834000       15.9994           0
   36579 WT2  4614 TIP3 H1   HT     0.417000        1.0080           0
   36580 WT2  4614 TIP3 H2   HT     0.417000        1.0080           0
   36581 WT2  4615 TIP3 OH2  OT    -0.834000       15.9994           0
   36582 WT2  4615 TIP3 H1   HT     0.417000        1.0080           0
   36583 WT2  4615 TIP3 H2   HT     0.417000        1.0080           0
   36584 WT2  4616 TIP3 OH2  OT    -0.834000       15.9994           0
   36585 WT2  4616 TIP3 H1   HT     0.417000        1.0080           0
   36586 WT2  4616 TIP3 H2   HT     0.417000        1.0080           0
   36587 WT2  4617 TIP3 OH2  OT    -0.834000       15.9994           0
   36588 WT2  4617 TIP3 H1   HT     0.417000        1.0080           0
   36589 WT2  4617 TIP3 H2   HT     0.417000        1.0080           0
   36590 WT2  4619 TIP3 OH2  OT    -0.834000       15.9994           0
   36591 WT2  4619 TIP3 H1   HT     0.417000        1.0080           0
   36592 WT2  4619 TIP3 H2   HT     0.417000        1.0080           0
   36593 WT2  4620 TIP3 OH2  OT    -0.834000       15.9994           0
   36594 WT2  4620 TIP3 H1   HT     0.417000        1.0080           0
   36595 WT2  4620 TIP3 H2   HT     0.417000        1.0080           0
   36596 WT2  4621 TIP3 OH2  OT    -0.834000       15.9994           0
   36597 WT2  4621 TIP3 H1   HT     0.417000        1.0080           0
   36598 WT2  4621 TIP3 H2   HT     0.417000        1.0080           0
   36599 WT2  4623 TIP3 OH2  OT    -0.834000       15.9994           0
   36600 WT2  4623 TIP3 H1   HT     0.417000        1.0080           0
   36601 WT2  4623 TIP3 H2   HT     0.417000        1.0080           0
   36602 WT2  4624 TIP3 OH2  OT    -0.834000       15.9994           0
   36603 WT2  4624 TIP3 H1   HT     0.417000        1.0080           0
   36604 WT2  4624 TIP3 H2   HT     0.417000        1.0080           0
   36605 WT2  4625 TIP3 OH2  OT    -0.834000       15.9994           0
   36606 WT2  4625 TIP3 H1   HT     0.417000        1.0080           0
   36607 WT2  4625 TIP3 H2   HT     0.417000        1.0080           0
   36608 WT2  4628 TIP3 OH2  OT    -0.834000       15.9994           0
   36609 WT2  4628 TIP3 H1   HT     0.417000        1.0080           0
   36610 WT2  4628 TIP3 H2   HT     0.417000        1.0080           0
   36611 WT2  4629 TIP3 OH2  OT    -0.834000       15.9994           0
   36612 WT2  4629 TIP3 H1   HT     0.417000        1.0080           0
   36613 WT2  4629 TIP3 H2   HT     0.417000        1.0080           0
   36614 WT2  4630 TIP3 OH2  OT    -0.834000       15.9994           0
   36615 WT2  4630 TIP3 H1   HT     0.417000        1.0080           0
   36616 WT2  4630 TIP3 H2   HT     0.417000        1.0080           0
   36617 WT2  4631 TIP3 OH2  OT    -0.834000       15.9994           0
   36618 WT2  4631 TIP3 H1   HT     0.417000        1.0080           0
   36619 WT2  4631 TIP3 H2   HT     0.417000        1.0080           0
   36620 WT2  4632 TIP3 OH2  OT    -0.834000       15.9994           0
   36621 WT2  4632 TIP3 H1   HT     0.417000        1.0080           0
   36622 WT2  4632 TIP3 H2   HT     0.417000        1.0080           0
   36623 WT2  4633 TIP3 OH2  OT    -0.834000       15.9994           0
   36624 WT2  4633 TIP3 H1   HT     0.417000        1.0080           0
   36625 WT2  4633 TIP3 H2   HT     0.417000        1.0080           0
   36626 WT2  4634 TIP3 OH2  OT    -0.834000       15.9994           0
   36627 WT2  4634 TIP3 H1   HT     0.417000        1.0080           0
   36628 WT2  4634 TIP3 H2   HT     0.417000        1.0080           0
   36629 WT2  4635 TIP3 OH2  OT    -0.834000       15.9994           0
   36630 WT2  4635 TIP3 H1   HT     0.417000        1.0080           0
   36631 WT2  4635 TIP3 H2   HT     0.417000        1.0080           0
   36632 WT2  4636 TIP3 OH2  OT    -0.834000       15.9994           0
   36633 WT2  4636 TIP3 H1   HT     0.417000        1.0080           0
   36634 WT2  4636 TIP3 H2   HT     0.417000        1.0080           0
   36635 WT2  4638 TIP3 OH2  OT    -0.834000       15.9994           0
   36636 WT2  4638 TIP3 H1   HT     0.417000        1.0080           0
   36637 WT2  4638 TIP3 H2   HT     0.417000        1.0080           0
   36638 WT2  4639 TIP3 OH2  OT    -0.834000       15.9994           0
   36639 WT2  4639 TIP3 H1   HT     0.417000        1.0080           0
   36640 WT2  4639 TIP3 H2   HT     0.417000        1.0080           0
   36641 WT2  4640 TIP3 OH2  OT    -0.834000       15.9994           0
   36642 WT2  4640 TIP3 H1   HT     0.417000        1.0080           0
   36643 WT2  4640 TIP3 H2   HT     0.417000        1.0080           0
   36644 WT2  4641 TIP3 OH2  OT    -0.834000       15.9994           0
   36645 WT2  4641 TIP3 H1   HT     0.417000        1.0080           0
   36646 WT2  4641 TIP3 H2   HT     0.417000        1.0080           0
   36647 WT2  4642 TIP3 OH2  OT    -0.834000       15.9994           0
   36648 WT2  4642 TIP3 H1   HT     0.417000        1.0080           0
   36649 WT2  4642 TIP3 H2   HT     0.417000        1.0080           0
   36650 WT2  4644 TIP3 OH2  OT    -0.834000       15.9994           0
   36651 WT2  4644 TIP3 H1   HT     0.417000        1.0080           0
   36652 WT2  4644 TIP3 H2   HT     0.417000        1.0080           0
   36653 WT2  4645 TIP3 OH2  OT    -0.834000       15.9994           0
   36654 WT2  4645 TIP3 H1   HT     0.417000        1.0080           0
   36655 WT2  4645 TIP3 H2   HT     0.417000        1.0080           0
   36656 WT2  4649 TIP3 OH2  OT    -0.834000       15.9994           0
   36657 WT2  4649 TIP3 H1   HT     0.417000        1.0080           0
   36658 WT2  4649 TIP3 H2   HT     0.417000        1.0080           0
   36659 WT2  4650 TIP3 OH2  OT    -0.834000       15.9994           0
   36660 WT2  4650 TIP3 H1   HT     0.417000        1.0080           0
   36661 WT2  4650 TIP3 H2   HT     0.417000        1.0080           0
   36662 WT2  4651 TIP3 OH2  OT    -0.834000       15.9994           0
   36663 WT2  4651 TIP3 H1   HT     0.417000        1.0080           0
   36664 WT2  4651 TIP3 H2   HT     0.417000        1.0080           0
   36665 WT2  4652 TIP3 OH2  OT    -0.834000       15.9994           0
   36666 WT2  4652 TIP3 H1   HT     0.417000        1.0080           0
   36667 WT2  4652 TIP3 H2   HT     0.417000        1.0080           0
   36668 WT2  4654 TIP3 OH2  OT    -0.834000       15.9994           0
   36669 WT2  4654 TIP3 H1   HT     0.417000        1.0080           0
   36670 WT2  4654 TIP3 H2   HT     0.417000        1.0080           0
   36671 WT2  4656 TIP3 OH2  OT    -0.834000       15.9994           0
   36672 WT2  4656 TIP3 H1   HT     0.417000        1.0080           0
   36673 WT2  4656 TIP3 H2   HT     0.417000        1.0080           0
   36674 WT2  4657 TIP3 OH2  OT    -0.834000       15.9994           0
   36675 WT2  4657 TIP3 H1   HT     0.417000        1.0080           0
   36676 WT2  4657 TIP3 H2   HT     0.417000        1.0080           0
   36677 WT2  4658 TIP3 OH2  OT    -0.834000       15.9994           0
   36678 WT2  4658 TIP3 H1   HT     0.417000        1.0080           0
   36679 WT2  4658 TIP3 H2   HT     0.417000        1.0080           0
   36680 WT2  4659 TIP3 OH2  OT    -0.834000       15.9994           0
   36681 WT2  4659 TIP3 H1   HT     0.417000        1.0080           0
   36682 WT2  4659 TIP3 H2   HT     0.417000        1.0080           0
   36683 WT2  4661 TIP3 OH2  OT    -0.834000       15.9994           0
   36684 WT2  4661 TIP3 H1   HT     0.417000        1.0080           0
   36685 WT2  4661 TIP3 H2   HT     0.417000        1.0080           0
   36686 WT2  4663 TIP3 OH2  OT    -0.834000       15.9994           0
   36687 WT2  4663 TIP3 H1   HT     0.417000        1.0080           0
   36688 WT2  4663 TIP3 H2   HT     0.417000        1.0080           0
   36689 WT2  4664 TIP3 OH2  OT    -0.834000       15.9994           0
   36690 WT2  4664 TIP3 H1   HT     0.417000        1.0080           0
   36691 WT2  4664 TIP3 H2   HT     0.417000        1.0080           0
   36692 WT2  4666 TIP3 OH2  OT    -0.834000       15.9994           0
   36693 WT2  4666 TIP3 H1   HT     0.417000        1.0080           0
   36694 WT2  4666 TIP3 H2   HT     0.417000        1.0080           0
   36695 WT2  4667 TIP3 OH2  OT    -0.834000       15.9994           0
   36696 WT2  4667 TIP3 H1   HT     0.417000        1.0080           0
   36697 WT2  4667 TIP3 H2   HT     0.417000        1.0080           0
   36698 WT2  4669 TIP3 OH2  OT    -0.834000       15.9994           0
   36699 WT2  4669 TIP3 H1   HT     0.417000        1.0080           0
   36700 WT2  4669 TIP3 H2   HT     0.417000        1.0080           0
   36701 WT2  4670 TIP3 OH2  OT    -0.834000       15.9994           0
   36702 WT2  4670 TIP3 H1   HT     0.417000        1.0080           0
   36703 WT2  4670 TIP3 H2   HT     0.417000        1.0080           0
   36704 WT2  4671 TIP3 OH2  OT    -0.834000       15.9994           0
   36705 WT2  4671 TIP3 H1   HT     0.417000        1.0080           0
   36706 WT2  4671 TIP3 H2   HT     0.417000        1.0080           0
   36707 WT2  4673 TIP3 OH2  OT    -0.834000       15.9994           0
   36708 WT2  4673 TIP3 H1   HT     0.417000        1.0080           0
   36709 WT2  4673 TIP3 H2   HT     0.417000        1.0080           0
   36710 WT2  4675 TIP3 OH2  OT    -0.834000       15.9994           0
   36711 WT2  4675 TIP3 H1   HT     0.417000        1.0080           0
   36712 WT2  4675 TIP3 H2   HT     0.417000        1.0080           0
   36713 WT2  4676 TIP3 OH2  OT    -0.834000       15.9994           0
   36714 WT2  4676 TIP3 H1   HT     0.417000        1.0080           0
   36715 WT2  4676 TIP3 H2   HT     0.417000        1.0080           0
   36716 WT2  4677 TIP3 OH2  OT    -0.834000       15.9994           0
   36717 WT2  4677 TIP3 H1   HT     0.417000        1.0080           0
   36718 WT2  4677 TIP3 H2   HT     0.417000        1.0080           0
   36719 WT2  4678 TIP3 OH2  OT    -0.834000       15.9994           0
   36720 WT2  4678 TIP3 H1   HT     0.417000        1.0080           0
   36721 WT2  4678 TIP3 H2   HT     0.417000        1.0080           0
   36722 WT2  4679 TIP3 OH2  OT    -0.834000       15.9994           0
   36723 WT2  4679 TIP3 H1   HT     0.417000        1.0080           0
   36724 WT2  4679 TIP3 H2   HT     0.417000        1.0080           0
   36725 WT2  4680 TIP3 OH2  OT    -0.834000       15.9994           0
   36726 WT2  4680 TIP3 H1   HT     0.417000        1.0080           0
   36727 WT2  4680 TIP3 H2   HT     0.417000        1.0080           0
   36728 WT2  4681 TIP3 OH2  OT    -0.834000       15.9994           0
   36729 WT2  4681 TIP3 H1   HT     0.417000        1.0080           0
   36730 WT2  4681 TIP3 H2   HT     0.417000        1.0080           0
   36731 WT2  4682 TIP3 OH2  OT    -0.834000       15.9994           0
   36732 WT2  4682 TIP3 H1   HT     0.417000        1.0080           0
   36733 WT2  4682 TIP3 H2   HT     0.417000        1.0080           0
   36734 WT2  4683 TIP3 OH2  OT    -0.834000       15.9994           0
   36735 WT2  4683 TIP3 H1   HT     0.417000        1.0080           0
   36736 WT2  4683 TIP3 H2   HT     0.417000        1.0080           0
   36737 WT2  4684 TIP3 OH2  OT    -0.834000       15.9994           0
   36738 WT2  4684 TIP3 H1   HT     0.417000        1.0080           0
   36739 WT2  4684 TIP3 H2   HT     0.417000        1.0080           0
   36740 WT2  4686 TIP3 OH2  OT    -0.834000       15.9994           0
   36741 WT2  4686 TIP3 H1   HT     0.417000        1.0080           0
   36742 WT2  4686 TIP3 H2   HT     0.417000        1.0080           0
   36743 WT2  4688 TIP3 OH2  OT    -0.834000       15.9994           0
   36744 WT2  4688 TIP3 H1   HT     0.417000        1.0080           0
   36745 WT2  4688 TIP3 H2   HT     0.417000        1.0080           0
   36746 WT2  4689 TIP3 OH2  OT    -0.834000       15.9994           0
   36747 WT2  4689 TIP3 H1   HT     0.417000        1.0080           0
   36748 WT2  4689 TIP3 H2   HT     0.417000        1.0080           0
   36749 WT2  4690 TIP3 OH2  OT    -0.834000       15.9994           0
   36750 WT2  4690 TIP3 H1   HT     0.417000        1.0080           0
   36751 WT2  4690 TIP3 H2   HT     0.417000        1.0080           0
   36752 WT2  4691 TIP3 OH2  OT    -0.834000       15.9994           0
   36753 WT2  4691 TIP3 H1   HT     0.417000        1.0080           0
   36754 WT2  4691 TIP3 H2   HT     0.417000        1.0080           0
   36755 WT2  4692 TIP3 OH2  OT    -0.834000       15.9994           0
   36756 WT2  4692 TIP3 H1   HT     0.417000        1.0080           0
   36757 WT2  4692 TIP3 H2   HT     0.417000        1.0080           0
   36758 WT2  4693 TIP3 OH2  OT    -0.834000       15.9994           0
   36759 WT2  4693 TIP3 H1   HT     0.417000        1.0080           0
   36760 WT2  4693 TIP3 H2   HT     0.417000        1.0080           0
   36761 WT2  4694 TIP3 OH2  OT    -0.834000       15.9994           0
   36762 WT2  4694 TIP3 H1   HT     0.417000        1.0080           0
   36763 WT2  4694 TIP3 H2   HT     0.417000        1.0080           0
   36764 WT2  4695 TIP3 OH2  OT    -0.834000       15.9994           0
   36765 WT2  4695 TIP3 H1   HT     0.417000        1.0080           0
   36766 WT2  4695 TIP3 H2   HT     0.417000        1.0080           0
   36767 WT2  4696 TIP3 OH2  OT    -0.834000       15.9994           0
   36768 WT2  4696 TIP3 H1   HT     0.417000        1.0080           0
   36769 WT2  4696 TIP3 H2   HT     0.417000        1.0080           0
   36770 WT2  4697 TIP3 OH2  OT    -0.834000       15.9994           0
   36771 WT2  4697 TIP3 H1   HT     0.417000        1.0080           0
   36772 WT2  4697 TIP3 H2   HT     0.417000        1.0080           0
   36773 WT2  4699 TIP3 OH2  OT    -0.834000       15.9994           0
   36774 WT2  4699 TIP3 H1   HT     0.417000        1.0080           0
   36775 WT2  4699 TIP3 H2   HT     0.417000        1.0080           0
   36776 WT2  4700 TIP3 OH2  OT    -0.834000       15.9994           0
   36777 WT2  4700 TIP3 H1   HT     0.417000        1.0080           0
   36778 WT2  4700 TIP3 H2   HT     0.417000        1.0080           0
   36779 WT2  4701 TIP3 OH2  OT    -0.834000       15.9994           0
   36780 WT2  4701 TIP3 H1   HT     0.417000        1.0080           0
   36781 WT2  4701 TIP3 H2   HT     0.417000        1.0080           0
   36782 WT2  4703 TIP3 OH2  OT    -0.834000       15.9994           0
   36783 WT2  4703 TIP3 H1   HT     0.417000        1.0080           0
   36784 WT2  4703 TIP3 H2   HT     0.417000        1.0080           0
   36785 WT2  4704 TIP3 OH2  OT    -0.834000       15.9994           0
   36786 WT2  4704 TIP3 H1   HT     0.417000        1.0080           0
   36787 WT2  4704 TIP3 H2   HT     0.417000        1.0080           0
   36788 WT2  4705 TIP3 OH2  OT    -0.834000       15.9994           0
   36789 WT2  4705 TIP3 H1   HT     0.417000        1.0080           0
   36790 WT2  4705 TIP3 H2   HT     0.417000        1.0080           0
   36791 WT2  4706 TIP3 OH2  OT    -0.834000       15.9994           0
   36792 WT2  4706 TIP3 H1   HT     0.417000        1.0080           0
   36793 WT2  4706 TIP3 H2   HT     0.417000        1.0080           0
   36794 WT2  4707 TIP3 OH2  OT    -0.834000       15.9994           0
   36795 WT2  4707 TIP3 H1   HT     0.417000        1.0080           0
   36796 WT2  4707 TIP3 H2   HT     0.417000        1.0080           0
   36797 WT2  4709 TIP3 OH2  OT    -0.834000       15.9994           0
   36798 WT2  4709 TIP3 H1   HT     0.417000        1.0080           0
   36799 WT2  4709 TIP3 H2   HT     0.417000        1.0080           0
   36800 WT2  4711 TIP3 OH2  OT    -0.834000       15.9994           0
   36801 WT2  4711 TIP3 H1   HT     0.417000        1.0080           0
   36802 WT2  4711 TIP3 H2   HT     0.417000        1.0080           0
   36803 WT2  4712 TIP3 OH2  OT    -0.834000       15.9994           0
   36804 WT2  4712 TIP3 H1   HT     0.417000        1.0080           0
   36805 WT2  4712 TIP3 H2   HT     0.417000        1.0080           0
   36806 WT2  4713 TIP3 OH2  OT    -0.834000       15.9994           0
   36807 WT2  4713 TIP3 H1   HT     0.417000        1.0080           0
   36808 WT2  4713 TIP3 H2   HT     0.417000        1.0080           0
   36809 WT2  4714 TIP3 OH2  OT    -0.834000       15.9994           0
   36810 WT2  4714 TIP3 H1   HT     0.417000        1.0080           0
   36811 WT2  4714 TIP3 H2   HT     0.417000        1.0080           0
   36812 WT2  4715 TIP3 OH2  OT    -0.834000       15.9994           0
   36813 WT2  4715 TIP3 H1   HT     0.417000        1.0080           0
   36814 WT2  4715 TIP3 H2   HT     0.417000        1.0080           0
   36815 WT2  4716 TIP3 OH2  OT    -0.834000       15.9994           0
   36816 WT2  4716 TIP3 H1   HT     0.417000        1.0080           0
   36817 WT2  4716 TIP3 H2   HT     0.417000        1.0080           0
   36818 WT2  4717 TIP3 OH2  OT    -0.834000       15.9994           0
   36819 WT2  4717 TIP3 H1   HT     0.417000        1.0080           0
   36820 WT2  4717 TIP3 H2   HT     0.417000        1.0080           0
   36821 WT2  4718 TIP3 OH2  OT    -0.834000       15.9994           0
   36822 WT2  4718 TIP3 H1   HT     0.417000        1.0080           0
   36823 WT2  4718 TIP3 H2   HT     0.417000        1.0080           0
   36824 WT2  4719 TIP3 OH2  OT    -0.834000       15.9994           0
   36825 WT2  4719 TIP3 H1   HT     0.417000        1.0080           0
   36826 WT2  4719 TIP3 H2   HT     0.417000        1.0080           0
   36827 WT2  4720 TIP3 OH2  OT    -0.834000       15.9994           0
   36828 WT2  4720 TIP3 H1   HT     0.417000        1.0080           0
   36829 WT2  4720 TIP3 H2   HT     0.417000        1.0080           0
   36830 WT2  4721 TIP3 OH2  OT    -0.834000       15.9994           0
   36831 WT2  4721 TIP3 H1   HT     0.417000        1.0080           0
   36832 WT2  4721 TIP3 H2   HT     0.417000        1.0080           0
   36833 WT2  4722 TIP3 OH2  OT    -0.834000       15.9994           0
   36834 WT2  4722 TIP3 H1   HT     0.417000        1.0080           0
   36835 WT2  4722 TIP3 H2   HT     0.417000        1.0080           0
   36836 WT2  4726 TIP3 OH2  OT    -0.834000       15.9994           0
   36837 WT2  4726 TIP3 H1   HT     0.417000        1.0080           0
   36838 WT2  4726 TIP3 H2   HT     0.417000        1.0080           0
   36839 WT2  4727 TIP3 OH2  OT    -0.834000       15.9994           0
   36840 WT2  4727 TIP3 H1   HT     0.417000        1.0080           0
   36841 WT2  4727 TIP3 H2   HT     0.417000        1.0080           0
   36842 WT2  4728 TIP3 OH2  OT    -0.834000       15.9994           0
   36843 WT2  4728 TIP3 H1   HT     0.417000        1.0080           0
   36844 WT2  4728 TIP3 H2   HT     0.417000        1.0080           0
   36845 WT2  4729 TIP3 OH2  OT    -0.834000       15.9994           0
   36846 WT2  4729 TIP3 H1   HT     0.417000        1.0080           0
   36847 WT2  4729 TIP3 H2   HT     0.417000        1.0080           0
   36848 WT2  4730 TIP3 OH2  OT    -0.834000       15.9994           0
   36849 WT2  4730 TIP3 H1   HT     0.417000        1.0080           0
   36850 WT2  4730 TIP3 H2   HT     0.417000        1.0080           0
   36851 WT2  4731 TIP3 OH2  OT    -0.834000       15.9994           0
   36852 WT2  4731 TIP3 H1   HT     0.417000        1.0080           0
   36853 WT2  4731 TIP3 H2   HT     0.417000        1.0080           0
   36854 WT2  4733 TIP3 OH2  OT    -0.834000       15.9994           0
   36855 WT2  4733 TIP3 H1   HT     0.417000        1.0080           0
   36856 WT2  4733 TIP3 H2   HT     0.417000        1.0080           0
   36857 WT2  4734 TIP3 OH2  OT    -0.834000       15.9994           0
   36858 WT2  4734 TIP3 H1   HT     0.417000        1.0080           0
   36859 WT2  4734 TIP3 H2   HT     0.417000        1.0080           0
   36860 WT2  4735 TIP3 OH2  OT    -0.834000       15.9994           0
   36861 WT2  4735 TIP3 H1   HT     0.417000        1.0080           0
   36862 WT2  4735 TIP3 H2   HT     0.417000        1.0080           0
   36863 WT2  4736 TIP3 OH2  OT    -0.834000       15.9994           0
   36864 WT2  4736 TIP3 H1   HT     0.417000        1.0080           0
   36865 WT2  4736 TIP3 H2   HT     0.417000        1.0080           0
   36866 WT2  4737 TIP3 OH2  OT    -0.834000       15.9994           0
   36867 WT2  4737 TIP3 H1   HT     0.417000        1.0080           0
   36868 WT2  4737 TIP3 H2   HT     0.417000        1.0080           0
   36869 WT2  4738 TIP3 OH2  OT    -0.834000       15.9994           0
   36870 WT2  4738 TIP3 H1   HT     0.417000        1.0080           0
   36871 WT2  4738 TIP3 H2   HT     0.417000        1.0080           0
   36872 WT2  4739 TIP3 OH2  OT    -0.834000       15.9994           0
   36873 WT2  4739 TIP3 H1   HT     0.417000        1.0080           0
   36874 WT2  4739 TIP3 H2   HT     0.417000        1.0080           0
   36875 WT2  4740 TIP3 OH2  OT    -0.834000       15.9994           0
   36876 WT2  4740 TIP3 H1   HT     0.417000        1.0080           0
   36877 WT2  4740 TIP3 H2   HT     0.417000        1.0080           0
   36878 WT2  4741 TIP3 OH2  OT    -0.834000       15.9994           0
   36879 WT2  4741 TIP3 H1   HT     0.417000        1.0080           0
   36880 WT2  4741 TIP3 H2   HT     0.417000        1.0080           0
   36881 WT2  4742 TIP3 OH2  OT    -0.834000       15.9994           0
   36882 WT2  4742 TIP3 H1   HT     0.417000        1.0080           0
   36883 WT2  4742 TIP3 H2   HT     0.417000        1.0080           0
   36884 WT2  4743 TIP3 OH2  OT    -0.834000       15.9994           0
   36885 WT2  4743 TIP3 H1   HT     0.417000        1.0080           0
   36886 WT2  4743 TIP3 H2   HT     0.417000        1.0080           0
   36887 WT2  4744 TIP3 OH2  OT    -0.834000       15.9994           0
   36888 WT2  4744 TIP3 H1   HT     0.417000        1.0080           0
   36889 WT2  4744 TIP3 H2   HT     0.417000        1.0080           0
   36890 WT2  4745 TIP3 OH2  OT    -0.834000       15.9994           0
   36891 WT2  4745 TIP3 H1   HT     0.417000        1.0080           0
   36892 WT2  4745 TIP3 H2   HT     0.417000        1.0080           0
   36893 WT2  4746 TIP3 OH2  OT    -0.834000       15.9994           0
   36894 WT2  4746 TIP3 H1   HT     0.417000        1.0080           0
   36895 WT2  4746 TIP3 H2   HT     0.417000        1.0080           0
   36896 WT2  4747 TIP3 OH2  OT    -0.834000       15.9994           0
   36897 WT2  4747 TIP3 H1   HT     0.417000        1.0080           0
   36898 WT2  4747 TIP3 H2   HT     0.417000        1.0080           0
   36899 WT2  4748 TIP3 OH2  OT    -0.834000       15.9994           0
   36900 WT2  4748 TIP3 H1   HT     0.417000        1.0080           0
   36901 WT2  4748 TIP3 H2   HT     0.417000        1.0080           0
   36902 WT2  4749 TIP3 OH2  OT    -0.834000       15.9994           0
   36903 WT2  4749 TIP3 H1   HT     0.417000        1.0080           0
   36904 WT2  4749 TIP3 H2   HT     0.417000        1.0080           0
   36905 WT2  4750 TIP3 OH2  OT    -0.834000       15.9994           0
   36906 WT2  4750 TIP3 H1   HT     0.417000        1.0080           0
   36907 WT2  4750 TIP3 H2   HT     0.417000        1.0080           0
   36908 WT2  4751 TIP3 OH2  OT    -0.834000       15.9994           0
   36909 WT2  4751 TIP3 H1   HT     0.417000        1.0080           0
   36910 WT2  4751 TIP3 H2   HT     0.417000        1.0080           0
   36911 WT2  4752 TIP3 OH2  OT    -0.834000       15.9994           0
   36912 WT2  4752 TIP3 H1   HT     0.417000        1.0080           0
   36913 WT2  4752 TIP3 H2   HT     0.417000        1.0080           0
   36914 WT2  4753 TIP3 OH2  OT    -0.834000       15.9994           0
   36915 WT2  4753 TIP3 H1   HT     0.417000        1.0080           0
   36916 WT2  4753 TIP3 H2   HT     0.417000        1.0080           0
   36917 WT2  4754 TIP3 OH2  OT    -0.834000       15.9994           0
   36918 WT2  4754 TIP3 H1   HT     0.417000        1.0080           0
   36919 WT2  4754 TIP3 H2   HT     0.417000        1.0080           0
   36920 WT2  4755 TIP3 OH2  OT    -0.834000       15.9994           0
   36921 WT2  4755 TIP3 H1   HT     0.417000        1.0080           0
   36922 WT2  4755 TIP3 H2   HT     0.417000        1.0080           0
   36923 WT2  4756 TIP3 OH2  OT    -0.834000       15.9994           0
   36924 WT2  4756 TIP3 H1   HT     0.417000        1.0080           0
   36925 WT2  4756 TIP3 H2   HT     0.417000        1.0080           0
   36926 WT2  4757 TIP3 OH2  OT    -0.834000       15.9994           0
   36927 WT2  4757 TIP3 H1   HT     0.417000        1.0080           0
   36928 WT2  4757 TIP3 H2   HT     0.417000        1.0080           0
   36929 WT2  4758 TIP3 OH2  OT    -0.834000       15.9994           0
   36930 WT2  4758 TIP3 H1   HT     0.417000        1.0080           0
   36931 WT2  4758 TIP3 H2   HT     0.417000        1.0080           0
   36932 WT2  4759 TIP3 OH2  OT    -0.834000       15.9994           0
   36933 WT2  4759 TIP3 H1   HT     0.417000        1.0080           0
   36934 WT2  4759 TIP3 H2   HT     0.417000        1.0080           0
   36935 WT2  4760 TIP3 OH2  OT    -0.834000       15.9994           0
   36936 WT2  4760 TIP3 H1   HT     0.417000        1.0080           0
   36937 WT2  4760 TIP3 H2   HT     0.417000        1.0080           0
   36938 WT2  4761 TIP3 OH2  OT    -0.834000       15.9994           0
   36939 WT2  4761 TIP3 H1   HT     0.417000        1.0080           0
   36940 WT2  4761 TIP3 H2   HT     0.417000        1.0080           0
   36941 WT2  4762 TIP3 OH2  OT    -0.834000       15.9994           0
   36942 WT2  4762 TIP3 H1   HT     0.417000        1.0080           0
   36943 WT2  4762 TIP3 H2   HT     0.417000        1.0080           0
   36944 WT2  4763 TIP3 OH2  OT    -0.834000       15.9994           0
   36945 WT2  4763 TIP3 H1   HT     0.417000        1.0080           0
   36946 WT2  4763 TIP3 H2   HT     0.417000        1.0080           0
   36947 WT2  4765 TIP3 OH2  OT    -0.834000       15.9994           0
   36948 WT2  4765 TIP3 H1   HT     0.417000        1.0080           0
   36949 WT2  4765 TIP3 H2   HT     0.417000        1.0080           0
   36950 WT2  4766 TIP3 OH2  OT    -0.834000       15.9994           0
   36951 WT2  4766 TIP3 H1   HT     0.417000        1.0080           0
   36952 WT2  4766 TIP3 H2   HT     0.417000        1.0080           0
   36953 WT2  4767 TIP3 OH2  OT    -0.834000       15.9994           0
   36954 WT2  4767 TIP3 H1   HT     0.417000        1.0080           0
   36955 WT2  4767 TIP3 H2   HT     0.417000        1.0080           0
   36956 WT2  4768 TIP3 OH2  OT    -0.834000       15.9994           0
   36957 WT2  4768 TIP3 H1   HT     0.417000        1.0080           0
   36958 WT2  4768 TIP3 H2   HT     0.417000        1.0080           0
   36959 WT2  4769 TIP3 OH2  OT    -0.834000       15.9994           0
   36960 WT2  4769 TIP3 H1   HT     0.417000        1.0080           0
   36961 WT2  4769 TIP3 H2   HT     0.417000        1.0080           0
   36962 WT2  4770 TIP3 OH2  OT    -0.834000       15.9994           0
   36963 WT2  4770 TIP3 H1   HT     0.417000        1.0080           0
   36964 WT2  4770 TIP3 H2   HT     0.417000        1.0080           0
   36965 WT2  4771 TIP3 OH2  OT    -0.834000       15.9994           0
   36966 WT2  4771 TIP3 H1   HT     0.417000        1.0080           0
   36967 WT2  4771 TIP3 H2   HT     0.417000        1.0080           0
   36968 WT2  4772 TIP3 OH2  OT    -0.834000       15.9994           0
   36969 WT2  4772 TIP3 H1   HT     0.417000        1.0080           0
   36970 WT2  4772 TIP3 H2   HT     0.417000        1.0080           0
   36971 WT2  4774 TIP3 OH2  OT    -0.834000       15.9994           0
   36972 WT2  4774 TIP3 H1   HT     0.417000        1.0080           0
   36973 WT2  4774 TIP3 H2   HT     0.417000        1.0080           0
   36974 WT2  4775 TIP3 OH2  OT    -0.834000       15.9994           0
   36975 WT2  4775 TIP3 H1   HT     0.417000        1.0080           0
   36976 WT2  4775 TIP3 H2   HT     0.417000        1.0080           0
   36977 WT2  4776 TIP3 OH2  OT    -0.834000       15.9994           0
   36978 WT2  4776 TIP3 H1   HT     0.417000        1.0080           0
   36979 WT2  4776 TIP3 H2   HT     0.417000        1.0080           0
   36980 WT2  4777 TIP3 OH2  OT    -0.834000       15.9994           0
   36981 WT2  4777 TIP3 H1   HT     0.417000        1.0080           0
   36982 WT2  4777 TIP3 H2   HT     0.417000        1.0080           0
   36983 WT2  4779 TIP3 OH2  OT    -0.834000       15.9994           0
   36984 WT2  4779 TIP3 H1   HT     0.417000        1.0080           0
   36985 WT2  4779 TIP3 H2   HT     0.417000        1.0080           0
   36986 WT2  4780 TIP3 OH2  OT    -0.834000       15.9994           0
   36987 WT2  4780 TIP3 H1   HT     0.417000        1.0080           0
   36988 WT2  4780 TIP3 H2   HT     0.417000        1.0080           0
   36989 WT2  4781 TIP3 OH2  OT    -0.834000       15.9994           0
   36990 WT2  4781 TIP3 H1   HT     0.417000        1.0080           0
   36991 WT2  4781 TIP3 H2   HT     0.417000        1.0080           0
   36992 WT2  4782 TIP3 OH2  OT    -0.834000       15.9994           0
   36993 WT2  4782 TIP3 H1   HT     0.417000        1.0080           0
   36994 WT2  4782 TIP3 H2   HT     0.417000        1.0080           0
   36995 WT2  4783 TIP3 OH2  OT    -0.834000       15.9994           0
   36996 WT2  4783 TIP3 H1   HT     0.417000        1.0080           0
   36997 WT2  4783 TIP3 H2   HT     0.417000        1.0080           0
   36998 WT2  4784 TIP3 OH2  OT    -0.834000       15.9994           0
   36999 WT2  4784 TIP3 H1   HT     0.417000        1.0080           0
   37000 WT2  4784 TIP3 H2   HT     0.417000        1.0080           0
   37001 WT2  4785 TIP3 OH2  OT    -0.834000       15.9994           0
   37002 WT2  4785 TIP3 H1   HT     0.417000        1.0080           0
   37003 WT2  4785 TIP3 H2   HT     0.417000        1.0080           0
   37004 WT2  4786 TIP3 OH2  OT    -0.834000       15.9994           0
   37005 WT2  4786 TIP3 H1   HT     0.417000        1.0080           0
   37006 WT2  4786 TIP3 H2   HT     0.417000        1.0080           0
   37007 WT2  4788 TIP3 OH2  OT    -0.834000       15.9994           0
   37008 WT2  4788 TIP3 H1   HT     0.417000        1.0080           0
   37009 WT2  4788 TIP3 H2   HT     0.417000        1.0080           0
   37010 WT2  4789 TIP3 OH2  OT    -0.834000       15.9994           0
   37011 WT2  4789 TIP3 H1   HT     0.417000        1.0080           0
   37012 WT2  4789 TIP3 H2   HT     0.417000        1.0080           0
   37013 WT2  4790 TIP3 OH2  OT    -0.834000       15.9994           0
   37014 WT2  4790 TIP3 H1   HT     0.417000        1.0080           0
   37015 WT2  4790 TIP3 H2   HT     0.417000        1.0080           0
   37016 WT2  4791 TIP3 OH2  OT    -0.834000       15.9994           0
   37017 WT2  4791 TIP3 H1   HT     0.417000        1.0080           0
   37018 WT2  4791 TIP3 H2   HT     0.417000        1.0080           0
   37019 WT2  4792 TIP3 OH2  OT    -0.834000       15.9994           0
   37020 WT2  4792 TIP3 H1   HT     0.417000        1.0080           0
   37021 WT2  4792 TIP3 H2   HT     0.417000        1.0080           0
   37022 WT2  4793 TIP3 OH2  OT    -0.834000       15.9994           0
   37023 WT2  4793 TIP3 H1   HT     0.417000        1.0080           0
   37024 WT2  4793 TIP3 H2   HT     0.417000        1.0080           0
   37025 WT2  4794 TIP3 OH2  OT    -0.834000       15.9994           0
   37026 WT2  4794 TIP3 H1   HT     0.417000        1.0080           0
   37027 WT2  4794 TIP3 H2   HT     0.417000        1.0080           0
   37028 WT2  4795 TIP3 OH2  OT    -0.834000       15.9994           0
   37029 WT2  4795 TIP3 H1   HT     0.417000        1.0080           0
   37030 WT2  4795 TIP3 H2   HT     0.417000        1.0080           0
   37031 WT2  4796 TIP3 OH2  OT    -0.834000       15.9994           0
   37032 WT2  4796 TIP3 H1   HT     0.417000        1.0080           0
   37033 WT2  4796 TIP3 H2   HT     0.417000        1.0080           0
   37034 WT2  4797 TIP3 OH2  OT    -0.834000       15.9994           0
   37035 WT2  4797 TIP3 H1   HT     0.417000        1.0080           0
   37036 WT2  4797 TIP3 H2   HT     0.417000        1.0080           0
   37037 WT2  4798 TIP3 OH2  OT    -0.834000       15.9994           0
   37038 WT2  4798 TIP3 H1   HT     0.417000        1.0080           0
   37039 WT2  4798 TIP3 H2   HT     0.417000        1.0080           0
   37040 WT2  4799 TIP3 OH2  OT    -0.834000       15.9994           0
   37041 WT2  4799 TIP3 H1   HT     0.417000        1.0080           0
   37042 WT2  4799 TIP3 H2   HT     0.417000        1.0080           0
   37043 WT2  4800 TIP3 OH2  OT    -0.834000       15.9994           0
   37044 WT2  4800 TIP3 H1   HT     0.417000        1.0080           0
   37045 WT2  4800 TIP3 H2   HT     0.417000        1.0080           0
   37046 WT2  4801 TIP3 OH2  OT    -0.834000       15.9994           0
   37047 WT2  4801 TIP3 H1   HT     0.417000        1.0080           0
   37048 WT2  4801 TIP3 H2   HT     0.417000        1.0080           0
   37049 WT2  4802 TIP3 OH2  OT    -0.834000       15.9994           0
   37050 WT2  4802 TIP3 H1   HT     0.417000        1.0080           0
   37051 WT2  4802 TIP3 H2   HT     0.417000        1.0080           0
   37052 WT2  4803 TIP3 OH2  OT    -0.834000       15.9994           0
   37053 WT2  4803 TIP3 H1   HT     0.417000        1.0080           0
   37054 WT2  4803 TIP3 H2   HT     0.417000        1.0080           0
   37055 WT2  4804 TIP3 OH2  OT    -0.834000       15.9994           0
   37056 WT2  4804 TIP3 H1   HT     0.417000        1.0080           0
   37057 WT2  4804 TIP3 H2   HT     0.417000        1.0080           0
   37058 WT2  4805 TIP3 OH2  OT    -0.834000       15.9994           0
   37059 WT2  4805 TIP3 H1   HT     0.417000        1.0080           0
   37060 WT2  4805 TIP3 H2   HT     0.417000        1.0080           0
   37061 WT2  4806 TIP3 OH2  OT    -0.834000       15.9994           0
   37062 WT2  4806 TIP3 H1   HT     0.417000        1.0080           0
   37063 WT2  4806 TIP3 H2   HT     0.417000        1.0080           0
   37064 WT2  4807 TIP3 OH2  OT    -0.834000       15.9994           0
   37065 WT2  4807 TIP3 H1   HT     0.417000        1.0080           0
   37066 WT2  4807 TIP3 H2   HT     0.417000        1.0080           0
   37067 WT2  4808 TIP3 OH2  OT    -0.834000       15.9994           0
   37068 WT2  4808 TIP3 H1   HT     0.417000        1.0080           0
   37069 WT2  4808 TIP3 H2   HT     0.417000        1.0080           0
   37070 WT2  4809 TIP3 OH2  OT    -0.834000       15.9994           0
   37071 WT2  4809 TIP3 H1   HT     0.417000        1.0080           0
   37072 WT2  4809 TIP3 H2   HT     0.417000        1.0080           0
   37073 WT2  4810 TIP3 OH2  OT    -0.834000       15.9994           0
   37074 WT2  4810 TIP3 H1   HT     0.417000        1.0080           0
   37075 WT2  4810 TIP3 H2   HT     0.417000        1.0080           0
   37076 WT2  4811 TIP3 OH2  OT    -0.834000       15.9994           0
   37077 WT2  4811 TIP3 H1   HT     0.417000        1.0080           0
   37078 WT2  4811 TIP3 H2   HT     0.417000        1.0080           0
   37079 WT2  4812 TIP3 OH2  OT    -0.834000       15.9994           0
   37080 WT2  4812 TIP3 H1   HT     0.417000        1.0080           0
   37081 WT2  4812 TIP3 H2   HT     0.417000        1.0080           0
   37082 WT2  4813 TIP3 OH2  OT    -0.834000       15.9994           0
   37083 WT2  4813 TIP3 H1   HT     0.417000        1.0080           0
   37084 WT2  4813 TIP3 H2   HT     0.417000        1.0080           0
   37085 WT2  4814 TIP3 OH2  OT    -0.834000       15.9994           0
   37086 WT2  4814 TIP3 H1   HT     0.417000        1.0080           0
   37087 WT2  4814 TIP3 H2   HT     0.417000        1.0080           0
   37088 WT2  4815 TIP3 OH2  OT    -0.834000       15.9994           0
   37089 WT2  4815 TIP3 H1   HT     0.417000        1.0080           0
   37090 WT2  4815 TIP3 H2   HT     0.417000        1.0080           0
   37091 WT2  4816 TIP3 OH2  OT    -0.834000       15.9994           0
   37092 WT2  4816 TIP3 H1   HT     0.417000        1.0080           0
   37093 WT2  4816 TIP3 H2   HT     0.417000        1.0080           0
   37094 WT2  4817 TIP3 OH2  OT    -0.834000       15.9994           0
   37095 WT2  4817 TIP3 H1   HT     0.417000        1.0080           0
   37096 WT2  4817 TIP3 H2   HT     0.417000        1.0080           0
   37097 WT2  4819 TIP3 OH2  OT    -0.834000       15.9994           0
   37098 WT2  4819 TIP3 H1   HT     0.417000        1.0080           0
   37099 WT2  4819 TIP3 H2   HT     0.417000        1.0080           0
   37100 WT2  4820 TIP3 OH2  OT    -0.834000       15.9994           0
   37101 WT2  4820 TIP3 H1   HT     0.417000        1.0080           0
   37102 WT2  4820 TIP3 H2   HT     0.417000        1.0080           0
   37103 WT2  4823 TIP3 OH2  OT    -0.834000       15.9994           0
   37104 WT2  4823 TIP3 H1   HT     0.417000        1.0080           0
   37105 WT2  4823 TIP3 H2   HT     0.417000        1.0080           0
   37106 WT2  4825 TIP3 OH2  OT    -0.834000       15.9994           0
   37107 WT2  4825 TIP3 H1   HT     0.417000        1.0080           0
   37108 WT2  4825 TIP3 H2   HT     0.417000        1.0080           0
   37109 WT2  4826 TIP3 OH2  OT    -0.834000       15.9994           0
   37110 WT2  4826 TIP3 H1   HT     0.417000        1.0080           0
   37111 WT2  4826 TIP3 H2   HT     0.417000        1.0080           0
   37112 WT2  4827 TIP3 OH2  OT    -0.834000       15.9994           0
   37113 WT2  4827 TIP3 H1   HT     0.417000        1.0080           0
   37114 WT2  4827 TIP3 H2   HT     0.417000        1.0080           0
   37115 WT2  4828 TIP3 OH2  OT    -0.834000       15.9994           0
   37116 WT2  4828 TIP3 H1   HT     0.417000        1.0080           0
   37117 WT2  4828 TIP3 H2   HT     0.417000        1.0080           0
   37118 WT2  4829 TIP3 OH2  OT    -0.834000       15.9994           0
   37119 WT2  4829 TIP3 H1   HT     0.417000        1.0080           0
   37120 WT2  4829 TIP3 H2   HT     0.417000        1.0080           0
   37121 WT2  4830 TIP3 OH2  OT    -0.834000       15.9994           0
   37122 WT2  4830 TIP3 H1   HT     0.417000        1.0080           0
   37123 WT2  4830 TIP3 H2   HT     0.417000        1.0080           0
   37124 WT2  4831 TIP3 OH2  OT    -0.834000       15.9994           0
   37125 WT2  4831 TIP3 H1   HT     0.417000        1.0080           0
   37126 WT2  4831 TIP3 H2   HT     0.417000        1.0080           0
   37127 WT2  4832 TIP3 OH2  OT    -0.834000       15.9994           0
   37128 WT2  4832 TIP3 H1   HT     0.417000        1.0080           0
   37129 WT2  4832 TIP3 H2   HT     0.417000        1.0080           0
   37130 WT2  4833 TIP3 OH2  OT    -0.834000       15.9994           0
   37131 WT2  4833 TIP3 H1   HT     0.417000        1.0080           0
   37132 WT2  4833 TIP3 H2   HT     0.417000        1.0080           0
   37133 WT2  4834 TIP3 OH2  OT    -0.834000       15.9994           0
   37134 WT2  4834 TIP3 H1   HT     0.417000        1.0080           0
   37135 WT2  4834 TIP3 H2   HT     0.417000        1.0080           0
   37136 WT2  4835 TIP3 OH2  OT    -0.834000       15.9994           0
   37137 WT2  4835 TIP3 H1   HT     0.417000        1.0080           0
   37138 WT2  4835 TIP3 H2   HT     0.417000        1.0080           0
   37139 WT2  4837 TIP3 OH2  OT    -0.834000       15.9994           0
   37140 WT2  4837 TIP3 H1   HT     0.417000        1.0080           0
   37141 WT2  4837 TIP3 H2   HT     0.417000        1.0080           0
   37142 WT2  4838 TIP3 OH2  OT    -0.834000       15.9994           0
   37143 WT2  4838 TIP3 H1   HT     0.417000        1.0080           0
   37144 WT2  4838 TIP3 H2   HT     0.417000        1.0080           0
   37145 WT2  4839 TIP3 OH2  OT    -0.834000       15.9994           0
   37146 WT2  4839 TIP3 H1   HT     0.417000        1.0080           0
   37147 WT2  4839 TIP3 H2   HT     0.417000        1.0080           0
   37148 WT2  4840 TIP3 OH2  OT    -0.834000       15.9994           0
   37149 WT2  4840 TIP3 H1   HT     0.417000        1.0080           0
   37150 WT2  4840 TIP3 H2   HT     0.417000        1.0080           0
   37151 WT2  4841 TIP3 OH2  OT    -0.834000       15.9994           0
   37152 WT2  4841 TIP3 H1   HT     0.417000        1.0080           0
   37153 WT2  4841 TIP3 H2   HT     0.417000        1.0080           0
   37154 WT2  4842 TIP3 OH2  OT    -0.834000       15.9994           0
   37155 WT2  4842 TIP3 H1   HT     0.417000        1.0080           0
   37156 WT2  4842 TIP3 H2   HT     0.417000        1.0080           0
   37157 WT2  4843 TIP3 OH2  OT    -0.834000       15.9994           0
   37158 WT2  4843 TIP3 H1   HT     0.417000        1.0080           0
   37159 WT2  4843 TIP3 H2   HT     0.417000        1.0080           0
   37160 WT2  4844 TIP3 OH2  OT    -0.834000       15.9994           0
   37161 WT2  4844 TIP3 H1   HT     0.417000        1.0080           0
   37162 WT2  4844 TIP3 H2   HT     0.417000        1.0080           0
   37163 WT2  4845 TIP3 OH2  OT    -0.834000       15.9994           0
   37164 WT2  4845 TIP3 H1   HT     0.417000        1.0080           0
   37165 WT2  4845 TIP3 H2   HT     0.417000        1.0080           0
   37166 WT2  4846 TIP3 OH2  OT    -0.834000       15.9994           0
   37167 WT2  4846 TIP3 H1   HT     0.417000        1.0080           0
   37168 WT2  4846 TIP3 H2   HT     0.417000        1.0080           0
   37169 WT2  4847 TIP3 OH2  OT    -0.834000       15.9994           0
   37170 WT2  4847 TIP3 H1   HT     0.417000        1.0080           0
   37171 WT2  4847 TIP3 H2   HT     0.417000        1.0080           0
   37172 WT2  4848 TIP3 OH2  OT    -0.834000       15.9994           0
   37173 WT2  4848 TIP3 H1   HT     0.417000        1.0080           0
   37174 WT2  4848 TIP3 H2   HT     0.417000        1.0080           0
   37175 WT2  4849 TIP3 OH2  OT    -0.834000       15.9994           0
   37176 WT2  4849 TIP3 H1   HT     0.417000        1.0080           0
   37177 WT2  4849 TIP3 H2   HT     0.417000        1.0080           0
   37178 WT2  4850 TIP3 OH2  OT    -0.834000       15.9994           0
   37179 WT2  4850 TIP3 H1   HT     0.417000        1.0080           0
   37180 WT2  4850 TIP3 H2   HT     0.417000        1.0080           0
   37181 WT2  4851 TIP3 OH2  OT    -0.834000       15.9994           0
   37182 WT2  4851 TIP3 H1   HT     0.417000        1.0080           0
   37183 WT2  4851 TIP3 H2   HT     0.417000        1.0080           0
   37184 WT2  4852 TIP3 OH2  OT    -0.834000       15.9994           0
   37185 WT2  4852 TIP3 H1   HT     0.417000        1.0080           0
   37186 WT2  4852 TIP3 H2   HT     0.417000        1.0080           0
   37187 WT2  4853 TIP3 OH2  OT    -0.834000       15.9994           0
   37188 WT2  4853 TIP3 H1   HT     0.417000        1.0080           0
   37189 WT2  4853 TIP3 H2   HT     0.417000        1.0080           0
   37190 WT2  4855 TIP3 OH2  OT    -0.834000       15.9994           0
   37191 WT2  4855 TIP3 H1   HT     0.417000        1.0080           0
   37192 WT2  4855 TIP3 H2   HT     0.417000        1.0080           0
   37193 WT2  4856 TIP3 OH2  OT    -0.834000       15.9994           0
   37194 WT2  4856 TIP3 H1   HT     0.417000        1.0080           0
   37195 WT2  4856 TIP3 H2   HT     0.417000        1.0080           0
   37196 WT2  4857 TIP3 OH2  OT    -0.834000       15.9994           0
   37197 WT2  4857 TIP3 H1   HT     0.417000        1.0080           0
   37198 WT2  4857 TIP3 H2   HT     0.417000        1.0080           0
   37199 WT2  4858 TIP3 OH2  OT    -0.834000       15.9994           0
   37200 WT2  4858 TIP3 H1   HT     0.417000        1.0080           0
   37201 WT2  4858 TIP3 H2   HT     0.417000        1.0080           0
   37202 WT2  4859 TIP3 OH2  OT    -0.834000       15.9994           0
   37203 WT2  4859 TIP3 H1   HT     0.417000        1.0080           0
   37204 WT2  4859 TIP3 H2   HT     0.417000        1.0080           0
   37205 WT2  4860 TIP3 OH2  OT    -0.834000       15.9994           0
   37206 WT2  4860 TIP3 H1   HT     0.417000        1.0080           0
   37207 WT2  4860 TIP3 H2   HT     0.417000        1.0080           0
   37208 WT2  4861 TIP3 OH2  OT    -0.834000       15.9994           0
   37209 WT2  4861 TIP3 H1   HT     0.417000        1.0080           0
   37210 WT2  4861 TIP3 H2   HT     0.417000        1.0080           0
   37211 WT2  4862 TIP3 OH2  OT    -0.834000       15.9994           0
   37212 WT2  4862 TIP3 H1   HT     0.417000        1.0080           0
   37213 WT2  4862 TIP3 H2   HT     0.417000        1.0080           0
   37214 WT2  4863 TIP3 OH2  OT    -0.834000       15.9994           0
   37215 WT2  4863 TIP3 H1   HT     0.417000        1.0080           0
   37216 WT2  4863 TIP3 H2   HT     0.417000        1.0080           0
   37217 WT2  4864 TIP3 OH2  OT    -0.834000       15.9994           0
   37218 WT2  4864 TIP3 H1   HT     0.417000        1.0080           0
   37219 WT2  4864 TIP3 H2   HT     0.417000        1.0080           0
   37220 WT2  4865 TIP3 OH2  OT    -0.834000       15.9994           0
   37221 WT2  4865 TIP3 H1   HT     0.417000        1.0080           0
   37222 WT2  4865 TIP3 H2   HT     0.417000        1.0080           0
   37223 WT2  4866 TIP3 OH2  OT    -0.834000       15.9994           0
   37224 WT2  4866 TIP3 H1   HT     0.417000        1.0080           0
   37225 WT2  4866 TIP3 H2   HT     0.417000        1.0080           0
   37226 WT2  4867 TIP3 OH2  OT    -0.834000       15.9994           0
   37227 WT2  4867 TIP3 H1   HT     0.417000        1.0080           0
   37228 WT2  4867 TIP3 H2   HT     0.417000        1.0080           0
   37229 WT2  4868 TIP3 OH2  OT    -0.834000       15.9994           0
   37230 WT2  4868 TIP3 H1   HT     0.417000        1.0080           0
   37231 WT2  4868 TIP3 H2   HT     0.417000        1.0080           0
   37232 WT2  4869 TIP3 OH2  OT    -0.834000       15.9994           0
   37233 WT2  4869 TIP3 H1   HT     0.417000        1.0080           0
   37234 WT2  4869 TIP3 H2   HT     0.417000        1.0080           0
   37235 WT2  4870 TIP3 OH2  OT    -0.834000       15.9994           0
   37236 WT2  4870 TIP3 H1   HT     0.417000        1.0080           0
   37237 WT2  4870 TIP3 H2   HT     0.417000        1.0080           0
   37238 WT2  4871 TIP3 OH2  OT    -0.834000       15.9994           0
   37239 WT2  4871 TIP3 H1   HT     0.417000        1.0080           0
   37240 WT2  4871 TIP3 H2   HT     0.417000        1.0080           0
   37241 WT2  4872 TIP3 OH2  OT    -0.834000       15.9994           0
   37242 WT2  4872 TIP3 H1   HT     0.417000        1.0080           0
   37243 WT2  4872 TIP3 H2   HT     0.417000        1.0080           0
   37244 WT2  4873 TIP3 OH2  OT    -0.834000       15.9994           0
   37245 WT2  4873 TIP3 H1   HT     0.417000        1.0080           0
   37246 WT2  4873 TIP3 H2   HT     0.417000        1.0080           0
   37247 WT2  4875 TIP3 OH2  OT    -0.834000       15.9994           0
   37248 WT2  4875 TIP3 H1   HT     0.417000        1.0080           0
   37249 WT2  4875 TIP3 H2   HT     0.417000        1.0080           0
   37250 WT2  4876 TIP3 OH2  OT    -0.834000       15.9994           0
   37251 WT2  4876 TIP3 H1   HT     0.417000        1.0080           0
   37252 WT2  4876 TIP3 H2   HT     0.417000        1.0080           0
   37253 WT2  4877 TIP3 OH2  OT    -0.834000       15.9994           0
   37254 WT2  4877 TIP3 H1   HT     0.417000        1.0080           0
   37255 WT2  4877 TIP3 H2   HT     0.417000        1.0080           0
   37256 WT2  4878 TIP3 OH2  OT    -0.834000       15.9994           0
   37257 WT2  4878 TIP3 H1   HT     0.417000        1.0080           0
   37258 WT2  4878 TIP3 H2   HT     0.417000        1.0080           0
   37259 WT2  4879 TIP3 OH2  OT    -0.834000       15.9994           0
   37260 WT2  4879 TIP3 H1   HT     0.417000        1.0080           0
   37261 WT2  4879 TIP3 H2   HT     0.417000        1.0080           0
   37262 WT2  4880 TIP3 OH2  OT    -0.834000       15.9994           0
   37263 WT2  4880 TIP3 H1   HT     0.417000        1.0080           0
   37264 WT2  4880 TIP3 H2   HT     0.417000        1.0080           0
   37265 WT2  4881 TIP3 OH2  OT    -0.834000       15.9994           0
   37266 WT2  4881 TIP3 H1   HT     0.417000        1.0080           0
   37267 WT2  4881 TIP3 H2   HT     0.417000        1.0080           0
   37268 WT2  4882 TIP3 OH2  OT    -0.834000       15.9994           0
   37269 WT2  4882 TIP3 H1   HT     0.417000        1.0080           0
   37270 WT2  4882 TIP3 H2   HT     0.417000        1.0080           0
   37271 WT2  4883 TIP3 OH2  OT    -0.834000       15.9994           0
   37272 WT2  4883 TIP3 H1   HT     0.417000        1.0080           0
   37273 WT2  4883 TIP3 H2   HT     0.417000        1.0080           0
   37274 WT2  4885 TIP3 OH2  OT    -0.834000       15.9994           0
   37275 WT2  4885 TIP3 H1   HT     0.417000        1.0080           0
   37276 WT2  4885 TIP3 H2   HT     0.417000        1.0080           0
   37277 WT2  4886 TIP3 OH2  OT    -0.834000       15.9994           0
   37278 WT2  4886 TIP3 H1   HT     0.417000        1.0080           0
   37279 WT2  4886 TIP3 H2   HT     0.417000        1.0080           0
   37280 WT2  4887 TIP3 OH2  OT    -0.834000       15.9994           0
   37281 WT2  4887 TIP3 H1   HT     0.417000        1.0080           0
   37282 WT2  4887 TIP3 H2   HT     0.417000        1.0080           0
   37283 WT2  4888 TIP3 OH2  OT    -0.834000       15.9994           0
   37284 WT2  4888 TIP3 H1   HT     0.417000        1.0080           0
   37285 WT2  4888 TIP3 H2   HT     0.417000        1.0080           0
   37286 WT2  4889 TIP3 OH2  OT    -0.834000       15.9994           0
   37287 WT2  4889 TIP3 H1   HT     0.417000        1.0080           0
   37288 WT2  4889 TIP3 H2   HT     0.417000        1.0080           0
   37289 WT2  4890 TIP3 OH2  OT    -0.834000       15.9994           0
   37290 WT2  4890 TIP3 H1   HT     0.417000        1.0080           0
   37291 WT2  4890 TIP3 H2   HT     0.417000        1.0080           0
   37292 WT2  4891 TIP3 OH2  OT    -0.834000       15.9994           0
   37293 WT2  4891 TIP3 H1   HT     0.417000        1.0080           0
   37294 WT2  4891 TIP3 H2   HT     0.417000        1.0080           0
   37295 WT2  4892 TIP3 OH2  OT    -0.834000       15.9994           0
   37296 WT2  4892 TIP3 H1   HT     0.417000        1.0080           0
   37297 WT2  4892 TIP3 H2   HT     0.417000        1.0080           0
   37298 WT2  4893 TIP3 OH2  OT    -0.834000       15.9994           0
   37299 WT2  4893 TIP3 H1   HT     0.417000        1.0080           0
   37300 WT2  4893 TIP3 H2   HT     0.417000        1.0080           0
   37301 WT2  4894 TIP3 OH2  OT    -0.834000       15.9994           0
   37302 WT2  4894 TIP3 H1   HT     0.417000        1.0080           0
   37303 WT2  4894 TIP3 H2   HT     0.417000        1.0080           0
   37304 WT2  4895 TIP3 OH2  OT    -0.834000       15.9994           0
   37305 WT2  4895 TIP3 H1   HT     0.417000        1.0080           0
   37306 WT2  4895 TIP3 H2   HT     0.417000        1.0080           0
   37307 WT2  4896 TIP3 OH2  OT    -0.834000       15.9994           0
   37308 WT2  4896 TIP3 H1   HT     0.417000        1.0080           0
   37309 WT2  4896 TIP3 H2   HT     0.417000        1.0080           0
   37310 WT2  4897 TIP3 OH2  OT    -0.834000       15.9994           0
   37311 WT2  4897 TIP3 H1   HT     0.417000        1.0080           0
   37312 WT2  4897 TIP3 H2   HT     0.417000        1.0080           0
   37313 WT2  4898 TIP3 OH2  OT    -0.834000       15.9994           0
   37314 WT2  4898 TIP3 H1   HT     0.417000        1.0080           0
   37315 WT2  4898 TIP3 H2   HT     0.417000        1.0080           0
   37316 WT2  4899 TIP3 OH2  OT    -0.834000       15.9994           0
   37317 WT2  4899 TIP3 H1   HT     0.417000        1.0080           0
   37318 WT2  4899 TIP3 H2   HT     0.417000        1.0080           0
   37319 WT2  4900 TIP3 OH2  OT    -0.834000       15.9994           0
   37320 WT2  4900 TIP3 H1   HT     0.417000        1.0080           0
   37321 WT2  4900 TIP3 H2   HT     0.417000        1.0080           0
   37322 WT2  4901 TIP3 OH2  OT    -0.834000       15.9994           0
   37323 WT2  4901 TIP3 H1   HT     0.417000        1.0080           0
   37324 WT2  4901 TIP3 H2   HT     0.417000        1.0080           0
   37325 WT2  4902 TIP3 OH2  OT    -0.834000       15.9994           0
   37326 WT2  4902 TIP3 H1   HT     0.417000        1.0080           0
   37327 WT2  4902 TIP3 H2   HT     0.417000        1.0080           0
   37328 WT2  4903 TIP3 OH2  OT    -0.834000       15.9994           0
   37329 WT2  4903 TIP3 H1   HT     0.417000        1.0080           0
   37330 WT2  4903 TIP3 H2   HT     0.417000        1.0080           0
   37331 WT2  4905 TIP3 OH2  OT    -0.834000       15.9994           0
   37332 WT2  4905 TIP3 H1   HT     0.417000        1.0080           0
   37333 WT2  4905 TIP3 H2   HT     0.417000        1.0080           0
   37334 WT2  4906 TIP3 OH2  OT    -0.834000       15.9994           0
   37335 WT2  4906 TIP3 H1   HT     0.417000        1.0080           0
   37336 WT2  4906 TIP3 H2   HT     0.417000        1.0080           0
   37337 WT2  4907 TIP3 OH2  OT    -0.834000       15.9994           0
   37338 WT2  4907 TIP3 H1   HT     0.417000        1.0080           0
   37339 WT2  4907 TIP3 H2   HT     0.417000        1.0080           0
   37340 WT2  4908 TIP3 OH2  OT    -0.834000       15.9994           0
   37341 WT2  4908 TIP3 H1   HT     0.417000        1.0080           0
   37342 WT2  4908 TIP3 H2   HT     0.417000        1.0080           0
   37343 WT2  4909 TIP3 OH2  OT    -0.834000       15.9994           0
   37344 WT2  4909 TIP3 H1   HT     0.417000        1.0080           0
   37345 WT2  4909 TIP3 H2   HT     0.417000        1.0080           0
   37346 WT2  4910 TIP3 OH2  OT    -0.834000       15.9994           0
   37347 WT2  4910 TIP3 H1   HT     0.417000        1.0080           0
   37348 WT2  4910 TIP3 H2   HT     0.417000        1.0080           0
   37349 WT2  4911 TIP3 OH2  OT    -0.834000       15.9994           0
   37350 WT2  4911 TIP3 H1   HT     0.417000        1.0080           0
   37351 WT2  4911 TIP3 H2   HT     0.417000        1.0080           0
   37352 WT2  4912 TIP3 OH2  OT    -0.834000       15.9994           0
   37353 WT2  4912 TIP3 H1   HT     0.417000        1.0080           0
   37354 WT2  4912 TIP3 H2   HT     0.417000        1.0080           0
   37355 WT2  4913 TIP3 OH2  OT    -0.834000       15.9994           0
   37356 WT2  4913 TIP3 H1   HT     0.417000        1.0080           0
   37357 WT2  4913 TIP3 H2   HT     0.417000        1.0080           0
   37358 WT2  4915 TIP3 OH2  OT    -0.834000       15.9994           0
   37359 WT2  4915 TIP3 H1   HT     0.417000        1.0080           0
   37360 WT2  4915 TIP3 H2   HT     0.417000        1.0080           0
   37361 WT2  4916 TIP3 OH2  OT    -0.834000       15.9994           0
   37362 WT2  4916 TIP3 H1   HT     0.417000        1.0080           0
   37363 WT2  4916 TIP3 H2   HT     0.417000        1.0080           0
   37364 WT2  4918 TIP3 OH2  OT    -0.834000       15.9994           0
   37365 WT2  4918 TIP3 H1   HT     0.417000        1.0080           0
   37366 WT2  4918 TIP3 H2   HT     0.417000        1.0080           0
   37367 WT2  4919 TIP3 OH2  OT    -0.834000       15.9994           0
   37368 WT2  4919 TIP3 H1   HT     0.417000        1.0080           0
   37369 WT2  4919 TIP3 H2   HT     0.417000        1.0080           0
   37370 WT2  4921 TIP3 OH2  OT    -0.834000       15.9994           0
   37371 WT2  4921 TIP3 H1   HT     0.417000        1.0080           0
   37372 WT2  4921 TIP3 H2   HT     0.417000        1.0080           0
   37373 WT2  4923 TIP3 OH2  OT    -0.834000       15.9994           0
   37374 WT2  4923 TIP3 H1   HT     0.417000        1.0080           0
   37375 WT2  4923 TIP3 H2   HT     0.417000        1.0080           0
   37376 WT2  4924 TIP3 OH2  OT    -0.834000       15.9994           0
   37377 WT2  4924 TIP3 H1   HT     0.417000        1.0080           0
   37378 WT2  4924 TIP3 H2   HT     0.417000        1.0080           0
   37379 WT2  4925 TIP3 OH2  OT    -0.834000       15.9994           0
   37380 WT2  4925 TIP3 H1   HT     0.417000        1.0080           0
   37381 WT2  4925 TIP3 H2   HT     0.417000        1.0080           0
   37382 WT2  4927 TIP3 OH2  OT    -0.834000       15.9994           0
   37383 WT2  4927 TIP3 H1   HT     0.417000        1.0080           0
   37384 WT2  4927 TIP3 H2   HT     0.417000        1.0080           0
   37385 WT2  4928 TIP3 OH2  OT    -0.834000       15.9994           0
   37386 WT2  4928 TIP3 H1   HT     0.417000        1.0080           0
   37387 WT2  4928 TIP3 H2   HT     0.417000        1.0080           0
   37388 WT2  4929 TIP3 OH2  OT    -0.834000       15.9994           0
   37389 WT2  4929 TIP3 H1   HT     0.417000        1.0080           0
   37390 WT2  4929 TIP3 H2   HT     0.417000        1.0080           0
   37391 WT2  4930 TIP3 OH2  OT    -0.834000       15.9994           0
   37392 WT2  4930 TIP3 H1   HT     0.417000        1.0080           0
   37393 WT2  4930 TIP3 H2   HT     0.417000        1.0080           0
   37394 WT2  4931 TIP3 OH2  OT    -0.834000       15.9994           0
   37395 WT2  4931 TIP3 H1   HT     0.417000        1.0080           0
   37396 WT2  4931 TIP3 H2   HT     0.417000        1.0080           0
   37397 WT2  4932 TIP3 OH2  OT    -0.834000       15.9994           0
   37398 WT2  4932 TIP3 H1   HT     0.417000        1.0080           0
   37399 WT2  4932 TIP3 H2   HT     0.417000        1.0080           0
   37400 WT2  4934 TIP3 OH2  OT    -0.834000       15.9994           0
   37401 WT2  4934 TIP3 H1   HT     0.417000        1.0080           0
   37402 WT2  4934 TIP3 H2   HT     0.417000        1.0080           0
   37403 WT2  4936 TIP3 OH2  OT    -0.834000       15.9994           0
   37404 WT2  4936 TIP3 H1   HT     0.417000        1.0080           0
   37405 WT2  4936 TIP3 H2   HT     0.417000        1.0080           0
   37406 WT2  4937 TIP3 OH2  OT    -0.834000       15.9994           0
   37407 WT2  4937 TIP3 H1   HT     0.417000        1.0080           0
   37408 WT2  4937 TIP3 H2   HT     0.417000        1.0080           0
   37409 WT2  4938 TIP3 OH2  OT    -0.834000       15.9994           0
   37410 WT2  4938 TIP3 H1   HT     0.417000        1.0080           0
   37411 WT2  4938 TIP3 H2   HT     0.417000        1.0080           0
   37412 WT2  4939 TIP3 OH2  OT    -0.834000       15.9994           0
   37413 WT2  4939 TIP3 H1   HT     0.417000        1.0080           0
   37414 WT2  4939 TIP3 H2   HT     0.417000        1.0080           0
   37415 WT2  4940 TIP3 OH2  OT    -0.834000       15.9994           0
   37416 WT2  4940 TIP3 H1   HT     0.417000        1.0080           0
   37417 WT2  4940 TIP3 H2   HT     0.417000        1.0080           0
   37418 WT2  4941 TIP3 OH2  OT    -0.834000       15.9994           0
   37419 WT2  4941 TIP3 H1   HT     0.417000        1.0080           0
   37420 WT2  4941 TIP3 H2   HT     0.417000        1.0080           0
   37421 WT2  4942 TIP3 OH2  OT    -0.834000       15.9994           0
   37422 WT2  4942 TIP3 H1   HT     0.417000        1.0080           0
   37423 WT2  4942 TIP3 H2   HT     0.417000        1.0080           0
   37424 WT2  4943 TIP3 OH2  OT    -0.834000       15.9994           0
   37425 WT2  4943 TIP3 H1   HT     0.417000        1.0080           0
   37426 WT2  4943 TIP3 H2   HT     0.417000        1.0080           0
   37427 WT2  4944 TIP3 OH2  OT    -0.834000       15.9994           0
   37428 WT2  4944 TIP3 H1   HT     0.417000        1.0080           0
   37429 WT2  4944 TIP3 H2   HT     0.417000        1.0080           0
   37430 WT2  4945 TIP3 OH2  OT    -0.834000       15.9994           0
   37431 WT2  4945 TIP3 H1   HT     0.417000        1.0080           0
   37432 WT2  4945 TIP3 H2   HT     0.417000        1.0080           0
   37433 WT2  4946 TIP3 OH2  OT    -0.834000       15.9994           0
   37434 WT2  4946 TIP3 H1   HT     0.417000        1.0080           0
   37435 WT2  4946 TIP3 H2   HT     0.417000        1.0080           0
   37436 WT2  4947 TIP3 OH2  OT    -0.834000       15.9994           0
   37437 WT2  4947 TIP3 H1   HT     0.417000        1.0080           0
   37438 WT2  4947 TIP3 H2   HT     0.417000        1.0080           0
   37439 WT2  4948 TIP3 OH2  OT    -0.834000       15.9994           0
   37440 WT2  4948 TIP3 H1   HT     0.417000        1.0080           0
   37441 WT2  4948 TIP3 H2   HT     0.417000        1.0080           0
   37442 WT2  4949 TIP3 OH2  OT    -0.834000       15.9994           0
   37443 WT2  4949 TIP3 H1   HT     0.417000        1.0080           0
   37444 WT2  4949 TIP3 H2   HT     0.417000        1.0080           0
   37445 WT2  4950 TIP3 OH2  OT    -0.834000       15.9994           0
   37446 WT2  4950 TIP3 H1   HT     0.417000        1.0080           0
   37447 WT2  4950 TIP3 H2   HT     0.417000        1.0080           0
   37448 WT2  4951 TIP3 OH2  OT    -0.834000       15.9994           0
   37449 WT2  4951 TIP3 H1   HT     0.417000        1.0080           0
   37450 WT2  4951 TIP3 H2   HT     0.417000        1.0080           0
   37451 WT2  4952 TIP3 OH2  OT    -0.834000       15.9994           0
   37452 WT2  4952 TIP3 H1   HT     0.417000        1.0080           0
   37453 WT2  4952 TIP3 H2   HT     0.417000        1.0080           0
   37454 WT2  4953 TIP3 OH2  OT    -0.834000       15.9994           0
   37455 WT2  4953 TIP3 H1   HT     0.417000        1.0080           0
   37456 WT2  4953 TIP3 H2   HT     0.417000        1.0080           0
   37457 WT2  4954 TIP3 OH2  OT    -0.834000       15.9994           0
   37458 WT2  4954 TIP3 H1   HT     0.417000        1.0080           0
   37459 WT2  4954 TIP3 H2   HT     0.417000        1.0080           0
   37460 WT2  4955 TIP3 OH2  OT    -0.834000       15.9994           0
   37461 WT2  4955 TIP3 H1   HT     0.417000        1.0080           0
   37462 WT2  4955 TIP3 H2   HT     0.417000        1.0080           0
   37463 WT2  4956 TIP3 OH2  OT    -0.834000       15.9994           0
   37464 WT2  4956 TIP3 H1   HT     0.417000        1.0080           0
   37465 WT2  4956 TIP3 H2   HT     0.417000        1.0080           0
   37466 WT2  4957 TIP3 OH2  OT    -0.834000       15.9994           0
   37467 WT2  4957 TIP3 H1   HT     0.417000        1.0080           0
   37468 WT2  4957 TIP3 H2   HT     0.417000        1.0080           0
   37469 WT2  4958 TIP3 OH2  OT    -0.834000       15.9994           0
   37470 WT2  4958 TIP3 H1   HT     0.417000        1.0080           0
   37471 WT2  4958 TIP3 H2   HT     0.417000        1.0080           0
   37472 WT2  4959 TIP3 OH2  OT    -0.834000       15.9994           0
   37473 WT2  4959 TIP3 H1   HT     0.417000        1.0080           0
   37474 WT2  4959 TIP3 H2   HT     0.417000        1.0080           0
   37475 WT2  4961 TIP3 OH2  OT    -0.834000       15.9994           0
   37476 WT2  4961 TIP3 H1   HT     0.417000        1.0080           0
   37477 WT2  4961 TIP3 H2   HT     0.417000        1.0080           0
   37478 WT2  4962 TIP3 OH2  OT    -0.834000       15.9994           0
   37479 WT2  4962 TIP3 H1   HT     0.417000        1.0080           0
   37480 WT2  4962 TIP3 H2   HT     0.417000        1.0080           0
   37481 WT2  4964 TIP3 OH2  OT    -0.834000       15.9994           0
   37482 WT2  4964 TIP3 H1   HT     0.417000        1.0080           0
   37483 WT2  4964 TIP3 H2   HT     0.417000        1.0080           0
   37484 WT2  4966 TIP3 OH2  OT    -0.834000       15.9994           0
   37485 WT2  4966 TIP3 H1   HT     0.417000        1.0080           0
   37486 WT2  4966 TIP3 H2   HT     0.417000        1.0080           0
   37487 WT2  4967 TIP3 OH2  OT    -0.834000       15.9994           0
   37488 WT2  4967 TIP3 H1   HT     0.417000        1.0080           0
   37489 WT2  4967 TIP3 H2   HT     0.417000        1.0080           0
   37490 WT2  4968 TIP3 OH2  OT    -0.834000       15.9994           0
   37491 WT2  4968 TIP3 H1   HT     0.417000        1.0080           0
   37492 WT2  4968 TIP3 H2   HT     0.417000        1.0080           0
   37493 WT2  4970 TIP3 OH2  OT    -0.834000       15.9994           0
   37494 WT2  4970 TIP3 H1   HT     0.417000        1.0080           0
   37495 WT2  4970 TIP3 H2   HT     0.417000        1.0080           0
   37496 WT2  4971 TIP3 OH2  OT    -0.834000       15.9994           0
   37497 WT2  4971 TIP3 H1   HT     0.417000        1.0080           0
   37498 WT2  4971 TIP3 H2   HT     0.417000        1.0080           0
   37499 WT2  4973 TIP3 OH2  OT    -0.834000       15.9994           0
   37500 WT2  4973 TIP3 H1   HT     0.417000        1.0080           0
   37501 WT2  4973 TIP3 H2   HT     0.417000        1.0080           0
   37502 WT2  4975 TIP3 OH2  OT    -0.834000       15.9994           0
   37503 WT2  4975 TIP3 H1   HT     0.417000        1.0080           0
   37504 WT2  4975 TIP3 H2   HT     0.417000        1.0080           0
   37505 WT2  4976 TIP3 OH2  OT    -0.834000       15.9994           0
   37506 WT2  4976 TIP3 H1   HT     0.417000        1.0080           0
   37507 WT2  4976 TIP3 H2   HT     0.417000        1.0080           0
   37508 WT2  4977 TIP3 OH2  OT    -0.834000       15.9994           0
   37509 WT2  4977 TIP3 H1   HT     0.417000        1.0080           0
   37510 WT2  4977 TIP3 H2   HT     0.417000        1.0080           0
   37511 WT2  4978 TIP3 OH2  OT    -0.834000       15.9994           0
   37512 WT2  4978 TIP3 H1   HT     0.417000        1.0080           0
   37513 WT2  4978 TIP3 H2   HT     0.417000        1.0080           0
   37514 WT2  4980 TIP3 OH2  OT    -0.834000       15.9994           0
   37515 WT2  4980 TIP3 H1   HT     0.417000        1.0080           0
   37516 WT2  4980 TIP3 H2   HT     0.417000        1.0080           0
   37517 WT2  4981 TIP3 OH2  OT    -0.834000       15.9994           0
   37518 WT2  4981 TIP3 H1   HT     0.417000        1.0080           0
   37519 WT2  4981 TIP3 H2   HT     0.417000        1.0080           0
   37520 WT2  4982 TIP3 OH2  OT    -0.834000       15.9994           0
   37521 WT2  4982 TIP3 H1   HT     0.417000        1.0080           0
   37522 WT2  4982 TIP3 H2   HT     0.417000        1.0080           0
   37523 WT2  4983 TIP3 OH2  OT    -0.834000       15.9994           0
   37524 WT2  4983 TIP3 H1   HT     0.417000        1.0080           0
   37525 WT2  4983 TIP3 H2   HT     0.417000        1.0080           0
   37526 WT2  4984 TIP3 OH2  OT    -0.834000       15.9994           0
   37527 WT2  4984 TIP3 H1   HT     0.417000        1.0080           0
   37528 WT2  4984 TIP3 H2   HT     0.417000        1.0080           0
   37529 WT2  4986 TIP3 OH2  OT    -0.834000       15.9994           0
   37530 WT2  4986 TIP3 H1   HT     0.417000        1.0080           0
   37531 WT2  4986 TIP3 H2   HT     0.417000        1.0080           0
   37532 WT2  4987 TIP3 OH2  OT    -0.834000       15.9994           0
   37533 WT2  4987 TIP3 H1   HT     0.417000        1.0080           0
   37534 WT2  4987 TIP3 H2   HT     0.417000        1.0080           0
   37535 WT2  4988 TIP3 OH2  OT    -0.834000       15.9994           0
   37536 WT2  4988 TIP3 H1   HT     0.417000        1.0080           0
   37537 WT2  4988 TIP3 H2   HT     0.417000        1.0080           0
   37538 WT2  4990 TIP3 OH2  OT    -0.834000       15.9994           0
   37539 WT2  4990 TIP3 H1   HT     0.417000        1.0080           0
   37540 WT2  4990 TIP3 H2   HT     0.417000        1.0080           0
   37541 WT2  4991 TIP3 OH2  OT    -0.834000       15.9994           0
   37542 WT2  4991 TIP3 H1   HT     0.417000        1.0080           0
   37543 WT2  4991 TIP3 H2   HT     0.417000        1.0080           0
   37544 WT2  4993 TIP3 OH2  OT    -0.834000       15.9994           0
   37545 WT2  4993 TIP3 H1   HT     0.417000        1.0080           0
   37546 WT2  4993 TIP3 H2   HT     0.417000        1.0080           0
   37547 WT2  4997 TIP3 OH2  OT    -0.834000       15.9994           0
   37548 WT2  4997 TIP3 H1   HT     0.417000        1.0080           0
   37549 WT2  4997 TIP3 H2   HT     0.417000        1.0080           0
   37550 WT2  4998 TIP3 OH2  OT    -0.834000       15.9994           0
   37551 WT2  4998 TIP3 H1   HT     0.417000        1.0080           0
   37552 WT2  4998 TIP3 H2   HT     0.417000        1.0080           0
   37553 WT2  4999 TIP3 OH2  OT    -0.834000       15.9994           0
   37554 WT2  4999 TIP3 H1   HT     0.417000        1.0080           0
   37555 WT2  4999 TIP3 H2   HT     0.417000        1.0080           0
   37556 WT2  5000 TIP3 OH2  OT    -0.834000       15.9994           0
   37557 WT2  5000 TIP3 H1   HT     0.417000        1.0080           0
   37558 WT2  5000 TIP3 H2   HT     0.417000        1.0080           0
   37559 WT2  5001 TIP3 OH2  OT    -0.834000       15.9994           0
   37560 WT2  5001 TIP3 H1   HT     0.417000        1.0080           0
   37561 WT2  5001 TIP3 H2   HT     0.417000        1.0080           0
   37562 WT2  5002 TIP3 OH2  OT    -0.834000       15.9994           0
   37563 WT2  5002 TIP3 H1   HT     0.417000        1.0080           0
   37564 WT2  5002 TIP3 H2   HT     0.417000        1.0080           0
   37565 WT2  5003 TIP3 OH2  OT    -0.834000       15.9994           0
   37566 WT2  5003 TIP3 H1   HT     0.417000        1.0080           0
   37567 WT2  5003 TIP3 H2   HT     0.417000        1.0080           0
   37568 WT2  5005 TIP3 OH2  OT    -0.834000       15.9994           0
   37569 WT2  5005 TIP3 H1   HT     0.417000        1.0080           0
   37570 WT2  5005 TIP3 H2   HT     0.417000        1.0080           0
   37571 WT2  5006 TIP3 OH2  OT    -0.834000       15.9994           0
   37572 WT2  5006 TIP3 H1   HT     0.417000        1.0080           0
   37573 WT2  5006 TIP3 H2   HT     0.417000        1.0080           0
   37574 WT2  5007 TIP3 OH2  OT    -0.834000       15.9994           0
   37575 WT2  5007 TIP3 H1   HT     0.417000        1.0080           0
   37576 WT2  5007 TIP3 H2   HT     0.417000        1.0080           0
   37577 WT2  5008 TIP3 OH2  OT    -0.834000       15.9994           0
   37578 WT2  5008 TIP3 H1   HT     0.417000        1.0080           0
   37579 WT2  5008 TIP3 H2   HT     0.417000        1.0080           0
   37580 WT2  5009 TIP3 OH2  OT    -0.834000       15.9994           0
   37581 WT2  5009 TIP3 H1   HT     0.417000        1.0080           0
   37582 WT2  5009 TIP3 H2   HT     0.417000        1.0080           0
   37583 WT2  5010 TIP3 OH2  OT    -0.834000       15.9994           0
   37584 WT2  5010 TIP3 H1   HT     0.417000        1.0080           0
   37585 WT2  5010 TIP3 H2   HT     0.417000        1.0080           0
   37586 WT2  5011 TIP3 OH2  OT    -0.834000       15.9994           0
   37587 WT2  5011 TIP3 H1   HT     0.417000        1.0080           0
   37588 WT2  5011 TIP3 H2   HT     0.417000        1.0080           0
   37589 WT2  5012 TIP3 OH2  OT    -0.834000       15.9994           0
   37590 WT2  5012 TIP3 H1   HT     0.417000        1.0080           0
   37591 WT2  5012 TIP3 H2   HT     0.417000        1.0080           0
   37592 WT2  5013 TIP3 OH2  OT    -0.834000       15.9994           0
   37593 WT2  5013 TIP3 H1   HT     0.417000        1.0080           0
   37594 WT2  5013 TIP3 H2   HT     0.417000        1.0080           0
   37595 WT2  5014 TIP3 OH2  OT    -0.834000       15.9994           0
   37596 WT2  5014 TIP3 H1   HT     0.417000        1.0080           0
   37597 WT2  5014 TIP3 H2   HT     0.417000        1.0080           0
   37598 WT2  5015 TIP3 OH2  OT    -0.834000       15.9994           0
   37599 WT2  5015 TIP3 H1   HT     0.417000        1.0080           0
   37600 WT2  5015 TIP3 H2   HT     0.417000        1.0080           0
   37601 WT2  5016 TIP3 OH2  OT    -0.834000       15.9994           0
   37602 WT2  5016 TIP3 H1   HT     0.417000        1.0080           0
   37603 WT2  5016 TIP3 H2   HT     0.417000        1.0080           0
   37604 WT2  5017 TIP3 OH2  OT    -0.834000       15.9994           0
   37605 WT2  5017 TIP3 H1   HT     0.417000        1.0080           0
   37606 WT2  5017 TIP3 H2   HT     0.417000        1.0080           0
   37607 WT2  5019 TIP3 OH2  OT    -0.834000       15.9994           0
   37608 WT2  5019 TIP3 H1   HT     0.417000        1.0080           0
   37609 WT2  5019 TIP3 H2   HT     0.417000        1.0080           0
   37610 WT2  5022 TIP3 OH2  OT    -0.834000       15.9994           0
   37611 WT2  5022 TIP3 H1   HT     0.417000        1.0080           0
   37612 WT2  5022 TIP3 H2   HT     0.417000        1.0080           0
   37613 WT2  5024 TIP3 OH2  OT    -0.834000       15.9994           0
   37614 WT2  5024 TIP3 H1   HT     0.417000        1.0080           0
   37615 WT2  5024 TIP3 H2   HT     0.417000        1.0080           0
   37616 WT2  5025 TIP3 OH2  OT    -0.834000       15.9994           0
   37617 WT2  5025 TIP3 H1   HT     0.417000        1.0080           0
   37618 WT2  5025 TIP3 H2   HT     0.417000        1.0080           0
   37619 WT2  5026 TIP3 OH2  OT    -0.834000       15.9994           0
   37620 WT2  5026 TIP3 H1   HT     0.417000        1.0080           0
   37621 WT2  5026 TIP3 H2   HT     0.417000        1.0080           0
   37622 WT2  5028 TIP3 OH2  OT    -0.834000       15.9994           0
   37623 WT2  5028 TIP3 H1   HT     0.417000        1.0080           0
   37624 WT2  5028 TIP3 H2   HT     0.417000        1.0080           0
   37625 WT2  5031 TIP3 OH2  OT    -0.834000       15.9994           0
   37626 WT2  5031 TIP3 H1   HT     0.417000        1.0080           0
   37627 WT2  5031 TIP3 H2   HT     0.417000        1.0080           0
   37628 WT2  5034 TIP3 OH2  OT    -0.834000       15.9994           0
   37629 WT2  5034 TIP3 H1   HT     0.417000        1.0080           0
   37630 WT2  5034 TIP3 H2   HT     0.417000        1.0080           0
   37631 WT2  5035 TIP3 OH2  OT    -0.834000       15.9994           0
   37632 WT2  5035 TIP3 H1   HT     0.417000        1.0080           0
   37633 WT2  5035 TIP3 H2   HT     0.417000        1.0080           0
   37634 WT2  5037 TIP3 OH2  OT    -0.834000       15.9994           0
   37635 WT2  5037 TIP3 H1   HT     0.417000        1.0080           0
   37636 WT2  5037 TIP3 H2   HT     0.417000        1.0080           0
   37637 WT2  5043 TIP3 OH2  OT    -0.834000       15.9994           0
   37638 WT2  5043 TIP3 H1   HT     0.417000        1.0080           0
   37639 WT2  5043 TIP3 H2   HT     0.417000        1.0080           0
   37640 WT2  5044 TIP3 OH2  OT    -0.834000       15.9994           0
   37641 WT2  5044 TIP3 H1   HT     0.417000        1.0080           0
   37642 WT2  5044 TIP3 H2   HT     0.417000        1.0080           0
   37643 WT2  5045 TIP3 OH2  OT    -0.834000       15.9994           0
   37644 WT2  5045 TIP3 H1   HT     0.417000        1.0080           0
   37645 WT2  5045 TIP3 H2   HT     0.417000        1.0080           0
   37646 WT2  5046 TIP3 OH2  OT    -0.834000       15.9994           0
   37647 WT2  5046 TIP3 H1   HT     0.417000        1.0080           0
   37648 WT2  5046 TIP3 H2   HT     0.417000        1.0080           0
   37649 WT2  5047 TIP3 OH2  OT    -0.834000       15.9994           0
   37650 WT2  5047 TIP3 H1   HT     0.417000        1.0080           0
   37651 WT2  5047 TIP3 H2   HT     0.417000        1.0080           0
   37652 WT2  5048 TIP3 OH2  OT    -0.834000       15.9994           0
   37653 WT2  5048 TIP3 H1   HT     0.417000        1.0080           0
   37654 WT2  5048 TIP3 H2   HT     0.417000        1.0080           0
   37655 WT2  5051 TIP3 OH2  OT    -0.834000       15.9994           0
   37656 WT2  5051 TIP3 H1   HT     0.417000        1.0080           0
   37657 WT2  5051 TIP3 H2   HT     0.417000        1.0080           0
   37658 WT2  5052 TIP3 OH2  OT    -0.834000       15.9994           0
   37659 WT2  5052 TIP3 H1   HT     0.417000        1.0080           0
   37660 WT2  5052 TIP3 H2   HT     0.417000        1.0080           0
   37661 WT2  5053 TIP3 OH2  OT    -0.834000       15.9994           0
   37662 WT2  5053 TIP3 H1   HT     0.417000        1.0080           0
   37663 WT2  5053 TIP3 H2   HT     0.417000        1.0080           0
   37664 WT2  5055 TIP3 OH2  OT    -0.834000       15.9994           0
   37665 WT2  5055 TIP3 H1   HT     0.417000        1.0080           0
   37666 WT2  5055 TIP3 H2   HT     0.417000        1.0080           0
   37667 WT2  5056 TIP3 OH2  OT    -0.834000       15.9994           0
   37668 WT2  5056 TIP3 H1   HT     0.417000        1.0080           0
   37669 WT2  5056 TIP3 H2   HT     0.417000        1.0080           0
   37670 WT2  5058 TIP3 OH2  OT    -0.834000       15.9994           0
   37671 WT2  5058 TIP3 H1   HT     0.417000        1.0080           0
   37672 WT2  5058 TIP3 H2   HT     0.417000        1.0080           0
   37673 WT2  5059 TIP3 OH2  OT    -0.834000       15.9994           0
   37674 WT2  5059 TIP3 H1   HT     0.417000        1.0080           0
   37675 WT2  5059 TIP3 H2   HT     0.417000        1.0080           0
   37676 WT2  5060 TIP3 OH2  OT    -0.834000       15.9994           0
   37677 WT2  5060 TIP3 H1   HT     0.417000        1.0080           0
   37678 WT2  5060 TIP3 H2   HT     0.417000        1.0080           0
   37679 WT2  5061 TIP3 OH2  OT    -0.834000       15.9994           0
   37680 WT2  5061 TIP3 H1   HT     0.417000        1.0080           0
   37681 WT2  5061 TIP3 H2   HT     0.417000        1.0080           0
   37682 WT2  5062 TIP3 OH2  OT    -0.834000       15.9994           0
   37683 WT2  5062 TIP3 H1   HT     0.417000        1.0080           0
   37684 WT2  5062 TIP3 H2   HT     0.417000        1.0080           0
   37685 WT2  5063 TIP3 OH2  OT    -0.834000       15.9994           0
   37686 WT2  5063 TIP3 H1   HT     0.417000        1.0080           0
   37687 WT2  5063 TIP3 H2   HT     0.417000        1.0080           0
   37688 WT2  5065 TIP3 OH2  OT    -0.834000       15.9994           0
   37689 WT2  5065 TIP3 H1   HT     0.417000        1.0080           0
   37690 WT2  5065 TIP3 H2   HT     0.417000        1.0080           0
   37691 WT2  5066 TIP3 OH2  OT    -0.834000       15.9994           0
   37692 WT2  5066 TIP3 H1   HT     0.417000        1.0080           0
   37693 WT2  5066 TIP3 H2   HT     0.417000        1.0080           0
   37694 WT2  5067 TIP3 OH2  OT    -0.834000       15.9994           0
   37695 WT2  5067 TIP3 H1   HT     0.417000        1.0080           0
   37696 WT2  5067 TIP3 H2   HT     0.417000        1.0080           0
   37697 WT2  5069 TIP3 OH2  OT    -0.834000       15.9994           0
   37698 WT2  5069 TIP3 H1   HT     0.417000        1.0080           0
   37699 WT2  5069 TIP3 H2   HT     0.417000        1.0080           0
   37700 WT2  5071 TIP3 OH2  OT    -0.834000       15.9994           0
   37701 WT2  5071 TIP3 H1   HT     0.417000        1.0080           0
   37702 WT2  5071 TIP3 H2   HT     0.417000        1.0080           0
   37703 WT2  5072 TIP3 OH2  OT    -0.834000       15.9994           0
   37704 WT2  5072 TIP3 H1   HT     0.417000        1.0080           0
   37705 WT2  5072 TIP3 H2   HT     0.417000        1.0080           0
   37706 WT2  5073 TIP3 OH2  OT    -0.834000       15.9994           0
   37707 WT2  5073 TIP3 H1   HT     0.417000        1.0080           0
   37708 WT2  5073 TIP3 H2   HT     0.417000        1.0080           0
   37709 WT2  5074 TIP3 OH2  OT    -0.834000       15.9994           0
   37710 WT2  5074 TIP3 H1   HT     0.417000        1.0080           0
   37711 WT2  5074 TIP3 H2   HT     0.417000        1.0080           0
   37712 WT2  5075 TIP3 OH2  OT    -0.834000       15.9994           0
   37713 WT2  5075 TIP3 H1   HT     0.417000        1.0080           0
   37714 WT2  5075 TIP3 H2   HT     0.417000        1.0080           0
   37715 WT2  5076 TIP3 OH2  OT    -0.834000       15.9994           0
   37716 WT2  5076 TIP3 H1   HT     0.417000        1.0080           0
   37717 WT2  5076 TIP3 H2   HT     0.417000        1.0080           0
   37718 WT2  5077 TIP3 OH2  OT    -0.834000       15.9994           0
   37719 WT2  5077 TIP3 H1   HT     0.417000        1.0080           0
   37720 WT2  5077 TIP3 H2   HT     0.417000        1.0080           0
   37721 WT2  5079 TIP3 OH2  OT    -0.834000       15.9994           0
   37722 WT2  5079 TIP3 H1   HT     0.417000        1.0080           0
   37723 WT2  5079 TIP3 H2   HT     0.417000        1.0080           0
   37724 WT2  5080 TIP3 OH2  OT    -0.834000       15.9994           0
   37725 WT2  5080 TIP3 H1   HT     0.417000        1.0080           0
   37726 WT2  5080 TIP3 H2   HT     0.417000        1.0080           0
   37727 WT2  5081 TIP3 OH2  OT    -0.834000       15.9994           0
   37728 WT2  5081 TIP3 H1   HT     0.417000        1.0080           0
   37729 WT2  5081 TIP3 H2   HT     0.417000        1.0080           0
   37730 WT2  5083 TIP3 OH2  OT    -0.834000       15.9994           0
   37731 WT2  5083 TIP3 H1   HT     0.417000        1.0080           0
   37732 WT2  5083 TIP3 H2   HT     0.417000        1.0080           0
   37733 WT2  5084 TIP3 OH2  OT    -0.834000       15.9994           0
   37734 WT2  5084 TIP3 H1   HT     0.417000        1.0080           0
   37735 WT2  5084 TIP3 H2   HT     0.417000        1.0080           0
   37736 WT2  5085 TIP3 OH2  OT    -0.834000       15.9994           0
   37737 WT2  5085 TIP3 H1   HT     0.417000        1.0080           0
   37738 WT2  5085 TIP3 H2   HT     0.417000        1.0080           0
   37739 WT2  5088 TIP3 OH2  OT    -0.834000       15.9994           0
   37740 WT2  5088 TIP3 H1   HT     0.417000        1.0080           0
   37741 WT2  5088 TIP3 H2   HT     0.417000        1.0080           0
   37742 WT2  5090 TIP3 OH2  OT    -0.834000       15.9994           0
   37743 WT2  5090 TIP3 H1   HT     0.417000        1.0080           0
   37744 WT2  5090 TIP3 H2   HT     0.417000        1.0080           0
   37745 WT2  5091 TIP3 OH2  OT    -0.834000       15.9994           0
   37746 WT2  5091 TIP3 H1   HT     0.417000        1.0080           0
   37747 WT2  5091 TIP3 H2   HT     0.417000        1.0080           0
   37748 WT2  5095 TIP3 OH2  OT    -0.834000       15.9994           0
   37749 WT2  5095 TIP3 H1   HT     0.417000        1.0080           0
   37750 WT2  5095 TIP3 H2   HT     0.417000        1.0080           0
   37751 WT2  5096 TIP3 OH2  OT    -0.834000       15.9994           0
   37752 WT2  5096 TIP3 H1   HT     0.417000        1.0080           0
   37753 WT2  5096 TIP3 H2   HT     0.417000        1.0080           0
   37754 WT2  5097 TIP3 OH2  OT    -0.834000       15.9994           0
   37755 WT2  5097 TIP3 H1   HT     0.417000        1.0080           0
   37756 WT2  5097 TIP3 H2   HT     0.417000        1.0080           0
   37757 WT2  5098 TIP3 OH2  OT    -0.834000       15.9994           0
   37758 WT2  5098 TIP3 H1   HT     0.417000        1.0080           0
   37759 WT2  5098 TIP3 H2   HT     0.417000        1.0080           0
   37760 WT2  5101 TIP3 OH2  OT    -0.834000       15.9994           0
   37761 WT2  5101 TIP3 H1   HT     0.417000        1.0080           0
   37762 WT2  5101 TIP3 H2   HT     0.417000        1.0080           0
   37763 WT2  5104 TIP3 OH2  OT    -0.834000       15.9994           0
   37764 WT2  5104 TIP3 H1   HT     0.417000        1.0080           0
   37765 WT2  5104 TIP3 H2   HT     0.417000        1.0080           0
   37766 WT2  5105 TIP3 OH2  OT    -0.834000       15.9994           0
   37767 WT2  5105 TIP3 H1   HT     0.417000        1.0080           0
   37768 WT2  5105 TIP3 H2   HT     0.417000        1.0080           0
   37769 WT2  5107 TIP3 OH2  OT    -0.834000       15.9994           0
   37770 WT2  5107 TIP3 H1   HT     0.417000        1.0080           0
   37771 WT2  5107 TIP3 H2   HT     0.417000        1.0080           0
   37772 WT2  5109 TIP3 OH2  OT    -0.834000       15.9994           0
   37773 WT2  5109 TIP3 H1   HT     0.417000        1.0080           0
   37774 WT2  5109 TIP3 H2   HT     0.417000        1.0080           0
   37775 WT2  5110 TIP3 OH2  OT    -0.834000       15.9994           0
   37776 WT2  5110 TIP3 H1   HT     0.417000        1.0080           0
   37777 WT2  5110 TIP3 H2   HT     0.417000        1.0080           0
   37778 WT2  5111 TIP3 OH2  OT    -0.834000       15.9994           0
   37779 WT2  5111 TIP3 H1   HT     0.417000        1.0080           0
   37780 WT2  5111 TIP3 H2   HT     0.417000        1.0080           0
   37781 WT2  5112 TIP3 OH2  OT    -0.834000       15.9994           0
   37782 WT2  5112 TIP3 H1   HT     0.417000        1.0080           0
   37783 WT2  5112 TIP3 H2   HT     0.417000        1.0080           0
   37784 WT2  5113 TIP3 OH2  OT    -0.834000       15.9994           0
   37785 WT2  5113 TIP3 H1   HT     0.417000        1.0080           0
   37786 WT2  5113 TIP3 H2   HT     0.417000        1.0080           0
   37787 WT2  5114 TIP3 OH2  OT    -0.834000       15.9994           0
   37788 WT2  5114 TIP3 H1   HT     0.417000        1.0080           0
   37789 WT2  5114 TIP3 H2   HT     0.417000        1.0080           0
   37790 WT2  5115 TIP3 OH2  OT    -0.834000       15.9994           0
   37791 WT2  5115 TIP3 H1   HT     0.417000        1.0080           0
   37792 WT2  5115 TIP3 H2   HT     0.417000        1.0080           0
   37793 WT2  5122 TIP3 OH2  OT    -0.834000       15.9994           0
   37794 WT2  5122 TIP3 H1   HT     0.417000        1.0080           0
   37795 WT2  5122 TIP3 H2   HT     0.417000        1.0080           0
   37796 WT2  5123 TIP3 OH2  OT    -0.834000       15.9994           0
   37797 WT2  5123 TIP3 H1   HT     0.417000        1.0080           0
   37798 WT2  5123 TIP3 H2   HT     0.417000        1.0080           0
   37799 WT2  5124 TIP3 OH2  OT    -0.834000       15.9994           0
   37800 WT2  5124 TIP3 H1   HT     0.417000        1.0080           0
   37801 WT2  5124 TIP3 H2   HT     0.417000        1.0080           0
   37802 WT2  5126 TIP3 OH2  OT    -0.834000       15.9994           0
   37803 WT2  5126 TIP3 H1   HT     0.417000        1.0080           0
   37804 WT2  5126 TIP3 H2   HT     0.417000        1.0080           0
   37805 WT2  5127 TIP3 OH2  OT    -0.834000       15.9994           0
   37806 WT2  5127 TIP3 H1   HT     0.417000        1.0080           0
   37807 WT2  5127 TIP3 H2   HT     0.417000        1.0080           0
   37808 WT2  5128 TIP3 OH2  OT    -0.834000       15.9994           0
   37809 WT2  5128 TIP3 H1   HT     0.417000        1.0080           0
   37810 WT2  5128 TIP3 H2   HT     0.417000        1.0080           0
   37811 WT2  5129 TIP3 OH2  OT    -0.834000       15.9994           0
   37812 WT2  5129 TIP3 H1   HT     0.417000        1.0080           0
   37813 WT2  5129 TIP3 H2   HT     0.417000        1.0080           0
   37814 WT2  5130 TIP3 OH2  OT    -0.834000       15.9994           0
   37815 WT2  5130 TIP3 H1   HT     0.417000        1.0080           0
   37816 WT2  5130 TIP3 H2   HT     0.417000        1.0080           0
   37817 WT2  5131 TIP3 OH2  OT    -0.834000       15.9994           0
   37818 WT2  5131 TIP3 H1   HT     0.417000        1.0080           0
   37819 WT2  5131 TIP3 H2   HT     0.417000        1.0080           0
   37820 WT2  5132 TIP3 OH2  OT    -0.834000       15.9994           0
   37821 WT2  5132 TIP3 H1   HT     0.417000        1.0080           0
   37822 WT2  5132 TIP3 H2   HT     0.417000        1.0080           0
   37823 WT2  5133 TIP3 OH2  OT    -0.834000       15.9994           0
   37824 WT2  5133 TIP3 H1   HT     0.417000        1.0080           0
   37825 WT2  5133 TIP3 H2   HT     0.417000        1.0080           0
   37826 WT2  5134 TIP3 OH2  OT    -0.834000       15.9994           0
   37827 WT2  5134 TIP3 H1   HT     0.417000        1.0080           0
   37828 WT2  5134 TIP3 H2   HT     0.417000        1.0080           0
   37829 WT2  5135 TIP3 OH2  OT    -0.834000       15.9994           0
   37830 WT2  5135 TIP3 H1   HT     0.417000        1.0080           0
   37831 WT2  5135 TIP3 H2   HT     0.417000        1.0080           0
   37832 WT2  5137 TIP3 OH2  OT    -0.834000       15.9994           0
   37833 WT2  5137 TIP3 H1   HT     0.417000        1.0080           0
   37834 WT2  5137 TIP3 H2   HT     0.417000        1.0080           0
   37835 WT2  5138 TIP3 OH2  OT    -0.834000       15.9994           0
   37836 WT2  5138 TIP3 H1   HT     0.417000        1.0080           0
   37837 WT2  5138 TIP3 H2   HT     0.417000        1.0080           0
   37838 WT2  5139 TIP3 OH2  OT    -0.834000       15.9994           0
   37839 WT2  5139 TIP3 H1   HT     0.417000        1.0080           0
   37840 WT2  5139 TIP3 H2   HT     0.417000        1.0080           0
   37841 WT2  5142 TIP3 OH2  OT    -0.834000       15.9994           0
   37842 WT2  5142 TIP3 H1   HT     0.417000        1.0080           0
   37843 WT2  5142 TIP3 H2   HT     0.417000        1.0080           0
   37844 WT2  5143 TIP3 OH2  OT    -0.834000       15.9994           0
   37845 WT2  5143 TIP3 H1   HT     0.417000        1.0080           0
   37846 WT2  5143 TIP3 H2   HT     0.417000        1.0080           0
   37847 WT2  5144 TIP3 OH2  OT    -0.834000       15.9994           0
   37848 WT2  5144 TIP3 H1   HT     0.417000        1.0080           0
   37849 WT2  5144 TIP3 H2   HT     0.417000        1.0080           0
   37850 WT2  5145 TIP3 OH2  OT    -0.834000       15.9994           0
   37851 WT2  5145 TIP3 H1   HT     0.417000        1.0080           0
   37852 WT2  5145 TIP3 H2   HT     0.417000        1.0080           0
   37853 WT2  5146 TIP3 OH2  OT    -0.834000       15.9994           0
   37854 WT2  5146 TIP3 H1   HT     0.417000        1.0080           0
   37855 WT2  5146 TIP3 H2   HT     0.417000        1.0080           0
   37856 WT2  5148 TIP3 OH2  OT    -0.834000       15.9994           0
   37857 WT2  5148 TIP3 H1   HT     0.417000        1.0080           0
   37858 WT2  5148 TIP3 H2   HT     0.417000        1.0080           0
   37859 WT2  5149 TIP3 OH2  OT    -0.834000       15.9994           0
   37860 WT2  5149 TIP3 H1   HT     0.417000        1.0080           0
   37861 WT2  5149 TIP3 H2   HT     0.417000        1.0080           0
   37862 WT2  5150 TIP3 OH2  OT    -0.834000       15.9994           0
   37863 WT2  5150 TIP3 H1   HT     0.417000        1.0080           0
   37864 WT2  5150 TIP3 H2   HT     0.417000        1.0080           0
   37865 WT2  5151 TIP3 OH2  OT    -0.834000       15.9994           0
   37866 WT2  5151 TIP3 H1   HT     0.417000        1.0080           0
   37867 WT2  5151 TIP3 H2   HT     0.417000        1.0080           0
   37868 WT2  5152 TIP3 OH2  OT    -0.834000       15.9994           0
   37869 WT2  5152 TIP3 H1   HT     0.417000        1.0080           0
   37870 WT2  5152 TIP3 H2   HT     0.417000        1.0080           0
   37871 WT2  5153 TIP3 OH2  OT    -0.834000       15.9994           0
   37872 WT2  5153 TIP3 H1   HT     0.417000        1.0080           0
   37873 WT2  5153 TIP3 H2   HT     0.417000        1.0080           0
   37874 WT2  5154 TIP3 OH2  OT    -0.834000       15.9994           0
   37875 WT2  5154 TIP3 H1   HT     0.417000        1.0080           0
   37876 WT2  5154 TIP3 H2   HT     0.417000        1.0080           0
   37877 WT2  5155 TIP3 OH2  OT    -0.834000       15.9994           0
   37878 WT2  5155 TIP3 H1   HT     0.417000        1.0080           0
   37879 WT2  5155 TIP3 H2   HT     0.417000        1.0080           0
   37880 WT2  5156 TIP3 OH2  OT    -0.834000       15.9994           0
   37881 WT2  5156 TIP3 H1   HT     0.417000        1.0080           0
   37882 WT2  5156 TIP3 H2   HT     0.417000        1.0080           0
   37883 WT2  5157 TIP3 OH2  OT    -0.834000       15.9994           0
   37884 WT2  5157 TIP3 H1   HT     0.417000        1.0080           0
   37885 WT2  5157 TIP3 H2   HT     0.417000        1.0080           0
   37886 WT2  5159 TIP3 OH2  OT    -0.834000       15.9994           0
   37887 WT2  5159 TIP3 H1   HT     0.417000        1.0080           0
   37888 WT2  5159 TIP3 H2   HT     0.417000        1.0080           0
   37889 WT2  5160 TIP3 OH2  OT    -0.834000       15.9994           0
   37890 WT2  5160 TIP3 H1   HT     0.417000        1.0080           0
   37891 WT2  5160 TIP3 H2   HT     0.417000        1.0080           0
   37892 WT2  5163 TIP3 OH2  OT    -0.834000       15.9994           0
   37893 WT2  5163 TIP3 H1   HT     0.417000        1.0080           0
   37894 WT2  5163 TIP3 H2   HT     0.417000        1.0080           0
   37895 WT2  5164 TIP3 OH2  OT    -0.834000       15.9994           0
   37896 WT2  5164 TIP3 H1   HT     0.417000        1.0080           0
   37897 WT2  5164 TIP3 H2   HT     0.417000        1.0080           0
   37898 WT2  5165 TIP3 OH2  OT    -0.834000       15.9994           0
   37899 WT2  5165 TIP3 H1   HT     0.417000        1.0080           0
   37900 WT2  5165 TIP3 H2   HT     0.417000        1.0080           0
   37901 WT2  5166 TIP3 OH2  OT    -0.834000       15.9994           0
   37902 WT2  5166 TIP3 H1   HT     0.417000        1.0080           0
   37903 WT2  5166 TIP3 H2   HT     0.417000        1.0080           0
   37904 WT2  5167 TIP3 OH2  OT    -0.834000       15.9994           0
   37905 WT2  5167 TIP3 H1   HT     0.417000        1.0080           0
   37906 WT2  5167 TIP3 H2   HT     0.417000        1.0080           0
   37907 WT2  5168 TIP3 OH2  OT    -0.834000       15.9994           0
   37908 WT2  5168 TIP3 H1   HT     0.417000        1.0080           0
   37909 WT2  5168 TIP3 H2   HT     0.417000        1.0080           0
   37910 WT2  5169 TIP3 OH2  OT    -0.834000       15.9994           0
   37911 WT2  5169 TIP3 H1   HT     0.417000        1.0080           0
   37912 WT2  5169 TIP3 H2   HT     0.417000        1.0080           0
   37913 WT2  5171 TIP3 OH2  OT    -0.834000       15.9994           0
   37914 WT2  5171 TIP3 H1   HT     0.417000        1.0080           0
   37915 WT2  5171 TIP3 H2   HT     0.417000        1.0080           0
   37916 WT2  5172 TIP3 OH2  OT    -0.834000       15.9994           0
   37917 WT2  5172 TIP3 H1   HT     0.417000        1.0080           0
   37918 WT2  5172 TIP3 H2   HT     0.417000        1.0080           0
   37919 WT2  5173 TIP3 OH2  OT    -0.834000       15.9994           0
   37920 WT2  5173 TIP3 H1   HT     0.417000        1.0080           0
   37921 WT2  5173 TIP3 H2   HT     0.417000        1.0080           0
   37922 WT2  5174 TIP3 OH2  OT    -0.834000       15.9994           0
   37923 WT2  5174 TIP3 H1   HT     0.417000        1.0080           0
   37924 WT2  5174 TIP3 H2   HT     0.417000        1.0080           0
   37925 WT2  5175 TIP3 OH2  OT    -0.834000       15.9994           0
   37926 WT2  5175 TIP3 H1   HT     0.417000        1.0080           0
   37927 WT2  5175 TIP3 H2   HT     0.417000        1.0080           0
   37928 WT2  5176 TIP3 OH2  OT    -0.834000       15.9994           0
   37929 WT2  5176 TIP3 H1   HT     0.417000        1.0080           0
   37930 WT2  5176 TIP3 H2   HT     0.417000        1.0080           0
   37931 WT2  5177 TIP3 OH2  OT    -0.834000       15.9994           0
   37932 WT2  5177 TIP3 H1   HT     0.417000        1.0080           0
   37933 WT2  5177 TIP3 H2   HT     0.417000        1.0080           0
   37934 WT2  5178 TIP3 OH2  OT    -0.834000       15.9994           0
   37935 WT2  5178 TIP3 H1   HT     0.417000        1.0080           0
   37936 WT2  5178 TIP3 H2   HT     0.417000        1.0080           0
   37937 WT2  5179 TIP3 OH2  OT    -0.834000       15.9994           0
   37938 WT2  5179 TIP3 H1   HT     0.417000        1.0080           0
   37939 WT2  5179 TIP3 H2   HT     0.417000        1.0080           0
   37940 WT2  5180 TIP3 OH2  OT    -0.834000       15.9994           0
   37941 WT2  5180 TIP3 H1   HT     0.417000        1.0080           0
   37942 WT2  5180 TIP3 H2   HT     0.417000        1.0080           0
   37943 WT2  5181 TIP3 OH2  OT    -0.834000       15.9994           0
   37944 WT2  5181 TIP3 H1   HT     0.417000        1.0080           0
   37945 WT2  5181 TIP3 H2   HT     0.417000        1.0080           0
   37946 WT2  5182 TIP3 OH2  OT    -0.834000       15.9994           0
   37947 WT2  5182 TIP3 H1   HT     0.417000        1.0080           0
   37948 WT2  5182 TIP3 H2   HT     0.417000        1.0080           0
   37949 WT2  5183 TIP3 OH2  OT    -0.834000       15.9994           0
   37950 WT2  5183 TIP3 H1   HT     0.417000        1.0080           0
   37951 WT2  5183 TIP3 H2   HT     0.417000        1.0080           0
   37952 WT2  5184 TIP3 OH2  OT    -0.834000       15.9994           0
   37953 WT2  5184 TIP3 H1   HT     0.417000        1.0080           0
   37954 WT2  5184 TIP3 H2   HT     0.417000        1.0080           0
   37955 WT2  5186 TIP3 OH2  OT    -0.834000       15.9994           0
   37956 WT2  5186 TIP3 H1   HT     0.417000        1.0080           0
   37957 WT2  5186 TIP3 H2   HT     0.417000        1.0080           0
   37958 WT2  5187 TIP3 OH2  OT    -0.834000       15.9994           0
   37959 WT2  5187 TIP3 H1   HT     0.417000        1.0080           0
   37960 WT2  5187 TIP3 H2   HT     0.417000        1.0080           0
   37961 WT2  5188 TIP3 OH2  OT    -0.834000       15.9994           0
   37962 WT2  5188 TIP3 H1   HT     0.417000        1.0080           0
   37963 WT2  5188 TIP3 H2   HT     0.417000        1.0080           0
   37964 WT2  5189 TIP3 OH2  OT    -0.834000       15.9994           0
   37965 WT2  5189 TIP3 H1   HT     0.417000        1.0080           0
   37966 WT2  5189 TIP3 H2   HT     0.417000        1.0080           0
   37967 WT2  5190 TIP3 OH2  OT    -0.834000       15.9994           0
   37968 WT2  5190 TIP3 H1   HT     0.417000        1.0080           0
   37969 WT2  5190 TIP3 H2   HT     0.417000        1.0080           0
   37970 WT2  5192 TIP3 OH2  OT    -0.834000       15.9994           0
   37971 WT2  5192 TIP3 H1   HT     0.417000        1.0080           0
   37972 WT2  5192 TIP3 H2   HT     0.417000        1.0080           0
   37973 WT2  5193 TIP3 OH2  OT    -0.834000       15.9994           0
   37974 WT2  5193 TIP3 H1   HT     0.417000        1.0080           0
   37975 WT2  5193 TIP3 H2   HT     0.417000        1.0080           0
   37976 WT2  5194 TIP3 OH2  OT    -0.834000       15.9994           0
   37977 WT2  5194 TIP3 H1   HT     0.417000        1.0080           0
   37978 WT2  5194 TIP3 H2   HT     0.417000        1.0080           0
   37979 WT2  5195 TIP3 OH2  OT    -0.834000       15.9994           0
   37980 WT2  5195 TIP3 H1   HT     0.417000        1.0080           0
   37981 WT2  5195 TIP3 H2   HT     0.417000        1.0080           0
   37982 WT2  5197 TIP3 OH2  OT    -0.834000       15.9994           0
   37983 WT2  5197 TIP3 H1   HT     0.417000        1.0080           0
   37984 WT2  5197 TIP3 H2   HT     0.417000        1.0080           0
   37985 WT2  5200 TIP3 OH2  OT    -0.834000       15.9994           0
   37986 WT2  5200 TIP3 H1   HT     0.417000        1.0080           0
   37987 WT2  5200 TIP3 H2   HT     0.417000        1.0080           0
   37988 WT2  5201 TIP3 OH2  OT    -0.834000       15.9994           0
   37989 WT2  5201 TIP3 H1   HT     0.417000        1.0080           0
   37990 WT2  5201 TIP3 H2   HT     0.417000        1.0080           0
   37991 WT2  5202 TIP3 OH2  OT    -0.834000       15.9994           0
   37992 WT2  5202 TIP3 H1   HT     0.417000        1.0080           0
   37993 WT2  5202 TIP3 H2   HT     0.417000        1.0080           0
   37994 WT2  5203 TIP3 OH2  OT    -0.834000       15.9994           0
   37995 WT2  5203 TIP3 H1   HT     0.417000        1.0080           0
   37996 WT2  5203 TIP3 H2   HT     0.417000        1.0080           0
   37997 WT2  5204 TIP3 OH2  OT    -0.834000       15.9994           0
   37998 WT2  5204 TIP3 H1   HT     0.417000        1.0080           0
   37999 WT2  5204 TIP3 H2   HT     0.417000        1.0080           0
   38000 WT2  5205 TIP3 OH2  OT    -0.834000       15.9994           0
   38001 WT2  5205 TIP3 H1   HT     0.417000        1.0080           0
   38002 WT2  5205 TIP3 H2   HT     0.417000        1.0080           0
   38003 WT2  5206 TIP3 OH2  OT    -0.834000       15.9994           0
   38004 WT2  5206 TIP3 H1   HT     0.417000        1.0080           0
   38005 WT2  5206 TIP3 H2   HT     0.417000        1.0080           0
   38006 WT2  5207 TIP3 OH2  OT    -0.834000       15.9994           0
   38007 WT2  5207 TIP3 H1   HT     0.417000        1.0080           0
   38008 WT2  5207 TIP3 H2   HT     0.417000        1.0080           0
   38009 WT2  5208 TIP3 OH2  OT    -0.834000       15.9994           0
   38010 WT2  5208 TIP3 H1   HT     0.417000        1.0080           0
   38011 WT2  5208 TIP3 H2   HT     0.417000        1.0080           0
   38012 WT2  5209 TIP3 OH2  OT    -0.834000       15.9994           0
   38013 WT2  5209 TIP3 H1   HT     0.417000        1.0080           0
   38014 WT2  5209 TIP3 H2   HT     0.417000        1.0080           0
   38015 WT2  5210 TIP3 OH2  OT    -0.834000       15.9994           0
   38016 WT2  5210 TIP3 H1   HT     0.417000        1.0080           0
   38017 WT2  5210 TIP3 H2   HT     0.417000        1.0080           0
   38018 WT2  5212 TIP3 OH2  OT    -0.834000       15.9994           0
   38019 WT2  5212 TIP3 H1   HT     0.417000        1.0080           0
   38020 WT2  5212 TIP3 H2   HT     0.417000        1.0080           0
   38021 WT2  5213 TIP3 OH2  OT    -0.834000       15.9994           0
   38022 WT2  5213 TIP3 H1   HT     0.417000        1.0080           0
   38023 WT2  5213 TIP3 H2   HT     0.417000        1.0080           0
   38024 WT2  5214 TIP3 OH2  OT    -0.834000       15.9994           0
   38025 WT2  5214 TIP3 H1   HT     0.417000        1.0080           0
   38026 WT2  5214 TIP3 H2   HT     0.417000        1.0080           0
   38027 WT2  5215 TIP3 OH2  OT    -0.834000       15.9994           0
   38028 WT2  5215 TIP3 H1   HT     0.417000        1.0080           0
   38029 WT2  5215 TIP3 H2   HT     0.417000        1.0080           0
   38030 WT2  5216 TIP3 OH2  OT    -0.834000       15.9994           0
   38031 WT2  5216 TIP3 H1   HT     0.417000        1.0080           0
   38032 WT2  5216 TIP3 H2   HT     0.417000        1.0080           0
   38033 WT2  5217 TIP3 OH2  OT    -0.834000       15.9994           0
   38034 WT2  5217 TIP3 H1   HT     0.417000        1.0080           0
   38035 WT2  5217 TIP3 H2   HT     0.417000        1.0080           0
   38036 WT2  5218 TIP3 OH2  OT    -0.834000       15.9994           0
   38037 WT2  5218 TIP3 H1   HT     0.417000        1.0080           0
   38038 WT2  5218 TIP3 H2   HT     0.417000        1.0080           0
   38039 WT2  5219 TIP3 OH2  OT    -0.834000       15.9994           0
   38040 WT2  5219 TIP3 H1   HT     0.417000        1.0080           0
   38041 WT2  5219 TIP3 H2   HT     0.417000        1.0080           0
   38042 WT2  5220 TIP3 OH2  OT    -0.834000       15.9994           0
   38043 WT2  5220 TIP3 H1   HT     0.417000        1.0080           0
   38044 WT2  5220 TIP3 H2   HT     0.417000        1.0080           0
   38045 WT2  5221 TIP3 OH2  OT    -0.834000       15.9994           0
   38046 WT2  5221 TIP3 H1   HT     0.417000        1.0080           0
   38047 WT2  5221 TIP3 H2   HT     0.417000        1.0080           0
   38048 WT2  5222 TIP3 OH2  OT    -0.834000       15.9994           0
   38049 WT2  5222 TIP3 H1   HT     0.417000        1.0080           0
   38050 WT2  5222 TIP3 H2   HT     0.417000        1.0080           0
   38051 WT2  5223 TIP3 OH2  OT    -0.834000       15.9994           0
   38052 WT2  5223 TIP3 H1   HT     0.417000        1.0080           0
   38053 WT2  5223 TIP3 H2   HT     0.417000        1.0080           0
   38054 WT2  5224 TIP3 OH2  OT    -0.834000       15.9994           0
   38055 WT2  5224 TIP3 H1   HT     0.417000        1.0080           0
   38056 WT2  5224 TIP3 H2   HT     0.417000        1.0080           0
   38057 WT2  5225 TIP3 OH2  OT    -0.834000       15.9994           0
   38058 WT2  5225 TIP3 H1   HT     0.417000        1.0080           0
   38059 WT2  5225 TIP3 H2   HT     0.417000        1.0080           0
   38060 WT2  5226 TIP3 OH2  OT    -0.834000       15.9994           0
   38061 WT2  5226 TIP3 H1   HT     0.417000        1.0080           0
   38062 WT2  5226 TIP3 H2   HT     0.417000        1.0080           0
   38063 WT2  5227 TIP3 OH2  OT    -0.834000       15.9994           0
   38064 WT2  5227 TIP3 H1   HT     0.417000        1.0080           0
   38065 WT2  5227 TIP3 H2   HT     0.417000        1.0080           0
   38066 WT2  5228 TIP3 OH2  OT    -0.834000       15.9994           0
   38067 WT2  5228 TIP3 H1   HT     0.417000        1.0080           0
   38068 WT2  5228 TIP3 H2   HT     0.417000        1.0080           0
   38069 WT2  5230 TIP3 OH2  OT    -0.834000       15.9994           0
   38070 WT2  5230 TIP3 H1   HT     0.417000        1.0080           0
   38071 WT2  5230 TIP3 H2   HT     0.417000        1.0080           0
   38072 WT2  5231 TIP3 OH2  OT    -0.834000       15.9994           0
   38073 WT2  5231 TIP3 H1   HT     0.417000        1.0080           0
   38074 WT2  5231 TIP3 H2   HT     0.417000        1.0080           0
   38075 WT2  5232 TIP3 OH2  OT    -0.834000       15.9994           0
   38076 WT2  5232 TIP3 H1   HT     0.417000        1.0080           0
   38077 WT2  5232 TIP3 H2   HT     0.417000        1.0080           0
   38078 WT2  5233 TIP3 OH2  OT    -0.834000       15.9994           0
   38079 WT2  5233 TIP3 H1   HT     0.417000        1.0080           0
   38080 WT2  5233 TIP3 H2   HT     0.417000        1.0080           0
   38081 WT2  5234 TIP3 OH2  OT    -0.834000       15.9994           0
   38082 WT2  5234 TIP3 H1   HT     0.417000        1.0080           0
   38083 WT2  5234 TIP3 H2   HT     0.417000        1.0080           0
   38084 WT2  5235 TIP3 OH2  OT    -0.834000       15.9994           0
   38085 WT2  5235 TIP3 H1   HT     0.417000        1.0080           0
   38086 WT2  5235 TIP3 H2   HT     0.417000        1.0080           0
   38087 WT2  5236 TIP3 OH2  OT    -0.834000       15.9994           0
   38088 WT2  5236 TIP3 H1   HT     0.417000        1.0080           0
   38089 WT2  5236 TIP3 H2   HT     0.417000        1.0080           0
   38090 WT2  5237 TIP3 OH2  OT    -0.834000       15.9994           0
   38091 WT2  5237 TIP3 H1   HT     0.417000        1.0080           0
   38092 WT2  5237 TIP3 H2   HT     0.417000        1.0080           0
   38093 WT2  5238 TIP3 OH2  OT    -0.834000       15.9994           0
   38094 WT2  5238 TIP3 H1   HT     0.417000        1.0080           0
   38095 WT2  5238 TIP3 H2   HT     0.417000        1.0080           0
   38096 WT2  5239 TIP3 OH2  OT    -0.834000       15.9994           0
   38097 WT2  5239 TIP3 H1   HT     0.417000        1.0080           0
   38098 WT2  5239 TIP3 H2   HT     0.417000        1.0080           0
   38099 WT2  5240 TIP3 OH2  OT    -0.834000       15.9994           0
   38100 WT2  5240 TIP3 H1   HT     0.417000        1.0080           0
   38101 WT2  5240 TIP3 H2   HT     0.417000        1.0080           0
   38102 WT2  5241 TIP3 OH2  OT    -0.834000       15.9994           0
   38103 WT2  5241 TIP3 H1   HT     0.417000        1.0080           0
   38104 WT2  5241 TIP3 H2   HT     0.417000        1.0080           0
   38105 WT2  5242 TIP3 OH2  OT    -0.834000       15.9994           0
   38106 WT2  5242 TIP3 H1   HT     0.417000        1.0080           0
   38107 WT2  5242 TIP3 H2   HT     0.417000        1.0080           0
   38108 WT2  5243 TIP3 OH2  OT    -0.834000       15.9994           0
   38109 WT2  5243 TIP3 H1   HT     0.417000        1.0080           0
   38110 WT2  5243 TIP3 H2   HT     0.417000        1.0080           0
   38111 WT2  5244 TIP3 OH2  OT    -0.834000       15.9994           0
   38112 WT2  5244 TIP3 H1   HT     0.417000        1.0080           0
   38113 WT2  5244 TIP3 H2   HT     0.417000        1.0080           0
   38114 WT2  5245 TIP3 OH2  OT    -0.834000       15.9994           0
   38115 WT2  5245 TIP3 H1   HT     0.417000        1.0080           0
   38116 WT2  5245 TIP3 H2   HT     0.417000        1.0080           0
   38117 WT2  5246 TIP3 OH2  OT    -0.834000       15.9994           0
   38118 WT2  5246 TIP3 H1   HT     0.417000        1.0080           0
   38119 WT2  5246 TIP3 H2   HT     0.417000        1.0080           0
   38120 WT2  5247 TIP3 OH2  OT    -0.834000       15.9994           0
   38121 WT2  5247 TIP3 H1   HT     0.417000        1.0080           0
   38122 WT2  5247 TIP3 H2   HT     0.417000        1.0080           0
   38123 WT2  5248 TIP3 OH2  OT    -0.834000       15.9994           0
   38124 WT2  5248 TIP3 H1   HT     0.417000        1.0080           0
   38125 WT2  5248 TIP3 H2   HT     0.417000        1.0080           0
   38126 WT2  5249 TIP3 OH2  OT    -0.834000       15.9994           0
   38127 WT2  5249 TIP3 H1   HT     0.417000        1.0080           0
   38128 WT2  5249 TIP3 H2   HT     0.417000        1.0080           0
   38129 WT2  5251 TIP3 OH2  OT    -0.834000       15.9994           0
   38130 WT2  5251 TIP3 H1   HT     0.417000        1.0080           0
   38131 WT2  5251 TIP3 H2   HT     0.417000        1.0080           0
   38132 WT2  5252 TIP3 OH2  OT    -0.834000       15.9994           0
   38133 WT2  5252 TIP3 H1   HT     0.417000        1.0080           0
   38134 WT2  5252 TIP3 H2   HT     0.417000        1.0080           0
   38135 WT2  5253 TIP3 OH2  OT    -0.834000       15.9994           0
   38136 WT2  5253 TIP3 H1   HT     0.417000        1.0080           0
   38137 WT2  5253 TIP3 H2   HT     0.417000        1.0080           0
   38138 WT2  5254 TIP3 OH2  OT    -0.834000       15.9994           0
   38139 WT2  5254 TIP3 H1   HT     0.417000        1.0080           0
   38140 WT2  5254 TIP3 H2   HT     0.417000        1.0080           0
   38141 WT2  5255 TIP3 OH2  OT    -0.834000       15.9994           0
   38142 WT2  5255 TIP3 H1   HT     0.417000        1.0080           0
   38143 WT2  5255 TIP3 H2   HT     0.417000        1.0080           0
   38144 WT2  5256 TIP3 OH2  OT    -0.834000       15.9994           0
   38145 WT2  5256 TIP3 H1   HT     0.417000        1.0080           0
   38146 WT2  5256 TIP3 H2   HT     0.417000        1.0080           0
   38147 WT2  5257 TIP3 OH2  OT    -0.834000       15.9994           0
   38148 WT2  5257 TIP3 H1   HT     0.417000        1.0080           0
   38149 WT2  5257 TIP3 H2   HT     0.417000        1.0080           0
   38150 WT2  5258 TIP3 OH2  OT    -0.834000       15.9994           0
   38151 WT2  5258 TIP3 H1   HT     0.417000        1.0080           0
   38152 WT2  5258 TIP3 H2   HT     0.417000        1.0080           0
   38153 WT2  5259 TIP3 OH2  OT    -0.834000       15.9994           0
   38154 WT2  5259 TIP3 H1   HT     0.417000        1.0080           0
   38155 WT2  5259 TIP3 H2   HT     0.417000        1.0080           0
   38156 WT2  5260 TIP3 OH2  OT    -0.834000       15.9994           0
   38157 WT2  5260 TIP3 H1   HT     0.417000        1.0080           0
   38158 WT2  5260 TIP3 H2   HT     0.417000        1.0080           0
   38159 WT2  5261 TIP3 OH2  OT    -0.834000       15.9994           0
   38160 WT2  5261 TIP3 H1   HT     0.417000        1.0080           0
   38161 WT2  5261 TIP3 H2   HT     0.417000        1.0080           0
   38162 WT2  5262 TIP3 OH2  OT    -0.834000       15.9994           0
   38163 WT2  5262 TIP3 H1   HT     0.417000        1.0080           0
   38164 WT2  5262 TIP3 H2   HT     0.417000        1.0080           0
   38165 WT2  5263 TIP3 OH2  OT    -0.834000       15.9994           0
   38166 WT2  5263 TIP3 H1   HT     0.417000        1.0080           0
   38167 WT2  5263 TIP3 H2   HT     0.417000        1.0080           0
   38168 WT2  5264 TIP3 OH2  OT    -0.834000       15.9994           0
   38169 WT2  5264 TIP3 H1   HT     0.417000        1.0080           0
   38170 WT2  5264 TIP3 H2   HT     0.417000        1.0080           0
   38171 WT2  5265 TIP3 OH2  OT    -0.834000       15.9994           0
   38172 WT2  5265 TIP3 H1   HT     0.417000        1.0080           0
   38173 WT2  5265 TIP3 H2   HT     0.417000        1.0080           0
   38174 WT2  5266 TIP3 OH2  OT    -0.834000       15.9994           0
   38175 WT2  5266 TIP3 H1   HT     0.417000        1.0080           0
   38176 WT2  5266 TIP3 H2   HT     0.417000        1.0080           0
   38177 WT2  5267 TIP3 OH2  OT    -0.834000       15.9994           0
   38178 WT2  5267 TIP3 H1   HT     0.417000        1.0080           0
   38179 WT2  5267 TIP3 H2   HT     0.417000        1.0080           0
   38180 WT2  5268 TIP3 OH2  OT    -0.834000       15.9994           0
   38181 WT2  5268 TIP3 H1   HT     0.417000        1.0080           0
   38182 WT2  5268 TIP3 H2   HT     0.417000        1.0080           0
   38183 WT2  5269 TIP3 OH2  OT    -0.834000       15.9994           0
   38184 WT2  5269 TIP3 H1   HT     0.417000        1.0080           0
   38185 WT2  5269 TIP3 H2   HT     0.417000        1.0080           0
   38186 WT2  5270 TIP3 OH2  OT    -0.834000       15.9994           0
   38187 WT2  5270 TIP3 H1   HT     0.417000        1.0080           0
   38188 WT2  5270 TIP3 H2   HT     0.417000        1.0080           0
   38189 WT2  5271 TIP3 OH2  OT    -0.834000       15.9994           0
   38190 WT2  5271 TIP3 H1   HT     0.417000        1.0080           0
   38191 WT2  5271 TIP3 H2   HT     0.417000        1.0080           0
   38192 WT2  5272 TIP3 OH2  OT    -0.834000       15.9994           0
   38193 WT2  5272 TIP3 H1   HT     0.417000        1.0080           0
   38194 WT2  5272 TIP3 H2   HT     0.417000        1.0080           0
   38195 WT2  5273 TIP3 OH2  OT    -0.834000       15.9994           0
   38196 WT2  5273 TIP3 H1   HT     0.417000        1.0080           0
   38197 WT2  5273 TIP3 H2   HT     0.417000        1.0080           0
   38198 WT2  5274 TIP3 OH2  OT    -0.834000       15.9994           0
   38199 WT2  5274 TIP3 H1   HT     0.417000        1.0080           0
   38200 WT2  5274 TIP3 H2   HT     0.417000        1.0080           0
   38201 WT2  5275 TIP3 OH2  OT    -0.834000       15.9994           0
   38202 WT2  5275 TIP3 H1   HT     0.417000        1.0080           0
   38203 WT2  5275 TIP3 H2   HT     0.417000        1.0080           0
   38204 WT2  5277 TIP3 OH2  OT    -0.834000       15.9994           0
   38205 WT2  5277 TIP3 H1   HT     0.417000        1.0080           0
   38206 WT2  5277 TIP3 H2   HT     0.417000        1.0080           0
   38207 WT2  5278 TIP3 OH2  OT    -0.834000       15.9994           0
   38208 WT2  5278 TIP3 H1   HT     0.417000        1.0080           0
   38209 WT2  5278 TIP3 H2   HT     0.417000        1.0080           0
   38210 WT2  5279 TIP3 OH2  OT    -0.834000       15.9994           0
   38211 WT2  5279 TIP3 H1   HT     0.417000        1.0080           0
   38212 WT2  5279 TIP3 H2   HT     0.417000        1.0080           0
   38213 WT2  5280 TIP3 OH2  OT    -0.834000       15.9994           0
   38214 WT2  5280 TIP3 H1   HT     0.417000        1.0080           0
   38215 WT2  5280 TIP3 H2   HT     0.417000        1.0080           0
   38216 WT2  5283 TIP3 OH2  OT    -0.834000       15.9994           0
   38217 WT2  5283 TIP3 H1   HT     0.417000        1.0080           0
   38218 WT2  5283 TIP3 H2   HT     0.417000        1.0080           0
   38219 WT2  5284 TIP3 OH2  OT    -0.834000       15.9994           0
   38220 WT2  5284 TIP3 H1   HT     0.417000        1.0080           0
   38221 WT2  5284 TIP3 H2   HT     0.417000        1.0080           0
   38222 WT2  5285 TIP3 OH2  OT    -0.834000       15.9994           0
   38223 WT2  5285 TIP3 H1   HT     0.417000        1.0080           0
   38224 WT2  5285 TIP3 H2   HT     0.417000        1.0080           0
   38225 WT2  5286 TIP3 OH2  OT    -0.834000       15.9994           0
   38226 WT2  5286 TIP3 H1   HT     0.417000        1.0080           0
   38227 WT2  5286 TIP3 H2   HT     0.417000        1.0080           0
   38228 WT2  5287 TIP3 OH2  OT    -0.834000       15.9994           0
   38229 WT2  5287 TIP3 H1   HT     0.417000        1.0080           0
   38230 WT2  5287 TIP3 H2   HT     0.417000        1.0080           0
   38231 WT2  5289 TIP3 OH2  OT    -0.834000       15.9994           0
   38232 WT2  5289 TIP3 H1   HT     0.417000        1.0080           0
   38233 WT2  5289 TIP3 H2   HT     0.417000        1.0080           0
   38234 WT2  5290 TIP3 OH2  OT    -0.834000       15.9994           0
   38235 WT2  5290 TIP3 H1   HT     0.417000        1.0080           0
   38236 WT2  5290 TIP3 H2   HT     0.417000        1.0080           0
   38237 WT2  5291 TIP3 OH2  OT    -0.834000       15.9994           0
   38238 WT2  5291 TIP3 H1   HT     0.417000        1.0080           0
   38239 WT2  5291 TIP3 H2   HT     0.417000        1.0080           0
   38240 WT2  5292 TIP3 OH2  OT    -0.834000       15.9994           0
   38241 WT2  5292 TIP3 H1   HT     0.417000        1.0080           0
   38242 WT2  5292 TIP3 H2   HT     0.417000        1.0080           0
   38243 WT2  5293 TIP3 OH2  OT    -0.834000       15.9994           0
   38244 WT2  5293 TIP3 H1   HT     0.417000        1.0080           0
   38245 WT2  5293 TIP3 H2   HT     0.417000        1.0080           0
   38246 WT2  5294 TIP3 OH2  OT    -0.834000       15.9994           0
   38247 WT2  5294 TIP3 H1   HT     0.417000        1.0080           0
   38248 WT2  5294 TIP3 H2   HT     0.417000        1.0080           0
   38249 WT2  5295 TIP3 OH2  OT    -0.834000       15.9994           0
   38250 WT2  5295 TIP3 H1   HT     0.417000        1.0080           0
   38251 WT2  5295 TIP3 H2   HT     0.417000        1.0080           0
   38252 WT2  5296 TIP3 OH2  OT    -0.834000       15.9994           0
   38253 WT2  5296 TIP3 H1   HT     0.417000        1.0080           0
   38254 WT2  5296 TIP3 H2   HT     0.417000        1.0080           0
   38255 WT2  5297 TIP3 OH2  OT    -0.834000       15.9994           0
   38256 WT2  5297 TIP3 H1   HT     0.417000        1.0080           0
   38257 WT2  5297 TIP3 H2   HT     0.417000        1.0080           0
   38258 WT2  5298 TIP3 OH2  OT    -0.834000       15.9994           0
   38259 WT2  5298 TIP3 H1   HT     0.417000        1.0080           0
   38260 WT2  5298 TIP3 H2   HT     0.417000        1.0080           0
   38261 WT2  5299 TIP3 OH2  OT    -0.834000       15.9994           0
   38262 WT2  5299 TIP3 H1   HT     0.417000        1.0080           0
   38263 WT2  5299 TIP3 H2   HT     0.417000        1.0080           0
   38264 WT2  5300 TIP3 OH2  OT    -0.834000       15.9994           0
   38265 WT2  5300 TIP3 H1   HT     0.417000        1.0080           0
   38266 WT2  5300 TIP3 H2   HT     0.417000        1.0080           0
   38267 WT2  5301 TIP3 OH2  OT    -0.834000       15.9994           0
   38268 WT2  5301 TIP3 H1   HT     0.417000        1.0080           0
   38269 WT2  5301 TIP3 H2   HT     0.417000        1.0080           0
   38270 WT2  5302 TIP3 OH2  OT    -0.834000       15.9994           0
   38271 WT2  5302 TIP3 H1   HT     0.417000        1.0080           0
   38272 WT2  5302 TIP3 H2   HT     0.417000        1.0080           0
   38273 WT2  5303 TIP3 OH2  OT    -0.834000       15.9994           0
   38274 WT2  5303 TIP3 H1   HT     0.417000        1.0080           0
   38275 WT2  5303 TIP3 H2   HT     0.417000        1.0080           0
   38276 WT2  5304 TIP3 OH2  OT    -0.834000       15.9994           0
   38277 WT2  5304 TIP3 H1   HT     0.417000        1.0080           0
   38278 WT2  5304 TIP3 H2   HT     0.417000        1.0080           0
   38279 WT2  5305 TIP3 OH2  OT    -0.834000       15.9994           0
   38280 WT2  5305 TIP3 H1   HT     0.417000        1.0080           0
   38281 WT2  5305 TIP3 H2   HT     0.417000        1.0080           0
   38282 WT2  5306 TIP3 OH2  OT    -0.834000       15.9994           0
   38283 WT2  5306 TIP3 H1   HT     0.417000        1.0080           0
   38284 WT2  5306 TIP3 H2   HT     0.417000        1.0080           0
   38285 WT2  5307 TIP3 OH2  OT    -0.834000       15.9994           0
   38286 WT2  5307 TIP3 H1   HT     0.417000        1.0080           0
   38287 WT2  5307 TIP3 H2   HT     0.417000        1.0080           0
   38288 WT2  5308 TIP3 OH2  OT    -0.834000       15.9994           0
   38289 WT2  5308 TIP3 H1   HT     0.417000        1.0080           0
   38290 WT2  5308 TIP3 H2   HT     0.417000        1.0080           0
   38291 WT2  5309 TIP3 OH2  OT    -0.834000       15.9994           0
   38292 WT2  5309 TIP3 H1   HT     0.417000        1.0080           0
   38293 WT2  5309 TIP3 H2   HT     0.417000        1.0080           0
   38294 WT2  5310 TIP3 OH2  OT    -0.834000       15.9994           0
   38295 WT2  5310 TIP3 H1   HT     0.417000        1.0080           0
   38296 WT2  5310 TIP3 H2   HT     0.417000        1.0080           0
   38297 WT2  5311 TIP3 OH2  OT    -0.834000       15.9994           0
   38298 WT2  5311 TIP3 H1   HT     0.417000        1.0080           0
   38299 WT2  5311 TIP3 H2   HT     0.417000        1.0080           0
   38300 WT2  5312 TIP3 OH2  OT    -0.834000       15.9994           0
   38301 WT2  5312 TIP3 H1   HT     0.417000        1.0080           0
   38302 WT2  5312 TIP3 H2   HT     0.417000        1.0080           0
   38303 WT2  5313 TIP3 OH2  OT    -0.834000       15.9994           0
   38304 WT2  5313 TIP3 H1   HT     0.417000        1.0080           0
   38305 WT2  5313 TIP3 H2   HT     0.417000        1.0080           0
   38306 WT2  5314 TIP3 OH2  OT    -0.834000       15.9994           0
   38307 WT2  5314 TIP3 H1   HT     0.417000        1.0080           0
   38308 WT2  5314 TIP3 H2   HT     0.417000        1.0080           0
   38309 WT2  5315 TIP3 OH2  OT    -0.834000       15.9994           0
   38310 WT2  5315 TIP3 H1   HT     0.417000        1.0080           0
   38311 WT2  5315 TIP3 H2   HT     0.417000        1.0080           0
   38312 WT2  5316 TIP3 OH2  OT    -0.834000       15.9994           0
   38313 WT2  5316 TIP3 H1   HT     0.417000        1.0080           0
   38314 WT2  5316 TIP3 H2   HT     0.417000        1.0080           0
   38315 WT2  5317 TIP3 OH2  OT    -0.834000       15.9994           0
   38316 WT2  5317 TIP3 H1   HT     0.417000        1.0080           0
   38317 WT2  5317 TIP3 H2   HT     0.417000        1.0080           0
   38318 WT2  5318 TIP3 OH2  OT    -0.834000       15.9994           0
   38319 WT2  5318 TIP3 H1   HT     0.417000        1.0080           0
   38320 WT2  5318 TIP3 H2   HT     0.417000        1.0080           0
   38321 WT2  5319 TIP3 OH2  OT    -0.834000       15.9994           0
   38322 WT2  5319 TIP3 H1   HT     0.417000        1.0080           0
   38323 WT2  5319 TIP3 H2   HT     0.417000        1.0080           0
   38324 WT2  5321 TIP3 OH2  OT    -0.834000       15.9994           0
   38325 WT2  5321 TIP3 H1   HT     0.417000        1.0080           0
   38326 WT2  5321 TIP3 H2   HT     0.417000        1.0080           0
   38327 WT2  5322 TIP3 OH2  OT    -0.834000       15.9994           0
   38328 WT2  5322 TIP3 H1   HT     0.417000        1.0080           0
   38329 WT2  5322 TIP3 H2   HT     0.417000        1.0080           0
   38330 WT2  5324 TIP3 OH2  OT    -0.834000       15.9994           0
   38331 WT2  5324 TIP3 H1   HT     0.417000        1.0080           0
   38332 WT2  5324 TIP3 H2   HT     0.417000        1.0080           0
   38333 WT2  5325 TIP3 OH2  OT    -0.834000       15.9994           0
   38334 WT2  5325 TIP3 H1   HT     0.417000        1.0080           0
   38335 WT2  5325 TIP3 H2   HT     0.417000        1.0080           0
   38336 WT2  5329 TIP3 OH2  OT    -0.834000       15.9994           0
   38337 WT2  5329 TIP3 H1   HT     0.417000        1.0080           0
   38338 WT2  5329 TIP3 H2   HT     0.417000        1.0080           0
   38339 WT2  5330 TIP3 OH2  OT    -0.834000       15.9994           0
   38340 WT2  5330 TIP3 H1   HT     0.417000        1.0080           0
   38341 WT2  5330 TIP3 H2   HT     0.417000        1.0080           0
   38342 WT2  5331 TIP3 OH2  OT    -0.834000       15.9994           0
   38343 WT2  5331 TIP3 H1   HT     0.417000        1.0080           0
   38344 WT2  5331 TIP3 H2   HT     0.417000        1.0080           0
   38345 WT2  5333 TIP3 OH2  OT    -0.834000       15.9994           0
   38346 WT2  5333 TIP3 H1   HT     0.417000        1.0080           0
   38347 WT2  5333 TIP3 H2   HT     0.417000        1.0080           0
   38348 WT2  5334 TIP3 OH2  OT    -0.834000       15.9994           0
   38349 WT2  5334 TIP3 H1   HT     0.417000        1.0080           0
   38350 WT2  5334 TIP3 H2   HT     0.417000        1.0080           0
   38351 WT2  5335 TIP3 OH2  OT    -0.834000       15.9994           0
   38352 WT2  5335 TIP3 H1   HT     0.417000        1.0080           0
   38353 WT2  5335 TIP3 H2   HT     0.417000        1.0080           0
   38354 WT2  5336 TIP3 OH2  OT    -0.834000       15.9994           0
   38355 WT2  5336 TIP3 H1   HT     0.417000        1.0080           0
   38356 WT2  5336 TIP3 H2   HT     0.417000        1.0080           0
   38357 WT2  5337 TIP3 OH2  OT    -0.834000       15.9994           0
   38358 WT2  5337 TIP3 H1   HT     0.417000        1.0080           0
   38359 WT2  5337 TIP3 H2   HT     0.417000        1.0080           0
   38360 WT2  5338 TIP3 OH2  OT    -0.834000       15.9994           0
   38361 WT2  5338 TIP3 H1   HT     0.417000        1.0080           0
   38362 WT2  5338 TIP3 H2   HT     0.417000        1.0080           0
   38363 WT2  5339 TIP3 OH2  OT    -0.834000       15.9994           0
   38364 WT2  5339 TIP3 H1   HT     0.417000        1.0080           0
   38365 WT2  5339 TIP3 H2   HT     0.417000        1.0080           0
   38366 WT2  5340 TIP3 OH2  OT    -0.834000       15.9994           0
   38367 WT2  5340 TIP3 H1   HT     0.417000        1.0080           0
   38368 WT2  5340 TIP3 H2   HT     0.417000        1.0080           0
   38369 WT2  5341 TIP3 OH2  OT    -0.834000       15.9994           0
   38370 WT2  5341 TIP3 H1   HT     0.417000        1.0080           0
   38371 WT2  5341 TIP3 H2   HT     0.417000        1.0080           0
   38372 WT2  5343 TIP3 OH2  OT    -0.834000       15.9994           0
   38373 WT2  5343 TIP3 H1   HT     0.417000        1.0080           0
   38374 WT2  5343 TIP3 H2   HT     0.417000        1.0080           0
   38375 WT2  5344 TIP3 OH2  OT    -0.834000       15.9994           0
   38376 WT2  5344 TIP3 H1   HT     0.417000        1.0080           0
   38377 WT2  5344 TIP3 H2   HT     0.417000        1.0080           0
   38378 WT2  5347 TIP3 OH2  OT    -0.834000       15.9994           0
   38379 WT2  5347 TIP3 H1   HT     0.417000        1.0080           0
   38380 WT2  5347 TIP3 H2   HT     0.417000        1.0080           0
   38381 WT2  5348 TIP3 OH2  OT    -0.834000       15.9994           0
   38382 WT2  5348 TIP3 H1   HT     0.417000        1.0080           0
   38383 WT2  5348 TIP3 H2   HT     0.417000        1.0080           0
   38384 WT2  5349 TIP3 OH2  OT    -0.834000       15.9994           0
   38385 WT2  5349 TIP3 H1   HT     0.417000        1.0080           0
   38386 WT2  5349 TIP3 H2   HT     0.417000        1.0080           0
   38387 WT2  5350 TIP3 OH2  OT    -0.834000       15.9994           0
   38388 WT2  5350 TIP3 H1   HT     0.417000        1.0080           0
   38389 WT2  5350 TIP3 H2   HT     0.417000        1.0080           0
   38390 WT2  5351 TIP3 OH2  OT    -0.834000       15.9994           0
   38391 WT2  5351 TIP3 H1   HT     0.417000        1.0080           0
   38392 WT2  5351 TIP3 H2   HT     0.417000        1.0080           0
   38393 WT2  5352 TIP3 OH2  OT    -0.834000       15.9994           0
   38394 WT2  5352 TIP3 H1   HT     0.417000        1.0080           0
   38395 WT2  5352 TIP3 H2   HT     0.417000        1.0080           0
   38396 WT2  5353 TIP3 OH2  OT    -0.834000       15.9994           0
   38397 WT2  5353 TIP3 H1   HT     0.417000        1.0080           0
   38398 WT2  5353 TIP3 H2   HT     0.417000        1.0080           0
   38399 WT2  5354 TIP3 OH2  OT    -0.834000       15.9994           0
   38400 WT2  5354 TIP3 H1   HT     0.417000        1.0080           0
   38401 WT2  5354 TIP3 H2   HT     0.417000        1.0080           0
   38402 WT2  5355 TIP3 OH2  OT    -0.834000       15.9994           0
   38403 WT2  5355 TIP3 H1   HT     0.417000        1.0080           0
   38404 WT2  5355 TIP3 H2   HT     0.417000        1.0080           0
   38405 WT2  5356 TIP3 OH2  OT    -0.834000       15.9994           0
   38406 WT2  5356 TIP3 H1   HT     0.417000        1.0080           0
   38407 WT2  5356 TIP3 H2   HT     0.417000        1.0080           0
   38408 WT2  5358 TIP3 OH2  OT    -0.834000       15.9994           0
   38409 WT2  5358 TIP3 H1   HT     0.417000        1.0080           0
   38410 WT2  5358 TIP3 H2   HT     0.417000        1.0080           0
   38411 WT2  5359 TIP3 OH2  OT    -0.834000       15.9994           0
   38412 WT2  5359 TIP3 H1   HT     0.417000        1.0080           0
   38413 WT2  5359 TIP3 H2   HT     0.417000        1.0080           0
   38414 WT2  5360 TIP3 OH2  OT    -0.834000       15.9994           0
   38415 WT2  5360 TIP3 H1   HT     0.417000        1.0080           0
   38416 WT2  5360 TIP3 H2   HT     0.417000        1.0080           0
   38417 WT2  5361 TIP3 OH2  OT    -0.834000       15.9994           0
   38418 WT2  5361 TIP3 H1   HT     0.417000        1.0080           0
   38419 WT2  5361 TIP3 H2   HT     0.417000        1.0080           0
   38420 WT2  5362 TIP3 OH2  OT    -0.834000       15.9994           0
   38421 WT2  5362 TIP3 H1   HT     0.417000        1.0080           0
   38422 WT2  5362 TIP3 H2   HT     0.417000        1.0080           0
   38423 WT2  5364 TIP3 OH2  OT    -0.834000       15.9994           0
   38424 WT2  5364 TIP3 H1   HT     0.417000        1.0080           0
   38425 WT2  5364 TIP3 H2   HT     0.417000        1.0080           0
   38426 WT2  5365 TIP3 OH2  OT    -0.834000       15.9994           0
   38427 WT2  5365 TIP3 H1   HT     0.417000        1.0080           0
   38428 WT2  5365 TIP3 H2   HT     0.417000        1.0080           0
   38429 WT2  5366 TIP3 OH2  OT    -0.834000       15.9994           0
   38430 WT2  5366 TIP3 H1   HT     0.417000        1.0080           0
   38431 WT2  5366 TIP3 H2   HT     0.417000        1.0080           0
   38432 WT2  5367 TIP3 OH2  OT    -0.834000       15.9994           0
   38433 WT2  5367 TIP3 H1   HT     0.417000        1.0080           0
   38434 WT2  5367 TIP3 H2   HT     0.417000        1.0080           0
   38435 WT2  5368 TIP3 OH2  OT    -0.834000       15.9994           0
   38436 WT2  5368 TIP3 H1   HT     0.417000        1.0080           0
   38437 WT2  5368 TIP3 H2   HT     0.417000        1.0080           0
   38438 WT2  5369 TIP3 OH2  OT    -0.834000       15.9994           0
   38439 WT2  5369 TIP3 H1   HT     0.417000        1.0080           0
   38440 WT2  5369 TIP3 H2   HT     0.417000        1.0080           0
   38441 WT2  5370 TIP3 OH2  OT    -0.834000       15.9994           0
   38442 WT2  5370 TIP3 H1   HT     0.417000        1.0080           0
   38443 WT2  5370 TIP3 H2   HT     0.417000        1.0080           0
   38444 WT2  5372 TIP3 OH2  OT    -0.834000       15.9994           0
   38445 WT2  5372 TIP3 H1   HT     0.417000        1.0080           0
   38446 WT2  5372 TIP3 H2   HT     0.417000        1.0080           0
   38447 WT2  5373 TIP3 OH2  OT    -0.834000       15.9994           0
   38448 WT2  5373 TIP3 H1   HT     0.417000        1.0080           0
   38449 WT2  5373 TIP3 H2   HT     0.417000        1.0080           0
   38450 WT2  5374 TIP3 OH2  OT    -0.834000       15.9994           0
   38451 WT2  5374 TIP3 H1   HT     0.417000        1.0080           0
   38452 WT2  5374 TIP3 H2   HT     0.417000        1.0080           0
   38453 WT2  5375 TIP3 OH2  OT    -0.834000       15.9994           0
   38454 WT2  5375 TIP3 H1   HT     0.417000        1.0080           0
   38455 WT2  5375 TIP3 H2   HT     0.417000        1.0080           0
   38456 WT2  5376 TIP3 OH2  OT    -0.834000       15.9994           0
   38457 WT2  5376 TIP3 H1   HT     0.417000        1.0080           0
   38458 WT2  5376 TIP3 H2   HT     0.417000        1.0080           0
   38459 WT2  5377 TIP3 OH2  OT    -0.834000       15.9994           0
   38460 WT2  5377 TIP3 H1   HT     0.417000        1.0080           0
   38461 WT2  5377 TIP3 H2   HT     0.417000        1.0080           0
   38462 WT2  5378 TIP3 OH2  OT    -0.834000       15.9994           0
   38463 WT2  5378 TIP3 H1   HT     0.417000        1.0080           0
   38464 WT2  5378 TIP3 H2   HT     0.417000        1.0080           0
   38465 WT2  5379 TIP3 OH2  OT    -0.834000       15.9994           0
   38466 WT2  5379 TIP3 H1   HT     0.417000        1.0080           0
   38467 WT2  5379 TIP3 H2   HT     0.417000        1.0080           0
   38468 WT2  5380 TIP3 OH2  OT    -0.834000       15.9994           0
   38469 WT2  5380 TIP3 H1   HT     0.417000        1.0080           0
   38470 WT2  5380 TIP3 H2   HT     0.417000        1.0080           0
   38471 WT2  5381 TIP3 OH2  OT    -0.834000       15.9994           0
   38472 WT2  5381 TIP3 H1   HT     0.417000        1.0080           0
   38473 WT2  5381 TIP3 H2   HT     0.417000        1.0080           0
   38474 WT2  5382 TIP3 OH2  OT    -0.834000       15.9994           0
   38475 WT2  5382 TIP3 H1   HT     0.417000        1.0080           0
   38476 WT2  5382 TIP3 H2   HT     0.417000        1.0080           0
   38477 WT2  5383 TIP3 OH2  OT    -0.834000       15.9994           0
   38478 WT2  5383 TIP3 H1   HT     0.417000        1.0080           0
   38479 WT2  5383 TIP3 H2   HT     0.417000        1.0080           0
   38480 WT2  5384 TIP3 OH2  OT    -0.834000       15.9994           0
   38481 WT2  5384 TIP3 H1   HT     0.417000        1.0080           0
   38482 WT2  5384 TIP3 H2   HT     0.417000        1.0080           0
   38483 WT2  5385 TIP3 OH2  OT    -0.834000       15.9994           0
   38484 WT2  5385 TIP3 H1   HT     0.417000        1.0080           0
   38485 WT2  5385 TIP3 H2   HT     0.417000        1.0080           0
   38486 WT2  5386 TIP3 OH2  OT    -0.834000       15.9994           0
   38487 WT2  5386 TIP3 H1   HT     0.417000        1.0080           0
   38488 WT2  5386 TIP3 H2   HT     0.417000        1.0080           0
   38489 WT2  5387 TIP3 OH2  OT    -0.834000       15.9994           0
   38490 WT2  5387 TIP3 H1   HT     0.417000        1.0080           0
   38491 WT2  5387 TIP3 H2   HT     0.417000        1.0080           0
   38492 WT2  5388 TIP3 OH2  OT    -0.834000       15.9994           0
   38493 WT2  5388 TIP3 H1   HT     0.417000        1.0080           0
   38494 WT2  5388 TIP3 H2   HT     0.417000        1.0080           0
   38495 WT2  5389 TIP3 OH2  OT    -0.834000       15.9994           0
   38496 WT2  5389 TIP3 H1   HT     0.417000        1.0080           0
   38497 WT2  5389 TIP3 H2   HT     0.417000        1.0080           0
   38498 WT2  5390 TIP3 OH2  OT    -0.834000       15.9994           0
   38499 WT2  5390 TIP3 H1   HT     0.417000        1.0080           0
   38500 WT2  5390 TIP3 H2   HT     0.417000        1.0080           0
   38501 WT2  5391 TIP3 OH2  OT    -0.834000       15.9994           0
   38502 WT2  5391 TIP3 H1   HT     0.417000        1.0080           0
   38503 WT2  5391 TIP3 H2   HT     0.417000        1.0080           0
   38504 WT2  5392 TIP3 OH2  OT    -0.834000       15.9994           0
   38505 WT2  5392 TIP3 H1   HT     0.417000        1.0080           0
   38506 WT2  5392 TIP3 H2   HT     0.417000        1.0080           0
   38507 WT2  5393 TIP3 OH2  OT    -0.834000       15.9994           0
   38508 WT2  5393 TIP3 H1   HT     0.417000        1.0080           0
   38509 WT2  5393 TIP3 H2   HT     0.417000        1.0080           0
   38510 WT2  5396 TIP3 OH2  OT    -0.834000       15.9994           0
   38511 WT2  5396 TIP3 H1   HT     0.417000        1.0080           0
   38512 WT2  5396 TIP3 H2   HT     0.417000        1.0080           0
   38513 WT2  5399 TIP3 OH2  OT    -0.834000       15.9994           0
   38514 WT2  5399 TIP3 H1   HT     0.417000        1.0080           0
   38515 WT2  5399 TIP3 H2   HT     0.417000        1.0080           0
   38516 WT2  5400 TIP3 OH2  OT    -0.834000       15.9994           0
   38517 WT2  5400 TIP3 H1   HT     0.417000        1.0080           0
   38518 WT2  5400 TIP3 H2   HT     0.417000        1.0080           0
   38519 WT2  5401 TIP3 OH2  OT    -0.834000       15.9994           0
   38520 WT2  5401 TIP3 H1   HT     0.417000        1.0080           0
   38521 WT2  5401 TIP3 H2   HT     0.417000        1.0080           0
   38522 WT2  5402 TIP3 OH2  OT    -0.834000       15.9994           0
   38523 WT2  5402 TIP3 H1   HT     0.417000        1.0080           0
   38524 WT2  5402 TIP3 H2   HT     0.417000        1.0080           0
   38525 WT2  5403 TIP3 OH2  OT    -0.834000       15.9994           0
   38526 WT2  5403 TIP3 H1   HT     0.417000        1.0080           0
   38527 WT2  5403 TIP3 H2   HT     0.417000        1.0080           0
   38528 WT2  5404 TIP3 OH2  OT    -0.834000       15.9994           0
   38529 WT2  5404 TIP3 H1   HT     0.417000        1.0080           0
   38530 WT2  5404 TIP3 H2   HT     0.417000        1.0080           0
   38531 WT2  5405 TIP3 OH2  OT    -0.834000       15.9994           0
   38532 WT2  5405 TIP3 H1   HT     0.417000        1.0080           0
   38533 WT2  5405 TIP3 H2   HT     0.417000        1.0080           0
   38534 WT2  5406 TIP3 OH2  OT    -0.834000       15.9994           0
   38535 WT2  5406 TIP3 H1   HT     0.417000        1.0080           0
   38536 WT2  5406 TIP3 H2   HT     0.417000        1.0080           0
   38537 WT2  5407 TIP3 OH2  OT    -0.834000       15.9994           0
   38538 WT2  5407 TIP3 H1   HT     0.417000        1.0080           0
   38539 WT2  5407 TIP3 H2   HT     0.417000        1.0080           0
   38540 WT2  5408 TIP3 OH2  OT    -0.834000       15.9994           0
   38541 WT2  5408 TIP3 H1   HT     0.417000        1.0080           0
   38542 WT2  5408 TIP3 H2   HT     0.417000        1.0080           0
   38543 WT2  5409 TIP3 OH2  OT    -0.834000       15.9994           0
   38544 WT2  5409 TIP3 H1   HT     0.417000        1.0080           0
   38545 WT2  5409 TIP3 H2   HT     0.417000        1.0080           0
   38546 WT2  5410 TIP3 OH2  OT    -0.834000       15.9994           0
   38547 WT2  5410 TIP3 H1   HT     0.417000        1.0080           0
   38548 WT2  5410 TIP3 H2   HT     0.417000        1.0080           0
   38549 WT2  5411 TIP3 OH2  OT    -0.834000       15.9994           0
   38550 WT2  5411 TIP3 H1   HT     0.417000        1.0080           0
   38551 WT2  5411 TIP3 H2   HT     0.417000        1.0080           0
   38552 WT2  5412 TIP3 OH2  OT    -0.834000       15.9994           0
   38553 WT2  5412 TIP3 H1   HT     0.417000        1.0080           0
   38554 WT2  5412 TIP3 H2   HT     0.417000        1.0080           0
   38555 WT2  5413 TIP3 OH2  OT    -0.834000       15.9994           0
   38556 WT2  5413 TIP3 H1   HT     0.417000        1.0080           0
   38557 WT2  5413 TIP3 H2   HT     0.417000        1.0080           0
   38558 WT2  5414 TIP3 OH2  OT    -0.834000       15.9994           0
   38559 WT2  5414 TIP3 H1   HT     0.417000        1.0080           0
   38560 WT2  5414 TIP3 H2   HT     0.417000        1.0080           0
   38561 WT2  5415 TIP3 OH2  OT    -0.834000       15.9994           0
   38562 WT2  5415 TIP3 H1   HT     0.417000        1.0080           0
   38563 WT2  5415 TIP3 H2   HT     0.417000        1.0080           0
   38564 WT2  5416 TIP3 OH2  OT    -0.834000       15.9994           0
   38565 WT2  5416 TIP3 H1   HT     0.417000        1.0080           0
   38566 WT2  5416 TIP3 H2   HT     0.417000        1.0080           0
   38567 WT2  5417 TIP3 OH2  OT    -0.834000       15.9994           0
   38568 WT2  5417 TIP3 H1   HT     0.417000        1.0080           0
   38569 WT2  5417 TIP3 H2   HT     0.417000        1.0080           0
   38570 WT2  5419 TIP3 OH2  OT    -0.834000       15.9994           0
   38571 WT2  5419 TIP3 H1   HT     0.417000        1.0080           0
   38572 WT2  5419 TIP3 H2   HT     0.417000        1.0080           0
   38573 WT2  5420 TIP3 OH2  OT    -0.834000       15.9994           0
   38574 WT2  5420 TIP3 H1   HT     0.417000        1.0080           0
   38575 WT2  5420 TIP3 H2   HT     0.417000        1.0080           0
   38576 WT2  5421 TIP3 OH2  OT    -0.834000       15.9994           0
   38577 WT2  5421 TIP3 H1   HT     0.417000        1.0080           0
   38578 WT2  5421 TIP3 H2   HT     0.417000        1.0080           0
   38579 WT2  5423 TIP3 OH2  OT    -0.834000       15.9994           0
   38580 WT2  5423 TIP3 H1   HT     0.417000        1.0080           0
   38581 WT2  5423 TIP3 H2   HT     0.417000        1.0080           0
   38582 WT2  5424 TIP3 OH2  OT    -0.834000       15.9994           0
   38583 WT2  5424 TIP3 H1   HT     0.417000        1.0080           0
   38584 WT2  5424 TIP3 H2   HT     0.417000        1.0080           0
   38585 WT2  5425 TIP3 OH2  OT    -0.834000       15.9994           0
   38586 WT2  5425 TIP3 H1   HT     0.417000        1.0080           0
   38587 WT2  5425 TIP3 H2   HT     0.417000        1.0080           0
   38588 WT2  5426 TIP3 OH2  OT    -0.834000       15.9994           0
   38589 WT2  5426 TIP3 H1   HT     0.417000        1.0080           0
   38590 WT2  5426 TIP3 H2   HT     0.417000        1.0080           0
   38591 WT2  5427 TIP3 OH2  OT    -0.834000       15.9994           0
   38592 WT2  5427 TIP3 H1   HT     0.417000        1.0080           0
   38593 WT2  5427 TIP3 H2   HT     0.417000        1.0080           0
   38594 WT2  5428 TIP3 OH2  OT    -0.834000       15.9994           0
   38595 WT2  5428 TIP3 H1   HT     0.417000        1.0080           0
   38596 WT2  5428 TIP3 H2   HT     0.417000        1.0080           0
   38597 WT2  5429 TIP3 OH2  OT    -0.834000       15.9994           0
   38598 WT2  5429 TIP3 H1   HT     0.417000        1.0080           0
   38599 WT2  5429 TIP3 H2   HT     0.417000        1.0080           0
   38600 WT2  5430 TIP3 OH2  OT    -0.834000       15.9994           0
   38601 WT2  5430 TIP3 H1   HT     0.417000        1.0080           0
   38602 WT2  5430 TIP3 H2   HT     0.417000        1.0080           0
   38603 WT2  5431 TIP3 OH2  OT    -0.834000       15.9994           0
   38604 WT2  5431 TIP3 H1   HT     0.417000        1.0080           0
   38605 WT2  5431 TIP3 H2   HT     0.417000        1.0080           0
   38606 WT2  5432 TIP3 OH2  OT    -0.834000       15.9994           0
   38607 WT2  5432 TIP3 H1   HT     0.417000        1.0080           0
   38608 WT2  5432 TIP3 H2   HT     0.417000        1.0080           0
   38609 WT2  5433 TIP3 OH2  OT    -0.834000       15.9994           0
   38610 WT2  5433 TIP3 H1   HT     0.417000        1.0080           0
   38611 WT2  5433 TIP3 H2   HT     0.417000        1.0080           0
   38612 WT2  5434 TIP3 OH2  OT    -0.834000       15.9994           0
   38613 WT2  5434 TIP3 H1   HT     0.417000        1.0080           0
   38614 WT2  5434 TIP3 H2   HT     0.417000        1.0080           0
   38615 WT2  5436 TIP3 OH2  OT    -0.834000       15.9994           0
   38616 WT2  5436 TIP3 H1   HT     0.417000        1.0080           0
   38617 WT2  5436 TIP3 H2   HT     0.417000        1.0080           0
   38618 WT2  5437 TIP3 OH2  OT    -0.834000       15.9994           0
   38619 WT2  5437 TIP3 H1   HT     0.417000        1.0080           0
   38620 WT2  5437 TIP3 H2   HT     0.417000        1.0080           0
   38621 WT2  5438 TIP3 OH2  OT    -0.834000       15.9994           0
   38622 WT2  5438 TIP3 H1   HT     0.417000        1.0080           0
   38623 WT2  5438 TIP3 H2   HT     0.417000        1.0080           0
   38624 WT2  5442 TIP3 OH2  OT    -0.834000       15.9994           0
   38625 WT2  5442 TIP3 H1   HT     0.417000        1.0080           0
   38626 WT2  5442 TIP3 H2   HT     0.417000        1.0080           0
   38627 WT2  5443 TIP3 OH2  OT    -0.834000       15.9994           0
   38628 WT2  5443 TIP3 H1   HT     0.417000        1.0080           0
   38629 WT2  5443 TIP3 H2   HT     0.417000        1.0080           0
   38630 WT2  5444 TIP3 OH2  OT    -0.834000       15.9994           0
   38631 WT2  5444 TIP3 H1   HT     0.417000        1.0080           0
   38632 WT2  5444 TIP3 H2   HT     0.417000        1.0080           0
   38633 WT2  5446 TIP3 OH2  OT    -0.834000       15.9994           0
   38634 WT2  5446 TIP3 H1   HT     0.417000        1.0080           0
   38635 WT2  5446 TIP3 H2   HT     0.417000        1.0080           0
   38636 WT2  5447 TIP3 OH2  OT    -0.834000       15.9994           0
   38637 WT2  5447 TIP3 H1   HT     0.417000        1.0080           0
   38638 WT2  5447 TIP3 H2   HT     0.417000        1.0080           0
   38639 WT2  5448 TIP3 OH2  OT    -0.834000       15.9994           0
   38640 WT2  5448 TIP3 H1   HT     0.417000        1.0080           0
   38641 WT2  5448 TIP3 H2   HT     0.417000        1.0080           0
   38642 WT2  5450 TIP3 OH2  OT    -0.834000       15.9994           0
   38643 WT2  5450 TIP3 H1   HT     0.417000        1.0080           0
   38644 WT2  5450 TIP3 H2   HT     0.417000        1.0080           0
   38645 WT2  5451 TIP3 OH2  OT    -0.834000       15.9994           0
   38646 WT2  5451 TIP3 H1   HT     0.417000        1.0080           0
   38647 WT2  5451 TIP3 H2   HT     0.417000        1.0080           0
   38648 WT2  5452 TIP3 OH2  OT    -0.834000       15.9994           0
   38649 WT2  5452 TIP3 H1   HT     0.417000        1.0080           0
   38650 WT2  5452 TIP3 H2   HT     0.417000        1.0080           0
   38651 WT2  5453 TIP3 OH2  OT    -0.834000       15.9994           0
   38652 WT2  5453 TIP3 H1   HT     0.417000        1.0080           0
   38653 WT2  5453 TIP3 H2   HT     0.417000        1.0080           0
   38654 WT2  5454 TIP3 OH2  OT    -0.834000       15.9994           0
   38655 WT2  5454 TIP3 H1   HT     0.417000        1.0080           0
   38656 WT2  5454 TIP3 H2   HT     0.417000        1.0080           0
   38657 WT2  5455 TIP3 OH2  OT    -0.834000       15.9994           0
   38658 WT2  5455 TIP3 H1   HT     0.417000        1.0080           0
   38659 WT2  5455 TIP3 H2   HT     0.417000        1.0080           0
   38660 WT2  5456 TIP3 OH2  OT    -0.834000       15.9994           0
   38661 WT2  5456 TIP3 H1   HT     0.417000        1.0080           0
   38662 WT2  5456 TIP3 H2   HT     0.417000        1.0080           0
   38663 WT2  5457 TIP3 OH2  OT    -0.834000       15.9994           0
   38664 WT2  5457 TIP3 H1   HT     0.417000        1.0080           0
   38665 WT2  5457 TIP3 H2   HT     0.417000        1.0080           0
   38666 WT2  5460 TIP3 OH2  OT    -0.834000       15.9994           0
   38667 WT2  5460 TIP3 H1   HT     0.417000        1.0080           0
   38668 WT2  5460 TIP3 H2   HT     0.417000        1.0080           0
   38669 WT2  5461 TIP3 OH2  OT    -0.834000       15.9994           0
   38670 WT2  5461 TIP3 H1   HT     0.417000        1.0080           0
   38671 WT2  5461 TIP3 H2   HT     0.417000        1.0080           0
   38672 WT2  5462 TIP3 OH2  OT    -0.834000       15.9994           0
   38673 WT2  5462 TIP3 H1   HT     0.417000        1.0080           0
   38674 WT2  5462 TIP3 H2   HT     0.417000        1.0080           0
   38675 WT2  5463 TIP3 OH2  OT    -0.834000       15.9994           0
   38676 WT2  5463 TIP3 H1   HT     0.417000        1.0080           0
   38677 WT2  5463 TIP3 H2   HT     0.417000        1.0080           0
   38678 WT2  5464 TIP3 OH2  OT    -0.834000       15.9994           0
   38679 WT2  5464 TIP3 H1   HT     0.417000        1.0080           0
   38680 WT2  5464 TIP3 H2   HT     0.417000        1.0080           0
   38681 WT2  5465 TIP3 OH2  OT    -0.834000       15.9994           0
   38682 WT2  5465 TIP3 H1   HT     0.417000        1.0080           0
   38683 WT2  5465 TIP3 H2   HT     0.417000        1.0080           0
   38684 WT2  5466 TIP3 OH2  OT    -0.834000       15.9994           0
   38685 WT2  5466 TIP3 H1   HT     0.417000        1.0080           0
   38686 WT2  5466 TIP3 H2   HT     0.417000        1.0080           0
   38687 WT2  5467 TIP3 OH2  OT    -0.834000       15.9994           0
   38688 WT2  5467 TIP3 H1   HT     0.417000        1.0080           0
   38689 WT2  5467 TIP3 H2   HT     0.417000        1.0080           0
   38690 WT2  5468 TIP3 OH2  OT    -0.834000       15.9994           0
   38691 WT2  5468 TIP3 H1   HT     0.417000        1.0080           0
   38692 WT2  5468 TIP3 H2   HT     0.417000        1.0080           0
   38693 WT2  5469 TIP3 OH2  OT    -0.834000       15.9994           0
   38694 WT2  5469 TIP3 H1   HT     0.417000        1.0080           0
   38695 WT2  5469 TIP3 H2   HT     0.417000        1.0080           0
   38696 WT2  5470 TIP3 OH2  OT    -0.834000       15.9994           0
   38697 WT2  5470 TIP3 H1   HT     0.417000        1.0080           0
   38698 WT2  5470 TIP3 H2   HT     0.417000        1.0080           0
   38699 WT2  5471 TIP3 OH2  OT    -0.834000       15.9994           0
   38700 WT2  5471 TIP3 H1   HT     0.417000        1.0080           0
   38701 WT2  5471 TIP3 H2   HT     0.417000        1.0080           0
   38702 WT2  5472 TIP3 OH2  OT    -0.834000       15.9994           0
   38703 WT2  5472 TIP3 H1   HT     0.417000        1.0080           0
   38704 WT2  5472 TIP3 H2   HT     0.417000        1.0080           0
   38705 WT2  5473 TIP3 OH2  OT    -0.834000       15.9994           0
   38706 WT2  5473 TIP3 H1   HT     0.417000        1.0080           0
   38707 WT2  5473 TIP3 H2   HT     0.417000        1.0080           0
   38708 WT2  5474 TIP3 OH2  OT    -0.834000       15.9994           0
   38709 WT2  5474 TIP3 H1   HT     0.417000        1.0080           0
   38710 WT2  5474 TIP3 H2   HT     0.417000        1.0080           0
   38711 WT2  5476 TIP3 OH2  OT    -0.834000       15.9994           0
   38712 WT2  5476 TIP3 H1   HT     0.417000        1.0080           0
   38713 WT2  5476 TIP3 H2   HT     0.417000        1.0080           0
   38714 WT2  5477 TIP3 OH2  OT    -0.834000       15.9994           0
   38715 WT2  5477 TIP3 H1   HT     0.417000        1.0080           0
   38716 WT2  5477 TIP3 H2   HT     0.417000        1.0080           0
   38717 WT2  5479 TIP3 OH2  OT    -0.834000       15.9994           0
   38718 WT2  5479 TIP3 H1   HT     0.417000        1.0080           0
   38719 WT2  5479 TIP3 H2   HT     0.417000        1.0080           0
   38720 WT2  5480 TIP3 OH2  OT    -0.834000       15.9994           0
   38721 WT2  5480 TIP3 H1   HT     0.417000        1.0080           0
   38722 WT2  5480 TIP3 H2   HT     0.417000        1.0080           0
   38723 WT2  5481 TIP3 OH2  OT    -0.834000       15.9994           0
   38724 WT2  5481 TIP3 H1   HT     0.417000        1.0080           0
   38725 WT2  5481 TIP3 H2   HT     0.417000        1.0080           0
   38726 WT2  5482 TIP3 OH2  OT    -0.834000       15.9994           0
   38727 WT2  5482 TIP3 H1   HT     0.417000        1.0080           0
   38728 WT2  5482 TIP3 H2   HT     0.417000        1.0080           0
   38729 WT2  5483 TIP3 OH2  OT    -0.834000       15.9994           0
   38730 WT2  5483 TIP3 H1   HT     0.417000        1.0080           0
   38731 WT2  5483 TIP3 H2   HT     0.417000        1.0080           0
   38732 WT2  5484 TIP3 OH2  OT    -0.834000       15.9994           0
   38733 WT2  5484 TIP3 H1   HT     0.417000        1.0080           0
   38734 WT2  5484 TIP3 H2   HT     0.417000        1.0080           0
   38735 WT2  5485 TIP3 OH2  OT    -0.834000       15.9994           0
   38736 WT2  5485 TIP3 H1   HT     0.417000        1.0080           0
   38737 WT2  5485 TIP3 H2   HT     0.417000        1.0080           0
   38738 WT2  5486 TIP3 OH2  OT    -0.834000       15.9994           0
   38739 WT2  5486 TIP3 H1   HT     0.417000        1.0080           0
   38740 WT2  5486 TIP3 H2   HT     0.417000        1.0080           0
   38741 WT2  5487 TIP3 OH2  OT    -0.834000       15.9994           0
   38742 WT2  5487 TIP3 H1   HT     0.417000        1.0080           0
   38743 WT2  5487 TIP3 H2   HT     0.417000        1.0080           0
   38744 WT2  5488 TIP3 OH2  OT    -0.834000       15.9994           0
   38745 WT2  5488 TIP3 H1   HT     0.417000        1.0080           0
   38746 WT2  5488 TIP3 H2   HT     0.417000        1.0080           0
   38747 WT2  5490 TIP3 OH2  OT    -0.834000       15.9994           0
   38748 WT2  5490 TIP3 H1   HT     0.417000        1.0080           0
   38749 WT2  5490 TIP3 H2   HT     0.417000        1.0080           0
   38750 WT2  5491 TIP3 OH2  OT    -0.834000       15.9994           0
   38751 WT2  5491 TIP3 H1   HT     0.417000        1.0080           0
   38752 WT2  5491 TIP3 H2   HT     0.417000        1.0080           0
   38753 WT2  5493 TIP3 OH2  OT    -0.834000       15.9994           0
   38754 WT2  5493 TIP3 H1   HT     0.417000        1.0080           0
   38755 WT2  5493 TIP3 H2   HT     0.417000        1.0080           0
   38756 WT2  5496 TIP3 OH2  OT    -0.834000       15.9994           0
   38757 WT2  5496 TIP3 H1   HT     0.417000        1.0080           0
   38758 WT2  5496 TIP3 H2   HT     0.417000        1.0080           0
   38759 WT2  5497 TIP3 OH2  OT    -0.834000       15.9994           0
   38760 WT2  5497 TIP3 H1   HT     0.417000        1.0080           0
   38761 WT2  5497 TIP3 H2   HT     0.417000        1.0080           0
   38762 WT2  5498 TIP3 OH2  OT    -0.834000       15.9994           0
   38763 WT2  5498 TIP3 H1   HT     0.417000        1.0080           0
   38764 WT2  5498 TIP3 H2   HT     0.417000        1.0080           0
   38765 WT2  5500 TIP3 OH2  OT    -0.834000       15.9994           0
   38766 WT2  5500 TIP3 H1   HT     0.417000        1.0080           0
   38767 WT2  5500 TIP3 H2   HT     0.417000        1.0080           0
   38768 WT2  5503 TIP3 OH2  OT    -0.834000       15.9994           0
   38769 WT2  5503 TIP3 H1   HT     0.417000        1.0080           0
   38770 WT2  5503 TIP3 H2   HT     0.417000        1.0080           0
   38771 WT2  5504 TIP3 OH2  OT    -0.834000       15.9994           0
   38772 WT2  5504 TIP3 H1   HT     0.417000        1.0080           0
   38773 WT2  5504 TIP3 H2   HT     0.417000        1.0080           0
   38774 WT2  5505 TIP3 OH2  OT    -0.834000       15.9994           0
   38775 WT2  5505 TIP3 H1   HT     0.417000        1.0080           0
   38776 WT2  5505 TIP3 H2   HT     0.417000        1.0080           0
   38777 WT2  5506 TIP3 OH2  OT    -0.834000       15.9994           0
   38778 WT2  5506 TIP3 H1   HT     0.417000        1.0080           0
   38779 WT2  5506 TIP3 H2   HT     0.417000        1.0080           0
   38780 WT2  5507 TIP3 OH2  OT    -0.834000       15.9994           0
   38781 WT2  5507 TIP3 H1   HT     0.417000        1.0080           0
   38782 WT2  5507 TIP3 H2   HT     0.417000        1.0080           0
   38783 WT2  5510 TIP3 OH2  OT    -0.834000       15.9994           0
   38784 WT2  5510 TIP3 H1   HT     0.417000        1.0080           0
   38785 WT2  5510 TIP3 H2   HT     0.417000        1.0080           0
   38786 WT2  5511 TIP3 OH2  OT    -0.834000       15.9994           0
   38787 WT2  5511 TIP3 H1   HT     0.417000        1.0080           0
   38788 WT2  5511 TIP3 H2   HT     0.417000        1.0080           0
   38789 WT2  5512 TIP3 OH2  OT    -0.834000       15.9994           0
   38790 WT2  5512 TIP3 H1   HT     0.417000        1.0080           0
   38791 WT2  5512 TIP3 H2   HT     0.417000        1.0080           0
   38792 WT2  5514 TIP3 OH2  OT    -0.834000       15.9994           0
   38793 WT2  5514 TIP3 H1   HT     0.417000        1.0080           0
   38794 WT2  5514 TIP3 H2   HT     0.417000        1.0080           0
   38795 WT2  5516 TIP3 OH2  OT    -0.834000       15.9994           0
   38796 WT2  5516 TIP3 H1   HT     0.417000        1.0080           0
   38797 WT2  5516 TIP3 H2   HT     0.417000        1.0080           0
   38798 WT2  5517 TIP3 OH2  OT    -0.834000       15.9994           0
   38799 WT2  5517 TIP3 H1   HT     0.417000        1.0080           0
   38800 WT2  5517 TIP3 H2   HT     0.417000        1.0080           0
   38801 WT2  5518 TIP3 OH2  OT    -0.834000       15.9994           0
   38802 WT2  5518 TIP3 H1   HT     0.417000        1.0080           0
   38803 WT2  5518 TIP3 H2   HT     0.417000        1.0080           0
   38804 WT2  5521 TIP3 OH2  OT    -0.834000       15.9994           0
   38805 WT2  5521 TIP3 H1   HT     0.417000        1.0080           0
   38806 WT2  5521 TIP3 H2   HT     0.417000        1.0080           0
   38807 WT2  5524 TIP3 OH2  OT    -0.834000       15.9994           0
   38808 WT2  5524 TIP3 H1   HT     0.417000        1.0080           0
   38809 WT2  5524 TIP3 H2   HT     0.417000        1.0080           0
   38810 WT2  5525 TIP3 OH2  OT    -0.834000       15.9994           0
   38811 WT2  5525 TIP3 H1   HT     0.417000        1.0080           0
   38812 WT2  5525 TIP3 H2   HT     0.417000        1.0080           0
   38813 WT2  5526 TIP3 OH2  OT    -0.834000       15.9994           0
   38814 WT2  5526 TIP3 H1   HT     0.417000        1.0080           0
   38815 WT2  5526 TIP3 H2   HT     0.417000        1.0080           0
   38816 WT2  5528 TIP3 OH2  OT    -0.834000       15.9994           0
   38817 WT2  5528 TIP3 H1   HT     0.417000        1.0080           0
   38818 WT2  5528 TIP3 H2   HT     0.417000        1.0080           0
   38819 WT2  5529 TIP3 OH2  OT    -0.834000       15.9994           0
   38820 WT2  5529 TIP3 H1   HT     0.417000        1.0080           0
   38821 WT2  5529 TIP3 H2   HT     0.417000        1.0080           0
   38822 WT2  5532 TIP3 OH2  OT    -0.834000       15.9994           0
   38823 WT2  5532 TIP3 H1   HT     0.417000        1.0080           0
   38824 WT2  5532 TIP3 H2   HT     0.417000        1.0080           0
   38825 WT2  5533 TIP3 OH2  OT    -0.834000       15.9994           0
   38826 WT2  5533 TIP3 H1   HT     0.417000        1.0080           0
   38827 WT2  5533 TIP3 H2   HT     0.417000        1.0080           0
   38828 WT2  5535 TIP3 OH2  OT    -0.834000       15.9994           0
   38829 WT2  5535 TIP3 H1   HT     0.417000        1.0080           0
   38830 WT2  5535 TIP3 H2   HT     0.417000        1.0080           0
   38831 WT2  5536 TIP3 OH2  OT    -0.834000       15.9994           0
   38832 WT2  5536 TIP3 H1   HT     0.417000        1.0080           0
   38833 WT2  5536 TIP3 H2   HT     0.417000        1.0080           0
   38834 WT2  5538 TIP3 OH2  OT    -0.834000       15.9994           0
   38835 WT2  5538 TIP3 H1   HT     0.417000        1.0080           0
   38836 WT2  5538 TIP3 H2   HT     0.417000        1.0080           0
   38837 WT2  5540 TIP3 OH2  OT    -0.834000       15.9994           0
   38838 WT2  5540 TIP3 H1   HT     0.417000        1.0080           0
   38839 WT2  5540 TIP3 H2   HT     0.417000        1.0080           0
   38840 WT2  5541 TIP3 OH2  OT    -0.834000       15.9994           0
   38841 WT2  5541 TIP3 H1   HT     0.417000        1.0080           0
   38842 WT2  5541 TIP3 H2   HT     0.417000        1.0080           0
   38843 WT2  5543 TIP3 OH2  OT    -0.834000       15.9994           0
   38844 WT2  5543 TIP3 H1   HT     0.417000        1.0080           0
   38845 WT2  5543 TIP3 H2   HT     0.417000        1.0080           0
   38846 WT2  5544 TIP3 OH2  OT    -0.834000       15.9994           0
   38847 WT2  5544 TIP3 H1   HT     0.417000        1.0080           0
   38848 WT2  5544 TIP3 H2   HT     0.417000        1.0080           0
   38849 WT2  5545 TIP3 OH2  OT    -0.834000       15.9994           0
   38850 WT2  5545 TIP3 H1   HT     0.417000        1.0080           0
   38851 WT2  5545 TIP3 H2   HT     0.417000        1.0080           0
   38852 WT2  5547 TIP3 OH2  OT    -0.834000       15.9994           0
   38853 WT2  5547 TIP3 H1   HT     0.417000        1.0080           0
   38854 WT2  5547 TIP3 H2   HT     0.417000        1.0080           0
   38855 WT2  5548 TIP3 OH2  OT    -0.834000       15.9994           0
   38856 WT2  5548 TIP3 H1   HT     0.417000        1.0080           0
   38857 WT2  5548 TIP3 H2   HT     0.417000        1.0080           0
   38858 WT2  5549 TIP3 OH2  OT    -0.834000       15.9994           0
   38859 WT2  5549 TIP3 H1   HT     0.417000        1.0080           0
   38860 WT2  5549 TIP3 H2   HT     0.417000        1.0080           0
   38861 WT2  5552 TIP3 OH2  OT    -0.834000       15.9994           0
   38862 WT2  5552 TIP3 H1   HT     0.417000        1.0080           0
   38863 WT2  5552 TIP3 H2   HT     0.417000        1.0080           0
   38864 WT2  5553 TIP3 OH2  OT    -0.834000       15.9994           0
   38865 WT2  5553 TIP3 H1   HT     0.417000        1.0080           0
   38866 WT2  5553 TIP3 H2   HT     0.417000        1.0080           0
   38867 WT2  5554 TIP3 OH2  OT    -0.834000       15.9994           0
   38868 WT2  5554 TIP3 H1   HT     0.417000        1.0080           0
   38869 WT2  5554 TIP3 H2   HT     0.417000        1.0080           0
   38870 WT2  5556 TIP3 OH2  OT    -0.834000       15.9994           0
   38871 WT2  5556 TIP3 H1   HT     0.417000        1.0080           0
   38872 WT2  5556 TIP3 H2   HT     0.417000        1.0080           0
   38873 WT2  5557 TIP3 OH2  OT    -0.834000       15.9994           0
   38874 WT2  5557 TIP3 H1   HT     0.417000        1.0080           0
   38875 WT2  5557 TIP3 H2   HT     0.417000        1.0080           0
   38876 WT2  5558 TIP3 OH2  OT    -0.834000       15.9994           0
   38877 WT2  5558 TIP3 H1   HT     0.417000        1.0080           0
   38878 WT2  5558 TIP3 H2   HT     0.417000        1.0080           0
   38879 WT2  5559 TIP3 OH2  OT    -0.834000       15.9994           0
   38880 WT2  5559 TIP3 H1   HT     0.417000        1.0080           0
   38881 WT2  5559 TIP3 H2   HT     0.417000        1.0080           0
   38882 WT2  5560 TIP3 OH2  OT    -0.834000       15.9994           0
   38883 WT2  5560 TIP3 H1   HT     0.417000        1.0080           0
   38884 WT2  5560 TIP3 H2   HT     0.417000        1.0080           0
   38885 WT2  5565 TIP3 OH2  OT    -0.834000       15.9994           0
   38886 WT2  5565 TIP3 H1   HT     0.417000        1.0080           0
   38887 WT2  5565 TIP3 H2   HT     0.417000        1.0080           0
   38888 WT2  5567 TIP3 OH2  OT    -0.834000       15.9994           0
   38889 WT2  5567 TIP3 H1   HT     0.417000        1.0080           0
   38890 WT2  5567 TIP3 H2   HT     0.417000        1.0080           0
   38891 WT2  5568 TIP3 OH2  OT    -0.834000       15.9994           0
   38892 WT2  5568 TIP3 H1   HT     0.417000        1.0080           0
   38893 WT2  5568 TIP3 H2   HT     0.417000        1.0080           0
   38894 WT2  5569 TIP3 OH2  OT    -0.834000       15.9994           0
   38895 WT2  5569 TIP3 H1   HT     0.417000        1.0080           0
   38896 WT2  5569 TIP3 H2   HT     0.417000        1.0080           0
   38897 WT2  5573 TIP3 OH2  OT    -0.834000       15.9994           0
   38898 WT2  5573 TIP3 H1   HT     0.417000        1.0080           0
   38899 WT2  5573 TIP3 H2   HT     0.417000        1.0080           0
   38900 WT2  5574 TIP3 OH2  OT    -0.834000       15.9994           0
   38901 WT2  5574 TIP3 H1   HT     0.417000        1.0080           0
   38902 WT2  5574 TIP3 H2   HT     0.417000        1.0080           0
   38903 WT2  5575 TIP3 OH2  OT    -0.834000       15.9994           0
   38904 WT2  5575 TIP3 H1   HT     0.417000        1.0080           0
   38905 WT2  5575 TIP3 H2   HT     0.417000        1.0080           0
   38906 WT2  5576 TIP3 OH2  OT    -0.834000       15.9994           0
   38907 WT2  5576 TIP3 H1   HT     0.417000        1.0080           0
   38908 WT2  5576 TIP3 H2   HT     0.417000        1.0080           0
   38909 WT2  5577 TIP3 OH2  OT    -0.834000       15.9994           0
   38910 WT2  5577 TIP3 H1   HT     0.417000        1.0080           0
   38911 WT2  5577 TIP3 H2   HT     0.417000        1.0080           0
   38912 WT2  5579 TIP3 OH2  OT    -0.834000       15.9994           0
   38913 WT2  5579 TIP3 H1   HT     0.417000        1.0080           0
   38914 WT2  5579 TIP3 H2   HT     0.417000        1.0080           0
   38915 WT2  5580 TIP3 OH2  OT    -0.834000       15.9994           0
   38916 WT2  5580 TIP3 H1   HT     0.417000        1.0080           0
   38917 WT2  5580 TIP3 H2   HT     0.417000        1.0080           0
   38918 WT2  5581 TIP3 OH2  OT    -0.834000       15.9994           0
   38919 WT2  5581 TIP3 H1   HT     0.417000        1.0080           0
   38920 WT2  5581 TIP3 H2   HT     0.417000        1.0080           0
   38921 WT2  5583 TIP3 OH2  OT    -0.834000       15.9994           0
   38922 WT2  5583 TIP3 H1   HT     0.417000        1.0080           0
   38923 WT2  5583 TIP3 H2   HT     0.417000        1.0080           0
   38924 WT2  5584 TIP3 OH2  OT    -0.834000       15.9994           0
   38925 WT2  5584 TIP3 H1   HT     0.417000        1.0080           0
   38926 WT2  5584 TIP3 H2   HT     0.417000        1.0080           0
   38927 WT2  5585 TIP3 OH2  OT    -0.834000       15.9994           0
   38928 WT2  5585 TIP3 H1   HT     0.417000        1.0080           0
   38929 WT2  5585 TIP3 H2   HT     0.417000        1.0080           0
   38930 WT2  5586 TIP3 OH2  OT    -0.834000       15.9994           0
   38931 WT2  5586 TIP3 H1   HT     0.417000        1.0080           0
   38932 WT2  5586 TIP3 H2   HT     0.417000        1.0080           0
   38933 WT2  5587 TIP3 OH2  OT    -0.834000       15.9994           0
   38934 WT2  5587 TIP3 H1   HT     0.417000        1.0080           0
   38935 WT2  5587 TIP3 H2   HT     0.417000        1.0080           0
   38936 WT2  5588 TIP3 OH2  OT    -0.834000       15.9994           0
   38937 WT2  5588 TIP3 H1   HT     0.417000        1.0080           0
   38938 WT2  5588 TIP3 H2   HT     0.417000        1.0080           0
   38939 WT2  5589 TIP3 OH2  OT    -0.834000       15.9994           0
   38940 WT2  5589 TIP3 H1   HT     0.417000        1.0080           0
   38941 WT2  5589 TIP3 H2   HT     0.417000        1.0080           0
   38942 WT2  5590 TIP3 OH2  OT    -0.834000       15.9994           0
   38943 WT2  5590 TIP3 H1   HT     0.417000        1.0080           0
   38944 WT2  5590 TIP3 H2   HT     0.417000        1.0080           0
   38945 WT2  5591 TIP3 OH2  OT    -0.834000       15.9994           0
   38946 WT2  5591 TIP3 H1   HT     0.417000        1.0080           0
   38947 WT2  5591 TIP3 H2   HT     0.417000        1.0080           0
   38948 WT2  5592 TIP3 OH2  OT    -0.834000       15.9994           0
   38949 WT2  5592 TIP3 H1   HT     0.417000        1.0080           0
   38950 WT2  5592 TIP3 H2   HT     0.417000        1.0080           0
   38951 WT2  5593 TIP3 OH2  OT    -0.834000       15.9994           0
   38952 WT2  5593 TIP3 H1   HT     0.417000        1.0080           0
   38953 WT2  5593 TIP3 H2   HT     0.417000        1.0080           0
   38954 WT2  5594 TIP3 OH2  OT    -0.834000       15.9994           0
   38955 WT2  5594 TIP3 H1   HT     0.417000        1.0080           0
   38956 WT2  5594 TIP3 H2   HT     0.417000        1.0080           0
   38957 WT2  5595 TIP3 OH2  OT    -0.834000       15.9994           0
   38958 WT2  5595 TIP3 H1   HT     0.417000        1.0080           0
   38959 WT2  5595 TIP3 H2   HT     0.417000        1.0080           0
   38960 WT2  5596 TIP3 OH2  OT    -0.834000       15.9994           0
   38961 WT2  5596 TIP3 H1   HT     0.417000        1.0080           0
   38962 WT2  5596 TIP3 H2   HT     0.417000        1.0080           0
   38963 WT2  5597 TIP3 OH2  OT    -0.834000       15.9994           0
   38964 WT2  5597 TIP3 H1   HT     0.417000        1.0080           0
   38965 WT2  5597 TIP3 H2   HT     0.417000        1.0080           0
   38966 WT2  5598 TIP3 OH2  OT    -0.834000       15.9994           0
   38967 WT2  5598 TIP3 H1   HT     0.417000        1.0080           0
   38968 WT2  5598 TIP3 H2   HT     0.417000        1.0080           0
   38969 WT2  5599 TIP3 OH2  OT    -0.834000       15.9994           0
   38970 WT2  5599 TIP3 H1   HT     0.417000        1.0080           0
   38971 WT2  5599 TIP3 H2   HT     0.417000        1.0080           0
   38972 WT2  5600 TIP3 OH2  OT    -0.834000       15.9994           0
   38973 WT2  5600 TIP3 H1   HT     0.417000        1.0080           0
   38974 WT2  5600 TIP3 H2   HT     0.417000        1.0080           0
   38975 WT2  5601 TIP3 OH2  OT    -0.834000       15.9994           0
   38976 WT2  5601 TIP3 H1   HT     0.417000        1.0080           0
   38977 WT2  5601 TIP3 H2   HT     0.417000        1.0080           0
   38978 WT2  5602 TIP3 OH2  OT    -0.834000       15.9994           0
   38979 WT2  5602 TIP3 H1   HT     0.417000        1.0080           0
   38980 WT2  5602 TIP3 H2   HT     0.417000        1.0080           0
   38981 WT2  5603 TIP3 OH2  OT    -0.834000       15.9994           0
   38982 WT2  5603 TIP3 H1   HT     0.417000        1.0080           0
   38983 WT2  5603 TIP3 H2   HT     0.417000        1.0080           0
   38984 WT2  5604 TIP3 OH2  OT    -0.834000       15.9994           0
   38985 WT2  5604 TIP3 H1   HT     0.417000        1.0080           0
   38986 WT2  5604 TIP3 H2   HT     0.417000        1.0080           0
   38987 WT2  5605 TIP3 OH2  OT    -0.834000       15.9994           0
   38988 WT2  5605 TIP3 H1   HT     0.417000        1.0080           0
   38989 WT2  5605 TIP3 H2   HT     0.417000        1.0080           0
   38990 WT2  5606 TIP3 OH2  OT    -0.834000       15.9994           0
   38991 WT2  5606 TIP3 H1   HT     0.417000        1.0080           0
   38992 WT2  5606 TIP3 H2   HT     0.417000        1.0080           0
   38993 WT2  5607 TIP3 OH2  OT    -0.834000       15.9994           0
   38994 WT2  5607 TIP3 H1   HT     0.417000        1.0080           0
   38995 WT2  5607 TIP3 H2   HT     0.417000        1.0080           0
   38996 WT2  5608 TIP3 OH2  OT    -0.834000       15.9994           0
   38997 WT2  5608 TIP3 H1   HT     0.417000        1.0080           0
   38998 WT2  5608 TIP3 H2   HT     0.417000        1.0080           0
   38999 WT2  5609 TIP3 OH2  OT    -0.834000       15.9994           0
   39000 WT2  5609 TIP3 H1   HT     0.417000        1.0080           0
   39001 WT2  5609 TIP3 H2   HT     0.417000        1.0080           0
   39002 WT2  5611 TIP3 OH2  OT    -0.834000       15.9994           0
   39003 WT2  5611 TIP3 H1   HT     0.417000        1.0080           0
   39004 WT2  5611 TIP3 H2   HT     0.417000        1.0080           0
   39005 WT2  5612 TIP3 OH2  OT    -0.834000       15.9994           0
   39006 WT2  5612 TIP3 H1   HT     0.417000        1.0080           0
   39007 WT2  5612 TIP3 H2   HT     0.417000        1.0080           0
   39008 WT2  5614 TIP3 OH2  OT    -0.834000       15.9994           0
   39009 WT2  5614 TIP3 H1   HT     0.417000        1.0080           0
   39010 WT2  5614 TIP3 H2   HT     0.417000        1.0080           0
   39011 WT2  5615 TIP3 OH2  OT    -0.834000       15.9994           0
   39012 WT2  5615 TIP3 H1   HT     0.417000        1.0080           0
   39013 WT2  5615 TIP3 H2   HT     0.417000        1.0080           0
   39014 WT2  5616 TIP3 OH2  OT    -0.834000       15.9994           0
   39015 WT2  5616 TIP3 H1   HT     0.417000        1.0080           0
   39016 WT2  5616 TIP3 H2   HT     0.417000        1.0080           0
   39017 WT2  5618 TIP3 OH2  OT    -0.834000       15.9994           0
   39018 WT2  5618 TIP3 H1   HT     0.417000        1.0080           0
   39019 WT2  5618 TIP3 H2   HT     0.417000        1.0080           0
   39020 WT2  5619 TIP3 OH2  OT    -0.834000       15.9994           0
   39021 WT2  5619 TIP3 H1   HT     0.417000        1.0080           0
   39022 WT2  5619 TIP3 H2   HT     0.417000        1.0080           0
   39023 WT2  5620 TIP3 OH2  OT    -0.834000       15.9994           0
   39024 WT2  5620 TIP3 H1   HT     0.417000        1.0080           0
   39025 WT2  5620 TIP3 H2   HT     0.417000        1.0080           0
   39026 WT2  5621 TIP3 OH2  OT    -0.834000       15.9994           0
   39027 WT2  5621 TIP3 H1   HT     0.417000        1.0080           0
   39028 WT2  5621 TIP3 H2   HT     0.417000        1.0080           0
   39029 WT2  5622 TIP3 OH2  OT    -0.834000       15.9994           0
   39030 WT2  5622 TIP3 H1   HT     0.417000        1.0080           0
   39031 WT2  5622 TIP3 H2   HT     0.417000        1.0080           0
   39032 WT2  5623 TIP3 OH2  OT    -0.834000       15.9994           0
   39033 WT2  5623 TIP3 H1   HT     0.417000        1.0080           0
   39034 WT2  5623 TIP3 H2   HT     0.417000        1.0080           0
   39035 WT2  5624 TIP3 OH2  OT    -0.834000       15.9994           0
   39036 WT2  5624 TIP3 H1   HT     0.417000        1.0080           0
   39037 WT2  5624 TIP3 H2   HT     0.417000        1.0080           0
   39038 WT2  5625 TIP3 OH2  OT    -0.834000       15.9994           0
   39039 WT2  5625 TIP3 H1   HT     0.417000        1.0080           0
   39040 WT2  5625 TIP3 H2   HT     0.417000        1.0080           0
   39041 WT2  5626 TIP3 OH2  OT    -0.834000       15.9994           0
   39042 WT2  5626 TIP3 H1   HT     0.417000        1.0080           0
   39043 WT2  5626 TIP3 H2   HT     0.417000        1.0080           0
   39044 WT2  5627 TIP3 OH2  OT    -0.834000       15.9994           0
   39045 WT2  5627 TIP3 H1   HT     0.417000        1.0080           0
   39046 WT2  5627 TIP3 H2   HT     0.417000        1.0080           0
   39047 WT2  5628 TIP3 OH2  OT    -0.834000       15.9994           0
   39048 WT2  5628 TIP3 H1   HT     0.417000        1.0080           0
   39049 WT2  5628 TIP3 H2   HT     0.417000        1.0080           0
   39050 WT2  5630 TIP3 OH2  OT    -0.834000       15.9994           0
   39051 WT2  5630 TIP3 H1   HT     0.417000        1.0080           0
   39052 WT2  5630 TIP3 H2   HT     0.417000        1.0080           0
   39053 WT2  5632 TIP3 OH2  OT    -0.834000       15.9994           0
   39054 WT2  5632 TIP3 H1   HT     0.417000        1.0080           0
   39055 WT2  5632 TIP3 H2   HT     0.417000        1.0080           0
   39056 WT2  5633 TIP3 OH2  OT    -0.834000       15.9994           0
   39057 WT2  5633 TIP3 H1   HT     0.417000        1.0080           0
   39058 WT2  5633 TIP3 H2   HT     0.417000        1.0080           0
   39059 WT2  5635 TIP3 OH2  OT    -0.834000       15.9994           0
   39060 WT2  5635 TIP3 H1   HT     0.417000        1.0080           0
   39061 WT2  5635 TIP3 H2   HT     0.417000        1.0080           0
   39062 WT2  5636 TIP3 OH2  OT    -0.834000       15.9994           0
   39063 WT2  5636 TIP3 H1   HT     0.417000        1.0080           0
   39064 WT2  5636 TIP3 H2   HT     0.417000        1.0080           0
   39065 WT2  5637 TIP3 OH2  OT    -0.834000       15.9994           0
   39066 WT2  5637 TIP3 H1   HT     0.417000        1.0080           0
   39067 WT2  5637 TIP3 H2   HT     0.417000        1.0080           0
   39068 WT2  5638 TIP3 OH2  OT    -0.834000       15.9994           0
   39069 WT2  5638 TIP3 H1   HT     0.417000        1.0080           0
   39070 WT2  5638 TIP3 H2   HT     0.417000        1.0080           0
   39071 WT2  5639 TIP3 OH2  OT    -0.834000       15.9994           0
   39072 WT2  5639 TIP3 H1   HT     0.417000        1.0080           0
   39073 WT2  5639 TIP3 H2   HT     0.417000        1.0080           0
   39074 WT2  5640 TIP3 OH2  OT    -0.834000       15.9994           0
   39075 WT2  5640 TIP3 H1   HT     0.417000        1.0080           0
   39076 WT2  5640 TIP3 H2   HT     0.417000        1.0080           0
   39077 WT2  5641 TIP3 OH2  OT    -0.834000       15.9994           0
   39078 WT2  5641 TIP3 H1   HT     0.417000        1.0080           0
   39079 WT2  5641 TIP3 H2   HT     0.417000        1.0080           0
   39080 WT2  5643 TIP3 OH2  OT    -0.834000       15.9994           0
   39081 WT2  5643 TIP3 H1   HT     0.417000        1.0080           0
   39082 WT2  5643 TIP3 H2   HT     0.417000        1.0080           0
   39083 WT2  5644 TIP3 OH2  OT    -0.834000       15.9994           0
   39084 WT2  5644 TIP3 H1   HT     0.417000        1.0080           0
   39085 WT2  5644 TIP3 H2   HT     0.417000        1.0080           0
   39086 WT2  5645 TIP3 OH2  OT    -0.834000       15.9994           0
   39087 WT2  5645 TIP3 H1   HT     0.417000        1.0080           0
   39088 WT2  5645 TIP3 H2   HT     0.417000        1.0080           0
   39089 WT2  5647 TIP3 OH2  OT    -0.834000       15.9994           0
   39090 WT2  5647 TIP3 H1   HT     0.417000        1.0080           0
   39091 WT2  5647 TIP3 H2   HT     0.417000        1.0080           0
   39092 WT2  5648 TIP3 OH2  OT    -0.834000       15.9994           0
   39093 WT2  5648 TIP3 H1   HT     0.417000        1.0080           0
   39094 WT2  5648 TIP3 H2   HT     0.417000        1.0080           0
   39095 WT2  5649 TIP3 OH2  OT    -0.834000       15.9994           0
   39096 WT2  5649 TIP3 H1   HT     0.417000        1.0080           0
   39097 WT2  5649 TIP3 H2   HT     0.417000        1.0080           0
   39098 WT2  5650 TIP3 OH2  OT    -0.834000       15.9994           0
   39099 WT2  5650 TIP3 H1   HT     0.417000        1.0080           0
   39100 WT2  5650 TIP3 H2   HT     0.417000        1.0080           0
   39101 WT2  5651 TIP3 OH2  OT    -0.834000       15.9994           0
   39102 WT2  5651 TIP3 H1   HT     0.417000        1.0080           0
   39103 WT2  5651 TIP3 H2   HT     0.417000        1.0080           0
   39104 WT2  5652 TIP3 OH2  OT    -0.834000       15.9994           0
   39105 WT2  5652 TIP3 H1   HT     0.417000        1.0080           0
   39106 WT2  5652 TIP3 H2   HT     0.417000        1.0080           0
   39107 WT2  5654 TIP3 OH2  OT    -0.834000       15.9994           0
   39108 WT2  5654 TIP3 H1   HT     0.417000        1.0080           0
   39109 WT2  5654 TIP3 H2   HT     0.417000        1.0080           0
   39110 WT2  5656 TIP3 OH2  OT    -0.834000       15.9994           0
   39111 WT2  5656 TIP3 H1   HT     0.417000        1.0080           0
   39112 WT2  5656 TIP3 H2   HT     0.417000        1.0080           0
   39113 WT2  5657 TIP3 OH2  OT    -0.834000       15.9994           0
   39114 WT2  5657 TIP3 H1   HT     0.417000        1.0080           0
   39115 WT2  5657 TIP3 H2   HT     0.417000        1.0080           0
   39116 WT2  5658 TIP3 OH2  OT    -0.834000       15.9994           0
   39117 WT2  5658 TIP3 H1   HT     0.417000        1.0080           0
   39118 WT2  5658 TIP3 H2   HT     0.417000        1.0080           0
   39119 WT2  5659 TIP3 OH2  OT    -0.834000       15.9994           0
   39120 WT2  5659 TIP3 H1   HT     0.417000        1.0080           0
   39121 WT2  5659 TIP3 H2   HT     0.417000        1.0080           0
   39122 WT2  5660 TIP3 OH2  OT    -0.834000       15.9994           0
   39123 WT2  5660 TIP3 H1   HT     0.417000        1.0080           0
   39124 WT2  5660 TIP3 H2   HT     0.417000        1.0080           0
   39125 WT2  5661 TIP3 OH2  OT    -0.834000       15.9994           0
   39126 WT2  5661 TIP3 H1   HT     0.417000        1.0080           0
   39127 WT2  5661 TIP3 H2   HT     0.417000        1.0080           0
   39128 WT2  5662 TIP3 OH2  OT    -0.834000       15.9994           0
   39129 WT2  5662 TIP3 H1   HT     0.417000        1.0080           0
   39130 WT2  5662 TIP3 H2   HT     0.417000        1.0080           0
   39131 WT2  5663 TIP3 OH2  OT    -0.834000       15.9994           0
   39132 WT2  5663 TIP3 H1   HT     0.417000        1.0080           0
   39133 WT2  5663 TIP3 H2   HT     0.417000        1.0080           0
   39134 WT2  5664 TIP3 OH2  OT    -0.834000       15.9994           0
   39135 WT2  5664 TIP3 H1   HT     0.417000        1.0080           0
   39136 WT2  5664 TIP3 H2   HT     0.417000        1.0080           0
   39137 WT2  5665 TIP3 OH2  OT    -0.834000       15.9994           0
   39138 WT2  5665 TIP3 H1   HT     0.417000        1.0080           0
   39139 WT2  5665 TIP3 H2   HT     0.417000        1.0080           0
   39140 WT2  5666 TIP3 OH2  OT    -0.834000       15.9994           0
   39141 WT2  5666 TIP3 H1   HT     0.417000        1.0080           0
   39142 WT2  5666 TIP3 H2   HT     0.417000        1.0080           0
   39143 WT2  5667 TIP3 OH2  OT    -0.834000       15.9994           0
   39144 WT2  5667 TIP3 H1   HT     0.417000        1.0080           0
   39145 WT2  5667 TIP3 H2   HT     0.417000        1.0080           0
   39146 WT2  5668 TIP3 OH2  OT    -0.834000       15.9994           0
   39147 WT2  5668 TIP3 H1   HT     0.417000        1.0080           0
   39148 WT2  5668 TIP3 H2   HT     0.417000        1.0080           0
   39149 WT2  5669 TIP3 OH2  OT    -0.834000       15.9994           0
   39150 WT2  5669 TIP3 H1   HT     0.417000        1.0080           0
   39151 WT2  5669 TIP3 H2   HT     0.417000        1.0080           0
   39152 WT2  5670 TIP3 OH2  OT    -0.834000       15.9994           0
   39153 WT2  5670 TIP3 H1   HT     0.417000        1.0080           0
   39154 WT2  5670 TIP3 H2   HT     0.417000        1.0080           0
   39155 WT2  5671 TIP3 OH2  OT    -0.834000       15.9994           0
   39156 WT2  5671 TIP3 H1   HT     0.417000        1.0080           0
   39157 WT2  5671 TIP3 H2   HT     0.417000        1.0080           0
   39158 WT2  5672 TIP3 OH2  OT    -0.834000       15.9994           0
   39159 WT2  5672 TIP3 H1   HT     0.417000        1.0080           0
   39160 WT2  5672 TIP3 H2   HT     0.417000        1.0080           0
   39161 WT2  5673 TIP3 OH2  OT    -0.834000       15.9994           0
   39162 WT2  5673 TIP3 H1   HT     0.417000        1.0080           0
   39163 WT2  5673 TIP3 H2   HT     0.417000        1.0080           0
   39164 WT2  5674 TIP3 OH2  OT    -0.834000       15.9994           0
   39165 WT2  5674 TIP3 H1   HT     0.417000        1.0080           0
   39166 WT2  5674 TIP3 H2   HT     0.417000        1.0080           0
   39167 WT2  5676 TIP3 OH2  OT    -0.834000       15.9994           0
   39168 WT2  5676 TIP3 H1   HT     0.417000        1.0080           0
   39169 WT2  5676 TIP3 H2   HT     0.417000        1.0080           0
   39170 WT2  5677 TIP3 OH2  OT    -0.834000       15.9994           0
   39171 WT2  5677 TIP3 H1   HT     0.417000        1.0080           0
   39172 WT2  5677 TIP3 H2   HT     0.417000        1.0080           0
   39173 WT2  5678 TIP3 OH2  OT    -0.834000       15.9994           0
   39174 WT2  5678 TIP3 H1   HT     0.417000        1.0080           0
   39175 WT2  5678 TIP3 H2   HT     0.417000        1.0080           0
   39176 WT2  5679 TIP3 OH2  OT    -0.834000       15.9994           0
   39177 WT2  5679 TIP3 H1   HT     0.417000        1.0080           0
   39178 WT2  5679 TIP3 H2   HT     0.417000        1.0080           0
   39179 WT2  5680 TIP3 OH2  OT    -0.834000       15.9994           0
   39180 WT2  5680 TIP3 H1   HT     0.417000        1.0080           0
   39181 WT2  5680 TIP3 H2   HT     0.417000        1.0080           0
   39182 WT2  5681 TIP3 OH2  OT    -0.834000       15.9994           0
   39183 WT2  5681 TIP3 H1   HT     0.417000        1.0080           0
   39184 WT2  5681 TIP3 H2   HT     0.417000        1.0080           0
   39185 WT2  5682 TIP3 OH2  OT    -0.834000       15.9994           0
   39186 WT2  5682 TIP3 H1   HT     0.417000        1.0080           0
   39187 WT2  5682 TIP3 H2   HT     0.417000        1.0080           0
   39188 WT2  5683 TIP3 OH2  OT    -0.834000       15.9994           0
   39189 WT2  5683 TIP3 H1   HT     0.417000        1.0080           0
   39190 WT2  5683 TIP3 H2   HT     0.417000        1.0080           0
   39191 WT2  5684 TIP3 OH2  OT    -0.834000       15.9994           0
   39192 WT2  5684 TIP3 H1   HT     0.417000        1.0080           0
   39193 WT2  5684 TIP3 H2   HT     0.417000        1.0080           0
   39194 WT2  5686 TIP3 OH2  OT    -0.834000       15.9994           0
   39195 WT2  5686 TIP3 H1   HT     0.417000        1.0080           0
   39196 WT2  5686 TIP3 H2   HT     0.417000        1.0080           0
   39197 WT2  5687 TIP3 OH2  OT    -0.834000       15.9994           0
   39198 WT2  5687 TIP3 H1   HT     0.417000        1.0080           0
   39199 WT2  5687 TIP3 H2   HT     0.417000        1.0080           0
   39200 WT2  5688 TIP3 OH2  OT    -0.834000       15.9994           0
   39201 WT2  5688 TIP3 H1   HT     0.417000        1.0080           0
   39202 WT2  5688 TIP3 H2   HT     0.417000        1.0080           0
   39203 WT2  5689 TIP3 OH2  OT    -0.834000       15.9994           0
   39204 WT2  5689 TIP3 H1   HT     0.417000        1.0080           0
   39205 WT2  5689 TIP3 H2   HT     0.417000        1.0080           0
   39206 WT2  5690 TIP3 OH2  OT    -0.834000       15.9994           0
   39207 WT2  5690 TIP3 H1   HT     0.417000        1.0080           0
   39208 WT2  5690 TIP3 H2   HT     0.417000        1.0080           0
   39209 WT2  5691 TIP3 OH2  OT    -0.834000       15.9994           0
   39210 WT2  5691 TIP3 H1   HT     0.417000        1.0080           0
   39211 WT2  5691 TIP3 H2   HT     0.417000        1.0080           0
   39212 WT2  5692 TIP3 OH2  OT    -0.834000       15.9994           0
   39213 WT2  5692 TIP3 H1   HT     0.417000        1.0080           0
   39214 WT2  5692 TIP3 H2   HT     0.417000        1.0080           0
   39215 WT2  5694 TIP3 OH2  OT    -0.834000       15.9994           0
   39216 WT2  5694 TIP3 H1   HT     0.417000        1.0080           0
   39217 WT2  5694 TIP3 H2   HT     0.417000        1.0080           0
   39218 WT2  5695 TIP3 OH2  OT    -0.834000       15.9994           0
   39219 WT2  5695 TIP3 H1   HT     0.417000        1.0080           0
   39220 WT2  5695 TIP3 H2   HT     0.417000        1.0080           0
   39221 WT2  5696 TIP3 OH2  OT    -0.834000       15.9994           0
   39222 WT2  5696 TIP3 H1   HT     0.417000        1.0080           0
   39223 WT2  5696 TIP3 H2   HT     0.417000        1.0080           0
   39224 WT2  5699 TIP3 OH2  OT    -0.834000       15.9994           0
   39225 WT2  5699 TIP3 H1   HT     0.417000        1.0080           0
   39226 WT2  5699 TIP3 H2   HT     0.417000        1.0080           0
   39227 WT2  5700 TIP3 OH2  OT    -0.834000       15.9994           0
   39228 WT2  5700 TIP3 H1   HT     0.417000        1.0080           0
   39229 WT2  5700 TIP3 H2   HT     0.417000        1.0080           0
   39230 WT2  5701 TIP3 OH2  OT    -0.834000       15.9994           0
   39231 WT2  5701 TIP3 H1   HT     0.417000        1.0080           0
   39232 WT2  5701 TIP3 H2   HT     0.417000        1.0080           0
   39233 WT2  5702 TIP3 OH2  OT    -0.834000       15.9994           0
   39234 WT2  5702 TIP3 H1   HT     0.417000        1.0080           0
   39235 WT2  5702 TIP3 H2   HT     0.417000        1.0080           0
   39236 WT2  5703 TIP3 OH2  OT    -0.834000       15.9994           0
   39237 WT2  5703 TIP3 H1   HT     0.417000        1.0080           0
   39238 WT2  5703 TIP3 H2   HT     0.417000        1.0080           0
   39239 WT2  5704 TIP3 OH2  OT    -0.834000       15.9994           0
   39240 WT2  5704 TIP3 H1   HT     0.417000        1.0080           0
   39241 WT2  5704 TIP3 H2   HT     0.417000        1.0080           0
   39242 WT2  5705 TIP3 OH2  OT    -0.834000       15.9994           0
   39243 WT2  5705 TIP3 H1   HT     0.417000        1.0080           0
   39244 WT2  5705 TIP3 H2   HT     0.417000        1.0080           0
   39245 WT2  5706 TIP3 OH2  OT    -0.834000       15.9994           0
   39246 WT2  5706 TIP3 H1   HT     0.417000        1.0080           0
   39247 WT2  5706 TIP3 H2   HT     0.417000        1.0080           0
   39248 WT2  5707 TIP3 OH2  OT    -0.834000       15.9994           0
   39249 WT2  5707 TIP3 H1   HT     0.417000        1.0080           0
   39250 WT2  5707 TIP3 H2   HT     0.417000        1.0080           0
   39251 WT2  5708 TIP3 OH2  OT    -0.834000       15.9994           0
   39252 WT2  5708 TIP3 H1   HT     0.417000        1.0080           0
   39253 WT2  5708 TIP3 H2   HT     0.417000        1.0080           0
   39254 WT2  5709 TIP3 OH2  OT    -0.834000       15.9994           0
   39255 WT2  5709 TIP3 H1   HT     0.417000        1.0080           0
   39256 WT2  5709 TIP3 H2   HT     0.417000        1.0080           0
   39257 WT2  5710 TIP3 OH2  OT    -0.834000       15.9994           0
   39258 WT2  5710 TIP3 H1   HT     0.417000        1.0080           0
   39259 WT2  5710 TIP3 H2   HT     0.417000        1.0080           0
   39260 WT2  5711 TIP3 OH2  OT    -0.834000       15.9994           0
   39261 WT2  5711 TIP3 H1   HT     0.417000        1.0080           0
   39262 WT2  5711 TIP3 H2   HT     0.417000        1.0080           0
   39263 WT2  5712 TIP3 OH2  OT    -0.834000       15.9994           0
   39264 WT2  5712 TIP3 H1   HT     0.417000        1.0080           0
   39265 WT2  5712 TIP3 H2   HT     0.417000        1.0080           0
   39266 WT2  5713 TIP3 OH2  OT    -0.834000       15.9994           0
   39267 WT2  5713 TIP3 H1   HT     0.417000        1.0080           0
   39268 WT2  5713 TIP3 H2   HT     0.417000        1.0080           0
   39269 WT2  5717 TIP3 OH2  OT    -0.834000       15.9994           0
   39270 WT2  5717 TIP3 H1   HT     0.417000        1.0080           0
   39271 WT2  5717 TIP3 H2   HT     0.417000        1.0080           0
   39272 WT2  5718 TIP3 OH2  OT    -0.834000       15.9994           0
   39273 WT2  5718 TIP3 H1   HT     0.417000        1.0080           0
   39274 WT2  5718 TIP3 H2   HT     0.417000        1.0080           0
   39275 WT2  5719 TIP3 OH2  OT    -0.834000       15.9994           0
   39276 WT2  5719 TIP3 H1   HT     0.417000        1.0080           0
   39277 WT2  5719 TIP3 H2   HT     0.417000        1.0080           0
   39278 WT2  5721 TIP3 OH2  OT    -0.834000       15.9994           0
   39279 WT2  5721 TIP3 H1   HT     0.417000        1.0080           0
   39280 WT2  5721 TIP3 H2   HT     0.417000        1.0080           0
   39281 WT2  5722 TIP3 OH2  OT    -0.834000       15.9994           0
   39282 WT2  5722 TIP3 H1   HT     0.417000        1.0080           0
   39283 WT2  5722 TIP3 H2   HT     0.417000        1.0080           0
   39284 WT2  5723 TIP3 OH2  OT    -0.834000       15.9994           0
   39285 WT2  5723 TIP3 H1   HT     0.417000        1.0080           0
   39286 WT2  5723 TIP3 H2   HT     0.417000        1.0080           0
   39287 WT2  5724 TIP3 OH2  OT    -0.834000       15.9994           0
   39288 WT2  5724 TIP3 H1   HT     0.417000        1.0080           0
   39289 WT2  5724 TIP3 H2   HT     0.417000        1.0080           0
   39290 WT2  5725 TIP3 OH2  OT    -0.834000       15.9994           0
   39291 WT2  5725 TIP3 H1   HT     0.417000        1.0080           0
   39292 WT2  5725 TIP3 H2   HT     0.417000        1.0080           0
   39293 WT2  5726 TIP3 OH2  OT    -0.834000       15.9994           0
   39294 WT2  5726 TIP3 H1   HT     0.417000        1.0080           0
   39295 WT2  5726 TIP3 H2   HT     0.417000        1.0080           0
   39296 WT2  5728 TIP3 OH2  OT    -0.834000       15.9994           0
   39297 WT2  5728 TIP3 H1   HT     0.417000        1.0080           0
   39298 WT2  5728 TIP3 H2   HT     0.417000        1.0080           0
   39299 WT2  5729 TIP3 OH2  OT    -0.834000       15.9994           0
   39300 WT2  5729 TIP3 H1   HT     0.417000        1.0080           0
   39301 WT2  5729 TIP3 H2   HT     0.417000        1.0080           0
   39302 WT2  5730 TIP3 OH2  OT    -0.834000       15.9994           0
   39303 WT2  5730 TIP3 H1   HT     0.417000        1.0080           0
   39304 WT2  5730 TIP3 H2   HT     0.417000        1.0080           0
   39305 WT2  5732 TIP3 OH2  OT    -0.834000       15.9994           0
   39306 WT2  5732 TIP3 H1   HT     0.417000        1.0080           0
   39307 WT2  5732 TIP3 H2   HT     0.417000        1.0080           0
   39308 WT2  5733 TIP3 OH2  OT    -0.834000       15.9994           0
   39309 WT2  5733 TIP3 H1   HT     0.417000        1.0080           0
   39310 WT2  5733 TIP3 H2   HT     0.417000        1.0080           0
   39311 WT2  5734 TIP3 OH2  OT    -0.834000       15.9994           0
   39312 WT2  5734 TIP3 H1   HT     0.417000        1.0080           0
   39313 WT2  5734 TIP3 H2   HT     0.417000        1.0080           0
   39314 WT2  5735 TIP3 OH2  OT    -0.834000       15.9994           0
   39315 WT2  5735 TIP3 H1   HT     0.417000        1.0080           0
   39316 WT2  5735 TIP3 H2   HT     0.417000        1.0080           0
   39317 WT2  5736 TIP3 OH2  OT    -0.834000       15.9994           0
   39318 WT2  5736 TIP3 H1   HT     0.417000        1.0080           0
   39319 WT2  5736 TIP3 H2   HT     0.417000        1.0080           0
   39320 WT2  5737 TIP3 OH2  OT    -0.834000       15.9994           0
   39321 WT2  5737 TIP3 H1   HT     0.417000        1.0080           0
   39322 WT2  5737 TIP3 H2   HT     0.417000        1.0080           0
   39323 WT2  5739 TIP3 OH2  OT    -0.834000       15.9994           0
   39324 WT2  5739 TIP3 H1   HT     0.417000        1.0080           0
   39325 WT2  5739 TIP3 H2   HT     0.417000        1.0080           0
   39326 WT2  5742 TIP3 OH2  OT    -0.834000       15.9994           0
   39327 WT2  5742 TIP3 H1   HT     0.417000        1.0080           0
   39328 WT2  5742 TIP3 H2   HT     0.417000        1.0080           0
   39329 WT2  5743 TIP3 OH2  OT    -0.834000       15.9994           0
   39330 WT2  5743 TIP3 H1   HT     0.417000        1.0080           0
   39331 WT2  5743 TIP3 H2   HT     0.417000        1.0080           0
   39332 WT2  5744 TIP3 OH2  OT    -0.834000       15.9994           0
   39333 WT2  5744 TIP3 H1   HT     0.417000        1.0080           0
   39334 WT2  5744 TIP3 H2   HT     0.417000        1.0080           0
   39335 WT2  5745 TIP3 OH2  OT    -0.834000       15.9994           0
   39336 WT2  5745 TIP3 H1   HT     0.417000        1.0080           0
   39337 WT2  5745 TIP3 H2   HT     0.417000        1.0080           0
   39338 WT2  5746 TIP3 OH2  OT    -0.834000       15.9994           0
   39339 WT2  5746 TIP3 H1   HT     0.417000        1.0080           0
   39340 WT2  5746 TIP3 H2   HT     0.417000        1.0080           0
   39341 WT2  5747 TIP3 OH2  OT    -0.834000       15.9994           0
   39342 WT2  5747 TIP3 H1   HT     0.417000        1.0080           0
   39343 WT2  5747 TIP3 H2   HT     0.417000        1.0080           0
   39344 WT2  5748 TIP3 OH2  OT    -0.834000       15.9994           0
   39345 WT2  5748 TIP3 H1   HT     0.417000        1.0080           0
   39346 WT2  5748 TIP3 H2   HT     0.417000        1.0080           0
   39347 WT2  5750 TIP3 OH2  OT    -0.834000       15.9994           0
   39348 WT2  5750 TIP3 H1   HT     0.417000        1.0080           0
   39349 WT2  5750 TIP3 H2   HT     0.417000        1.0080           0
   39350 WT2  5752 TIP3 OH2  OT    -0.834000       15.9994           0
   39351 WT2  5752 TIP3 H1   HT     0.417000        1.0080           0
   39352 WT2  5752 TIP3 H2   HT     0.417000        1.0080           0
   39353 WT2  5754 TIP3 OH2  OT    -0.834000       15.9994           0
   39354 WT2  5754 TIP3 H1   HT     0.417000        1.0080           0
   39355 WT2  5754 TIP3 H2   HT     0.417000        1.0080           0
   39356 WT2  5755 TIP3 OH2  OT    -0.834000       15.9994           0
   39357 WT2  5755 TIP3 H1   HT     0.417000        1.0080           0
   39358 WT2  5755 TIP3 H2   HT     0.417000        1.0080           0
   39359 WT2  5756 TIP3 OH2  OT    -0.834000       15.9994           0
   39360 WT2  5756 TIP3 H1   HT     0.417000        1.0080           0
   39361 WT2  5756 TIP3 H2   HT     0.417000        1.0080           0
   39362 WT2  5757 TIP3 OH2  OT    -0.834000       15.9994           0
   39363 WT2  5757 TIP3 H1   HT     0.417000        1.0080           0
   39364 WT2  5757 TIP3 H2   HT     0.417000        1.0080           0
   39365 WT2  5759 TIP3 OH2  OT    -0.834000       15.9994           0
   39366 WT2  5759 TIP3 H1   HT     0.417000        1.0080           0
   39367 WT2  5759 TIP3 H2   HT     0.417000        1.0080           0
   39368 WT2  5761 TIP3 OH2  OT    -0.834000       15.9994           0
   39369 WT2  5761 TIP3 H1   HT     0.417000        1.0080           0
   39370 WT2  5761 TIP3 H2   HT     0.417000        1.0080           0
   39371 WT2  5762 TIP3 OH2  OT    -0.834000       15.9994           0
   39372 WT2  5762 TIP3 H1   HT     0.417000        1.0080           0
   39373 WT2  5762 TIP3 H2   HT     0.417000        1.0080           0
   39374 WT2  5764 TIP3 OH2  OT    -0.834000       15.9994           0
   39375 WT2  5764 TIP3 H1   HT     0.417000        1.0080           0
   39376 WT2  5764 TIP3 H2   HT     0.417000        1.0080           0
   39377 WT2  5765 TIP3 OH2  OT    -0.834000       15.9994           0
   39378 WT2  5765 TIP3 H1   HT     0.417000        1.0080           0
   39379 WT2  5765 TIP3 H2   HT     0.417000        1.0080           0
   39380 WT2  5766 TIP3 OH2  OT    -0.834000       15.9994           0
   39381 WT2  5766 TIP3 H1   HT     0.417000        1.0080           0
   39382 WT2  5766 TIP3 H2   HT     0.417000        1.0080           0
   39383 WT2  5767 TIP3 OH2  OT    -0.834000       15.9994           0
   39384 WT2  5767 TIP3 H1   HT     0.417000        1.0080           0
   39385 WT2  5767 TIP3 H2   HT     0.417000        1.0080           0
   39386 WT2  5769 TIP3 OH2  OT    -0.834000       15.9994           0
   39387 WT2  5769 TIP3 H1   HT     0.417000        1.0080           0
   39388 WT2  5769 TIP3 H2   HT     0.417000        1.0080           0
   39389 WT2  5770 TIP3 OH2  OT    -0.834000       15.9994           0
   39390 WT2  5770 TIP3 H1   HT     0.417000        1.0080           0
   39391 WT2  5770 TIP3 H2   HT     0.417000        1.0080           0
   39392 WT2  5771 TIP3 OH2  OT    -0.834000       15.9994           0
   39393 WT2  5771 TIP3 H1   HT     0.417000        1.0080           0
   39394 WT2  5771 TIP3 H2   HT     0.417000        1.0080           0
   39395 WT2  5772 TIP3 OH2  OT    -0.834000       15.9994           0
   39396 WT2  5772 TIP3 H1   HT     0.417000        1.0080           0
   39397 WT2  5772 TIP3 H2   HT     0.417000        1.0080           0
   39398 WT2  5773 TIP3 OH2  OT    -0.834000       15.9994           0
   39399 WT2  5773 TIP3 H1   HT     0.417000        1.0080           0
   39400 WT2  5773 TIP3 H2   HT     0.417000        1.0080           0
   39401 WT2  5774 TIP3 OH2  OT    -0.834000       15.9994           0
   39402 WT2  5774 TIP3 H1   HT     0.417000        1.0080           0
   39403 WT2  5774 TIP3 H2   HT     0.417000        1.0080           0
   39404 WT2  5775 TIP3 OH2  OT    -0.834000       15.9994           0
   39405 WT2  5775 TIP3 H1   HT     0.417000        1.0080           0
   39406 WT2  5775 TIP3 H2   HT     0.417000        1.0080           0
   39407 WT2  5776 TIP3 OH2  OT    -0.834000       15.9994           0
   39408 WT2  5776 TIP3 H1   HT     0.417000        1.0080           0
   39409 WT2  5776 TIP3 H2   HT     0.417000        1.0080           0
   39410 WT2  5777 TIP3 OH2  OT    -0.834000       15.9994           0
   39411 WT2  5777 TIP3 H1   HT     0.417000        1.0080           0
   39412 WT2  5777 TIP3 H2   HT     0.417000        1.0080           0
   39413 WT2  5778 TIP3 OH2  OT    -0.834000       15.9994           0
   39414 WT2  5778 TIP3 H1   HT     0.417000        1.0080           0
   39415 WT2  5778 TIP3 H2   HT     0.417000        1.0080           0
   39416 WT2  5779 TIP3 OH2  OT    -0.834000       15.9994           0
   39417 WT2  5779 TIP3 H1   HT     0.417000        1.0080           0
   39418 WT2  5779 TIP3 H2   HT     0.417000        1.0080           0
   39419 WT2  5780 TIP3 OH2  OT    -0.834000       15.9994           0
   39420 WT2  5780 TIP3 H1   HT     0.417000        1.0080           0
   39421 WT2  5780 TIP3 H2   HT     0.417000        1.0080           0
   39422 WT2  5781 TIP3 OH2  OT    -0.834000       15.9994           0
   39423 WT2  5781 TIP3 H1   HT     0.417000        1.0080           0
   39424 WT2  5781 TIP3 H2   HT     0.417000        1.0080           0
   39425 WT2  5782 TIP3 OH2  OT    -0.834000       15.9994           0
   39426 WT2  5782 TIP3 H1   HT     0.417000        1.0080           0
   39427 WT2  5782 TIP3 H2   HT     0.417000        1.0080           0
   39428 WT2  5783 TIP3 OH2  OT    -0.834000       15.9994           0
   39429 WT2  5783 TIP3 H1   HT     0.417000        1.0080           0
   39430 WT2  5783 TIP3 H2   HT     0.417000        1.0080           0
   39431 WT2  5784 TIP3 OH2  OT    -0.834000       15.9994           0
   39432 WT2  5784 TIP3 H1   HT     0.417000        1.0080           0
   39433 WT2  5784 TIP3 H2   HT     0.417000        1.0080           0
   39434 WT2  5786 TIP3 OH2  OT    -0.834000       15.9994           0
   39435 WT2  5786 TIP3 H1   HT     0.417000        1.0080           0
   39436 WT2  5786 TIP3 H2   HT     0.417000        1.0080           0
   39437 WT2  5787 TIP3 OH2  OT    -0.834000       15.9994           0
   39438 WT2  5787 TIP3 H1   HT     0.417000        1.0080           0
   39439 WT2  5787 TIP3 H2   HT     0.417000        1.0080           0
   39440 WT2  5788 TIP3 OH2  OT    -0.834000       15.9994           0
   39441 WT2  5788 TIP3 H1   HT     0.417000        1.0080           0
   39442 WT2  5788 TIP3 H2   HT     0.417000        1.0080           0
   39443 WT2  5789 TIP3 OH2  OT    -0.834000       15.9994           0
   39444 WT2  5789 TIP3 H1   HT     0.417000        1.0080           0
   39445 WT2  5789 TIP3 H2   HT     0.417000        1.0080           0
   39446 WT2  5790 TIP3 OH2  OT    -0.834000       15.9994           0
   39447 WT2  5790 TIP3 H1   HT     0.417000        1.0080           0
   39448 WT2  5790 TIP3 H2   HT     0.417000        1.0080           0
   39449 WT2  5791 TIP3 OH2  OT    -0.834000       15.9994           0
   39450 WT2  5791 TIP3 H1   HT     0.417000        1.0080           0
   39451 WT2  5791 TIP3 H2   HT     0.417000        1.0080           0
   39452 WT2  5792 TIP3 OH2  OT    -0.834000       15.9994           0
   39453 WT2  5792 TIP3 H1   HT     0.417000        1.0080           0
   39454 WT2  5792 TIP3 H2   HT     0.417000        1.0080           0
   39455 WT2  5793 TIP3 OH2  OT    -0.834000       15.9994           0
   39456 WT2  5793 TIP3 H1   HT     0.417000        1.0080           0
   39457 WT2  5793 TIP3 H2   HT     0.417000        1.0080           0
   39458 WT2  5794 TIP3 OH2  OT    -0.834000       15.9994           0
   39459 WT2  5794 TIP3 H1   HT     0.417000        1.0080           0
   39460 WT2  5794 TIP3 H2   HT     0.417000        1.0080           0
   39461 WT2  5796 TIP3 OH2  OT    -0.834000       15.9994           0
   39462 WT2  5796 TIP3 H1   HT     0.417000        1.0080           0
   39463 WT2  5796 TIP3 H2   HT     0.417000        1.0080           0
   39464 WT2  5797 TIP3 OH2  OT    -0.834000       15.9994           0
   39465 WT2  5797 TIP3 H1   HT     0.417000        1.0080           0
   39466 WT2  5797 TIP3 H2   HT     0.417000        1.0080           0
   39467 WT2  5798 TIP3 OH2  OT    -0.834000       15.9994           0
   39468 WT2  5798 TIP3 H1   HT     0.417000        1.0080           0
   39469 WT2  5798 TIP3 H2   HT     0.417000        1.0080           0
   39470 WT2  5799 TIP3 OH2  OT    -0.834000       15.9994           0
   39471 WT2  5799 TIP3 H1   HT     0.417000        1.0080           0
   39472 WT2  5799 TIP3 H2   HT     0.417000        1.0080           0
   39473 WT2  5802 TIP3 OH2  OT    -0.834000       15.9994           0
   39474 WT2  5802 TIP3 H1   HT     0.417000        1.0080           0
   39475 WT2  5802 TIP3 H2   HT     0.417000        1.0080           0
   39476 WT2  5803 TIP3 OH2  OT    -0.834000       15.9994           0
   39477 WT2  5803 TIP3 H1   HT     0.417000        1.0080           0
   39478 WT2  5803 TIP3 H2   HT     0.417000        1.0080           0
   39479 WT2  5804 TIP3 OH2  OT    -0.834000       15.9994           0
   39480 WT2  5804 TIP3 H1   HT     0.417000        1.0080           0
   39481 WT2  5804 TIP3 H2   HT     0.417000        1.0080           0
   39482 WT2  5805 TIP3 OH2  OT    -0.834000       15.9994           0
   39483 WT2  5805 TIP3 H1   HT     0.417000        1.0080           0
   39484 WT2  5805 TIP3 H2   HT     0.417000        1.0080           0
   39485 WT2  5806 TIP3 OH2  OT    -0.834000       15.9994           0
   39486 WT2  5806 TIP3 H1   HT     0.417000        1.0080           0
   39487 WT2  5806 TIP3 H2   HT     0.417000        1.0080           0
   39488 WT2  5807 TIP3 OH2  OT    -0.834000       15.9994           0
   39489 WT2  5807 TIP3 H1   HT     0.417000        1.0080           0
   39490 WT2  5807 TIP3 H2   HT     0.417000        1.0080           0
   39491 WT2  5808 TIP3 OH2  OT    -0.834000       15.9994           0
   39492 WT2  5808 TIP3 H1   HT     0.417000        1.0080           0
   39493 WT2  5808 TIP3 H2   HT     0.417000        1.0080           0
   39494 WT2  5810 TIP3 OH2  OT    -0.834000       15.9994           0
   39495 WT2  5810 TIP3 H1   HT     0.417000        1.0080           0
   39496 WT2  5810 TIP3 H2   HT     0.417000        1.0080           0
   39497 WT2  5811 TIP3 OH2  OT    -0.834000       15.9994           0
   39498 WT2  5811 TIP3 H1   HT     0.417000        1.0080           0
   39499 WT2  5811 TIP3 H2   HT     0.417000        1.0080           0
   39500 WT2  5812 TIP3 OH2  OT    -0.834000       15.9994           0
   39501 WT2  5812 TIP3 H1   HT     0.417000        1.0080           0
   39502 WT2  5812 TIP3 H2   HT     0.417000        1.0080           0
   39503 WT2  5813 TIP3 OH2  OT    -0.834000       15.9994           0
   39504 WT2  5813 TIP3 H1   HT     0.417000        1.0080           0
   39505 WT2  5813 TIP3 H2   HT     0.417000        1.0080           0
   39506 WT2  5814 TIP3 OH2  OT    -0.834000       15.9994           0
   39507 WT2  5814 TIP3 H1   HT     0.417000        1.0080           0
   39508 WT2  5814 TIP3 H2   HT     0.417000        1.0080           0
   39509 WT2  5815 TIP3 OH2  OT    -0.834000       15.9994           0
   39510 WT2  5815 TIP3 H1   HT     0.417000        1.0080           0
   39511 WT2  5815 TIP3 H2   HT     0.417000        1.0080           0
   39512 WT2  5816 TIP3 OH2  OT    -0.834000       15.9994           0
   39513 WT2  5816 TIP3 H1   HT     0.417000        1.0080           0
   39514 WT2  5816 TIP3 H2   HT     0.417000        1.0080           0
   39515 WT2  5817 TIP3 OH2  OT    -0.834000       15.9994           0
   39516 WT2  5817 TIP3 H1   HT     0.417000        1.0080           0
   39517 WT2  5817 TIP3 H2   HT     0.417000        1.0080           0
   39518 WT2  5818 TIP3 OH2  OT    -0.834000       15.9994           0
   39519 WT2  5818 TIP3 H1   HT     0.417000        1.0080           0
   39520 WT2  5818 TIP3 H2   HT     0.417000        1.0080           0
   39521 WT2  5819 TIP3 OH2  OT    -0.834000       15.9994           0
   39522 WT2  5819 TIP3 H1   HT     0.417000        1.0080           0
   39523 WT2  5819 TIP3 H2   HT     0.417000        1.0080           0
   39524 WT2  5820 TIP3 OH2  OT    -0.834000       15.9994           0
   39525 WT2  5820 TIP3 H1   HT     0.417000        1.0080           0
   39526 WT2  5820 TIP3 H2   HT     0.417000        1.0080           0
   39527 WT2  5821 TIP3 OH2  OT    -0.834000       15.9994           0
   39528 WT2  5821 TIP3 H1   HT     0.417000        1.0080           0
   39529 WT2  5821 TIP3 H2   HT     0.417000        1.0080           0
   39530 WT2  5822 TIP3 OH2  OT    -0.834000       15.9994           0
   39531 WT2  5822 TIP3 H1   HT     0.417000        1.0080           0
   39532 WT2  5822 TIP3 H2   HT     0.417000        1.0080           0
   39533 WT2  5823 TIP3 OH2  OT    -0.834000       15.9994           0
   39534 WT2  5823 TIP3 H1   HT     0.417000        1.0080           0
   39535 WT2  5823 TIP3 H2   HT     0.417000        1.0080           0
   39536 WT2  5824 TIP3 OH2  OT    -0.834000       15.9994           0
   39537 WT2  5824 TIP3 H1   HT     0.417000        1.0080           0
   39538 WT2  5824 TIP3 H2   HT     0.417000        1.0080           0
   39539 WT2  5825 TIP3 OH2  OT    -0.834000       15.9994           0
   39540 WT2  5825 TIP3 H1   HT     0.417000        1.0080           0
   39541 WT2  5825 TIP3 H2   HT     0.417000        1.0080           0
   39542 WT2  5826 TIP3 OH2  OT    -0.834000       15.9994           0
   39543 WT2  5826 TIP3 H1   HT     0.417000        1.0080           0
   39544 WT2  5826 TIP3 H2   HT     0.417000        1.0080           0
   39545 WT2  5827 TIP3 OH2  OT    -0.834000       15.9994           0
   39546 WT2  5827 TIP3 H1   HT     0.417000        1.0080           0
   39547 WT2  5827 TIP3 H2   HT     0.417000        1.0080           0
   39548 WT2  5828 TIP3 OH2  OT    -0.834000       15.9994           0
   39549 WT2  5828 TIP3 H1   HT     0.417000        1.0080           0
   39550 WT2  5828 TIP3 H2   HT     0.417000        1.0080           0
   39551 WT2  5829 TIP3 OH2  OT    -0.834000       15.9994           0
   39552 WT2  5829 TIP3 H1   HT     0.417000        1.0080           0
   39553 WT2  5829 TIP3 H2   HT     0.417000        1.0080           0
   39554 WT2  5830 TIP3 OH2  OT    -0.834000       15.9994           0
   39555 WT2  5830 TIP3 H1   HT     0.417000        1.0080           0
   39556 WT2  5830 TIP3 H2   HT     0.417000        1.0080           0
   39557 WT2  5831 TIP3 OH2  OT    -0.834000       15.9994           0
   39558 WT2  5831 TIP3 H1   HT     0.417000        1.0080           0
   39559 WT2  5831 TIP3 H2   HT     0.417000        1.0080           0
   39560 WT2  5832 TIP3 OH2  OT    -0.834000       15.9994           0
   39561 WT2  5832 TIP3 H1   HT     0.417000        1.0080           0
   39562 WT2  5832 TIP3 H2   HT     0.417000        1.0080           0
   39563 WT2  5833 TIP3 OH2  OT    -0.834000       15.9994           0
   39564 WT2  5833 TIP3 H1   HT     0.417000        1.0080           0
   39565 WT2  5833 TIP3 H2   HT     0.417000        1.0080           0
   39566 WT2  5834 TIP3 OH2  OT    -0.834000       15.9994           0
   39567 WT2  5834 TIP3 H1   HT     0.417000        1.0080           0
   39568 WT2  5834 TIP3 H2   HT     0.417000        1.0080           0
   39569 WT2  5835 TIP3 OH2  OT    -0.834000       15.9994           0
   39570 WT2  5835 TIP3 H1   HT     0.417000        1.0080           0
   39571 WT2  5835 TIP3 H2   HT     0.417000        1.0080           0
   39572 WT2  5836 TIP3 OH2  OT    -0.834000       15.9994           0
   39573 WT2  5836 TIP3 H1   HT     0.417000        1.0080           0
   39574 WT2  5836 TIP3 H2   HT     0.417000        1.0080           0
   39575 WT2  5837 TIP3 OH2  OT    -0.834000       15.9994           0
   39576 WT2  5837 TIP3 H1   HT     0.417000        1.0080           0
   39577 WT2  5837 TIP3 H2   HT     0.417000        1.0080           0
   39578 WT2  5838 TIP3 OH2  OT    -0.834000       15.9994           0
   39579 WT2  5838 TIP3 H1   HT     0.417000        1.0080           0
   39580 WT2  5838 TIP3 H2   HT     0.417000        1.0080           0
   39581 WT2  5839 TIP3 OH2  OT    -0.834000       15.9994           0
   39582 WT2  5839 TIP3 H1   HT     0.417000        1.0080           0
   39583 WT2  5839 TIP3 H2   HT     0.417000        1.0080           0
   39584 WT2  5840 TIP3 OH2  OT    -0.834000       15.9994           0
   39585 WT2  5840 TIP3 H1   HT     0.417000        1.0080           0
   39586 WT2  5840 TIP3 H2   HT     0.417000        1.0080           0
   39587 WT2  5841 TIP3 OH2  OT    -0.834000       15.9994           0
   39588 WT2  5841 TIP3 H1   HT     0.417000        1.0080           0
   39589 WT2  5841 TIP3 H2   HT     0.417000        1.0080           0
   39590 WT2  5842 TIP3 OH2  OT    -0.834000       15.9994           0
   39591 WT2  5842 TIP3 H1   HT     0.417000        1.0080           0
   39592 WT2  5842 TIP3 H2   HT     0.417000        1.0080           0
   39593 WT2  5843 TIP3 OH2  OT    -0.834000       15.9994           0
   39594 WT2  5843 TIP3 H1   HT     0.417000        1.0080           0
   39595 WT2  5843 TIP3 H2   HT     0.417000        1.0080           0
   39596 WT2  5844 TIP3 OH2  OT    -0.834000       15.9994           0
   39597 WT2  5844 TIP3 H1   HT     0.417000        1.0080           0
   39598 WT2  5844 TIP3 H2   HT     0.417000        1.0080           0
   39599 WT2  5845 TIP3 OH2  OT    -0.834000       15.9994           0
   39600 WT2  5845 TIP3 H1   HT     0.417000        1.0080           0
   39601 WT2  5845 TIP3 H2   HT     0.417000        1.0080           0
   39602 WT2  5846 TIP3 OH2  OT    -0.834000       15.9994           0
   39603 WT2  5846 TIP3 H1   HT     0.417000        1.0080           0
   39604 WT2  5846 TIP3 H2   HT     0.417000        1.0080           0
   39605 WT2  5847 TIP3 OH2  OT    -0.834000       15.9994           0
   39606 WT2  5847 TIP3 H1   HT     0.417000        1.0080           0
   39607 WT2  5847 TIP3 H2   HT     0.417000        1.0080           0
   39608 WT2  5848 TIP3 OH2  OT    -0.834000       15.9994           0
   39609 WT2  5848 TIP3 H1   HT     0.417000        1.0080           0
   39610 WT2  5848 TIP3 H2   HT     0.417000        1.0080           0
   39611 WT2  5849 TIP3 OH2  OT    -0.834000       15.9994           0
   39612 WT2  5849 TIP3 H1   HT     0.417000        1.0080           0
   39613 WT2  5849 TIP3 H2   HT     0.417000        1.0080           0
   39614 WT2  5850 TIP3 OH2  OT    -0.834000       15.9994           0
   39615 WT2  5850 TIP3 H1   HT     0.417000        1.0080           0
   39616 WT2  5850 TIP3 H2   HT     0.417000        1.0080           0
   39617 WT2  5851 TIP3 OH2  OT    -0.834000       15.9994           0
   39618 WT2  5851 TIP3 H1   HT     0.417000        1.0080           0
   39619 WT2  5851 TIP3 H2   HT     0.417000        1.0080           0
   39620 WT2  5852 TIP3 OH2  OT    -0.834000       15.9994           0
   39621 WT2  5852 TIP3 H1   HT     0.417000        1.0080           0
   39622 WT2  5852 TIP3 H2   HT     0.417000        1.0080           0
   39623 WT2  5853 TIP3 OH2  OT    -0.834000       15.9994           0
   39624 WT2  5853 TIP3 H1   HT     0.417000        1.0080           0
   39625 WT2  5853 TIP3 H2   HT     0.417000        1.0080           0
   39626 WT2  5854 TIP3 OH2  OT    -0.834000       15.9994           0
   39627 WT2  5854 TIP3 H1   HT     0.417000        1.0080           0
   39628 WT2  5854 TIP3 H2   HT     0.417000        1.0080           0
   39629 WT2  5855 TIP3 OH2  OT    -0.834000       15.9994           0
   39630 WT2  5855 TIP3 H1   HT     0.417000        1.0080           0
   39631 WT2  5855 TIP3 H2   HT     0.417000        1.0080           0
   39632 WT2  5856 TIP3 OH2  OT    -0.834000       15.9994           0
   39633 WT2  5856 TIP3 H1   HT     0.417000        1.0080           0
   39634 WT2  5856 TIP3 H2   HT     0.417000        1.0080           0
   39635 WT2  5858 TIP3 OH2  OT    -0.834000       15.9994           0
   39636 WT2  5858 TIP3 H1   HT     0.417000        1.0080           0
   39637 WT2  5858 TIP3 H2   HT     0.417000        1.0080           0
   39638 WT2  5859 TIP3 OH2  OT    -0.834000       15.9994           0
   39639 WT2  5859 TIP3 H1   HT     0.417000        1.0080           0
   39640 WT2  5859 TIP3 H2   HT     0.417000        1.0080           0
   39641 WT2  5860 TIP3 OH2  OT    -0.834000       15.9994           0
   39642 WT2  5860 TIP3 H1   HT     0.417000        1.0080           0
   39643 WT2  5860 TIP3 H2   HT     0.417000        1.0080           0
   39644 WT2  5861 TIP3 OH2  OT    -0.834000       15.9994           0
   39645 WT2  5861 TIP3 H1   HT     0.417000        1.0080           0
   39646 WT2  5861 TIP3 H2   HT     0.417000        1.0080           0
   39647 WT2  5862 TIP3 OH2  OT    -0.834000       15.9994           0
   39648 WT2  5862 TIP3 H1   HT     0.417000        1.0080           0
   39649 WT2  5862 TIP3 H2   HT     0.417000        1.0080           0
   39650 WT2  5863 TIP3 OH2  OT    -0.834000       15.9994           0
   39651 WT2  5863 TIP3 H1   HT     0.417000        1.0080           0
   39652 WT2  5863 TIP3 H2   HT     0.417000        1.0080           0
   39653 WT2  5864 TIP3 OH2  OT    -0.834000       15.9994           0
   39654 WT2  5864 TIP3 H1   HT     0.417000        1.0080           0
   39655 WT2  5864 TIP3 H2   HT     0.417000        1.0080           0
   39656 WT2  5865 TIP3 OH2  OT    -0.834000       15.9994           0
   39657 WT2  5865 TIP3 H1   HT     0.417000        1.0080           0
   39658 WT2  5865 TIP3 H2   HT     0.417000        1.0080           0
   39659 WT2  5866 TIP3 OH2  OT    -0.834000       15.9994           0
   39660 WT2  5866 TIP3 H1   HT     0.417000        1.0080           0
   39661 WT2  5866 TIP3 H2   HT     0.417000        1.0080           0
   39662 WT2  5867 TIP3 OH2  OT    -0.834000       15.9994           0
   39663 WT2  5867 TIP3 H1   HT     0.417000        1.0080           0
   39664 WT2  5867 TIP3 H2   HT     0.417000        1.0080           0
   39665 WT2  5868 TIP3 OH2  OT    -0.834000       15.9994           0
   39666 WT2  5868 TIP3 H1   HT     0.417000        1.0080           0
   39667 WT2  5868 TIP3 H2   HT     0.417000        1.0080           0
   39668 WT2  5870 TIP3 OH2  OT    -0.834000       15.9994           0
   39669 WT2  5870 TIP3 H1   HT     0.417000        1.0080           0
   39670 WT2  5870 TIP3 H2   HT     0.417000        1.0080           0
   39671 WT2  5872 TIP3 OH2  OT    -0.834000       15.9994           0
   39672 WT2  5872 TIP3 H1   HT     0.417000        1.0080           0
   39673 WT2  5872 TIP3 H2   HT     0.417000        1.0080           0
   39674 WT2  5873 TIP3 OH2  OT    -0.834000       15.9994           0
   39675 WT2  5873 TIP3 H1   HT     0.417000        1.0080           0
   39676 WT2  5873 TIP3 H2   HT     0.417000        1.0080           0
   39677 WT2  5874 TIP3 OH2  OT    -0.834000       15.9994           0
   39678 WT2  5874 TIP3 H1   HT     0.417000        1.0080           0
   39679 WT2  5874 TIP3 H2   HT     0.417000        1.0080           0
   39680 WT2  5875 TIP3 OH2  OT    -0.834000       15.9994           0
   39681 WT2  5875 TIP3 H1   HT     0.417000        1.0080           0
   39682 WT2  5875 TIP3 H2   HT     0.417000        1.0080           0
   39683 WT2  5876 TIP3 OH2  OT    -0.834000       15.9994           0
   39684 WT2  5876 TIP3 H1   HT     0.417000        1.0080           0
   39685 WT2  5876 TIP3 H2   HT     0.417000        1.0080           0
   39686 WT2  5877 TIP3 OH2  OT    -0.834000       15.9994           0
   39687 WT2  5877 TIP3 H1   HT     0.417000        1.0080           0
   39688 WT2  5877 TIP3 H2   HT     0.417000        1.0080           0
   39689 WT2  5878 TIP3 OH2  OT    -0.834000       15.9994           0
   39690 WT2  5878 TIP3 H1   HT     0.417000        1.0080           0
   39691 WT2  5878 TIP3 H2   HT     0.417000        1.0080           0
   39692 WT2  5879 TIP3 OH2  OT    -0.834000       15.9994           0
   39693 WT2  5879 TIP3 H1   HT     0.417000        1.0080           0
   39694 WT2  5879 TIP3 H2   HT     0.417000        1.0080           0
   39695 WT2  5880 TIP3 OH2  OT    -0.834000       15.9994           0
   39696 WT2  5880 TIP3 H1   HT     0.417000        1.0080           0
   39697 WT2  5880 TIP3 H2   HT     0.417000        1.0080           0
   39698 WT2  5883 TIP3 OH2  OT    -0.834000       15.9994           0
   39699 WT2  5883 TIP3 H1   HT     0.417000        1.0080           0
   39700 WT2  5883 TIP3 H2   HT     0.417000        1.0080           0
   39701 WT2  5885 TIP3 OH2  OT    -0.834000       15.9994           0
   39702 WT2  5885 TIP3 H1   HT     0.417000        1.0080           0
   39703 WT2  5885 TIP3 H2   HT     0.417000        1.0080           0
   39704 WT2  5886 TIP3 OH2  OT    -0.834000       15.9994           0
   39705 WT2  5886 TIP3 H1   HT     0.417000        1.0080           0
   39706 WT2  5886 TIP3 H2   HT     0.417000        1.0080           0
   39707 WT2  5887 TIP3 OH2  OT    -0.834000       15.9994           0
   39708 WT2  5887 TIP3 H1   HT     0.417000        1.0080           0
   39709 WT2  5887 TIP3 H2   HT     0.417000        1.0080           0
   39710 WT2  5888 TIP3 OH2  OT    -0.834000       15.9994           0
   39711 WT2  5888 TIP3 H1   HT     0.417000        1.0080           0
   39712 WT2  5888 TIP3 H2   HT     0.417000        1.0080           0
   39713 WT2  5889 TIP3 OH2  OT    -0.834000       15.9994           0
   39714 WT2  5889 TIP3 H1   HT     0.417000        1.0080           0
   39715 WT2  5889 TIP3 H2   HT     0.417000        1.0080           0
   39716 WT2  5890 TIP3 OH2  OT    -0.834000       15.9994           0
   39717 WT2  5890 TIP3 H1   HT     0.417000        1.0080           0
   39718 WT2  5890 TIP3 H2   HT     0.417000        1.0080           0
   39719 WT2  5891 TIP3 OH2  OT    -0.834000       15.9994           0
   39720 WT2  5891 TIP3 H1   HT     0.417000        1.0080           0
   39721 WT2  5891 TIP3 H2   HT     0.417000        1.0080           0
   39722 WT2  5892 TIP3 OH2  OT    -0.834000       15.9994           0
   39723 WT2  5892 TIP3 H1   HT     0.417000        1.0080           0
   39724 WT2  5892 TIP3 H2   HT     0.417000        1.0080           0
   39725 WT2  5893 TIP3 OH2  OT    -0.834000       15.9994           0
   39726 WT2  5893 TIP3 H1   HT     0.417000        1.0080           0
   39727 WT2  5893 TIP3 H2   HT     0.417000        1.0080           0
   39728 WT2  5896 TIP3 OH2  OT    -0.834000       15.9994           0
   39729 WT2  5896 TIP3 H1   HT     0.417000        1.0080           0
   39730 WT2  5896 TIP3 H2   HT     0.417000        1.0080           0
   39731 WT2  5897 TIP3 OH2  OT    -0.834000       15.9994           0
   39732 WT2  5897 TIP3 H1   HT     0.417000        1.0080           0
   39733 WT2  5897 TIP3 H2   HT     0.417000        1.0080           0
   39734 WT2  5899 TIP3 OH2  OT    -0.834000       15.9994           0
   39735 WT2  5899 TIP3 H1   HT     0.417000        1.0080           0
   39736 WT2  5899 TIP3 H2   HT     0.417000        1.0080           0
   39737 WT2  5900 TIP3 OH2  OT    -0.834000       15.9994           0
   39738 WT2  5900 TIP3 H1   HT     0.417000        1.0080           0
   39739 WT2  5900 TIP3 H2   HT     0.417000        1.0080           0
   39740 WT2  5901 TIP3 OH2  OT    -0.834000       15.9994           0
   39741 WT2  5901 TIP3 H1   HT     0.417000        1.0080           0
   39742 WT2  5901 TIP3 H2   HT     0.417000        1.0080           0
   39743 WT2  5903 TIP3 OH2  OT    -0.834000       15.9994           0
   39744 WT2  5903 TIP3 H1   HT     0.417000        1.0080           0
   39745 WT2  5903 TIP3 H2   HT     0.417000        1.0080           0
   39746 WT2  5904 TIP3 OH2  OT    -0.834000       15.9994           0
   39747 WT2  5904 TIP3 H1   HT     0.417000        1.0080           0
   39748 WT2  5904 TIP3 H2   HT     0.417000        1.0080           0
   39749 WT2  5906 TIP3 OH2  OT    -0.834000       15.9994           0
   39750 WT2  5906 TIP3 H1   HT     0.417000        1.0080           0
   39751 WT2  5906 TIP3 H2   HT     0.417000        1.0080           0
   39752 WT2  5907 TIP3 OH2  OT    -0.834000       15.9994           0
   39753 WT2  5907 TIP3 H1   HT     0.417000        1.0080           0
   39754 WT2  5907 TIP3 H2   HT     0.417000        1.0080           0
   39755 WT2  5909 TIP3 OH2  OT    -0.834000       15.9994           0
   39756 WT2  5909 TIP3 H1   HT     0.417000        1.0080           0
   39757 WT2  5909 TIP3 H2   HT     0.417000        1.0080           0
   39758 WT2  5910 TIP3 OH2  OT    -0.834000       15.9994           0
   39759 WT2  5910 TIP3 H1   HT     0.417000        1.0080           0
   39760 WT2  5910 TIP3 H2   HT     0.417000        1.0080           0
   39761 WT2  5911 TIP3 OH2  OT    -0.834000       15.9994           0
   39762 WT2  5911 TIP3 H1   HT     0.417000        1.0080           0
   39763 WT2  5911 TIP3 H2   HT     0.417000        1.0080           0
   39764 WT2  5913 TIP3 OH2  OT    -0.834000       15.9994           0
   39765 WT2  5913 TIP3 H1   HT     0.417000        1.0080           0
   39766 WT2  5913 TIP3 H2   HT     0.417000        1.0080           0
   39767 WT2  5917 TIP3 OH2  OT    -0.834000       15.9994           0
   39768 WT2  5917 TIP3 H1   HT     0.417000        1.0080           0
   39769 WT2  5917 TIP3 H2   HT     0.417000        1.0080           0
   39770 WT2  5918 TIP3 OH2  OT    -0.834000       15.9994           0
   39771 WT2  5918 TIP3 H1   HT     0.417000        1.0080           0
   39772 WT2  5918 TIP3 H2   HT     0.417000        1.0080           0
   39773 WT2  5919 TIP3 OH2  OT    -0.834000       15.9994           0
   39774 WT2  5919 TIP3 H1   HT     0.417000        1.0080           0
   39775 WT2  5919 TIP3 H2   HT     0.417000        1.0080           0
   39776 WT2  5920 TIP3 OH2  OT    -0.834000       15.9994           0
   39777 WT2  5920 TIP3 H1   HT     0.417000        1.0080           0
   39778 WT2  5920 TIP3 H2   HT     0.417000        1.0080           0
   39779 WT2  5921 TIP3 OH2  OT    -0.834000       15.9994           0
   39780 WT2  5921 TIP3 H1   HT     0.417000        1.0080           0
   39781 WT2  5921 TIP3 H2   HT     0.417000        1.0080           0
   39782 WT2  5922 TIP3 OH2  OT    -0.834000       15.9994           0
   39783 WT2  5922 TIP3 H1   HT     0.417000        1.0080           0
   39784 WT2  5922 TIP3 H2   HT     0.417000        1.0080           0
   39785 WT2  5923 TIP3 OH2  OT    -0.834000       15.9994           0
   39786 WT2  5923 TIP3 H1   HT     0.417000        1.0080           0
   39787 WT2  5923 TIP3 H2   HT     0.417000        1.0080           0
   39788 WT2  5924 TIP3 OH2  OT    -0.834000       15.9994           0
   39789 WT2  5924 TIP3 H1   HT     0.417000        1.0080           0
   39790 WT2  5924 TIP3 H2   HT     0.417000        1.0080           0
   39791 WT2  5925 TIP3 OH2  OT    -0.834000       15.9994           0
   39792 WT2  5925 TIP3 H1   HT     0.417000        1.0080           0
   39793 WT2  5925 TIP3 H2   HT     0.417000        1.0080           0
   39794 WT2  5926 TIP3 OH2  OT    -0.834000       15.9994           0
   39795 WT2  5926 TIP3 H1   HT     0.417000        1.0080           0
   39796 WT2  5926 TIP3 H2   HT     0.417000        1.0080           0
   39797 WT2  5929 TIP3 OH2  OT    -0.834000       15.9994           0
   39798 WT2  5929 TIP3 H1   HT     0.417000        1.0080           0
   39799 WT2  5929 TIP3 H2   HT     0.417000        1.0080           0
   39800 WT2  5930 TIP3 OH2  OT    -0.834000       15.9994           0
   39801 WT2  5930 TIP3 H1   HT     0.417000        1.0080           0
   39802 WT2  5930 TIP3 H2   HT     0.417000        1.0080           0
   39803 WT2  5934 TIP3 OH2  OT    -0.834000       15.9994           0
   39804 WT2  5934 TIP3 H1   HT     0.417000        1.0080           0
   39805 WT2  5934 TIP3 H2   HT     0.417000        1.0080           0
   39806 WT2  5935 TIP3 OH2  OT    -0.834000       15.9994           0
   39807 WT2  5935 TIP3 H1   HT     0.417000        1.0080           0
   39808 WT2  5935 TIP3 H2   HT     0.417000        1.0080           0
   39809 WT2  5936 TIP3 OH2  OT    -0.834000       15.9994           0
   39810 WT2  5936 TIP3 H1   HT     0.417000        1.0080           0
   39811 WT2  5936 TIP3 H2   HT     0.417000        1.0080           0
   39812 WT2  5938 TIP3 OH2  OT    -0.834000       15.9994           0
   39813 WT2  5938 TIP3 H1   HT     0.417000        1.0080           0
   39814 WT2  5938 TIP3 H2   HT     0.417000        1.0080           0
   39815 WT2  5942 TIP3 OH2  OT    -0.834000       15.9994           0
   39816 WT2  5942 TIP3 H1   HT     0.417000        1.0080           0
   39817 WT2  5942 TIP3 H2   HT     0.417000        1.0080           0
   39818 WT2  5943 TIP3 OH2  OT    -0.834000       15.9994           0
   39819 WT2  5943 TIP3 H1   HT     0.417000        1.0080           0
   39820 WT2  5943 TIP3 H2   HT     0.417000        1.0080           0
   39821 WT2  5945 TIP3 OH2  OT    -0.834000       15.9994           0
   39822 WT2  5945 TIP3 H1   HT     0.417000        1.0080           0
   39823 WT2  5945 TIP3 H2   HT     0.417000        1.0080           0
   39824 WT2  5946 TIP3 OH2  OT    -0.834000       15.9994           0
   39825 WT2  5946 TIP3 H1   HT     0.417000        1.0080           0
   39826 WT2  5946 TIP3 H2   HT     0.417000        1.0080           0
   39827 WT2  5947 TIP3 OH2  OT    -0.834000       15.9994           0
   39828 WT2  5947 TIP3 H1   HT     0.417000        1.0080           0
   39829 WT2  5947 TIP3 H2   HT     0.417000        1.0080           0
   39830 WT2  5948 TIP3 OH2  OT    -0.834000       15.9994           0
   39831 WT2  5948 TIP3 H1   HT     0.417000        1.0080           0
   39832 WT2  5948 TIP3 H2   HT     0.417000        1.0080           0
   39833 WT2  5949 TIP3 OH2  OT    -0.834000       15.9994           0
   39834 WT2  5949 TIP3 H1   HT     0.417000        1.0080           0
   39835 WT2  5949 TIP3 H2   HT     0.417000        1.0080           0
   39836 WT2  5950 TIP3 OH2  OT    -0.834000       15.9994           0
   39837 WT2  5950 TIP3 H1   HT     0.417000        1.0080           0
   39838 WT2  5950 TIP3 H2   HT     0.417000        1.0080           0
   39839 WT2  5951 TIP3 OH2  OT    -0.834000       15.9994           0
   39840 WT2  5951 TIP3 H1   HT     0.417000        1.0080           0
   39841 WT2  5951 TIP3 H2   HT     0.417000        1.0080           0
   39842 WT2  5954 TIP3 OH2  OT    -0.834000       15.9994           0
   39843 WT2  5954 TIP3 H1   HT     0.417000        1.0080           0
   39844 WT2  5954 TIP3 H2   HT     0.417000        1.0080           0
   39845 WT2  5956 TIP3 OH2  OT    -0.834000       15.9994           0
   39846 WT2  5956 TIP3 H1   HT     0.417000        1.0080           0
   39847 WT2  5956 TIP3 H2   HT     0.417000        1.0080           0
   39848 WT2  5957 TIP3 OH2  OT    -0.834000       15.9994           0
   39849 WT2  5957 TIP3 H1   HT     0.417000        1.0080           0
   39850 WT2  5957 TIP3 H2   HT     0.417000        1.0080           0
   39851 WT2  5958 TIP3 OH2  OT    -0.834000       15.9994           0
   39852 WT2  5958 TIP3 H1   HT     0.417000        1.0080           0
   39853 WT2  5958 TIP3 H2   HT     0.417000        1.0080           0
   39854 WT2  5959 TIP3 OH2  OT    -0.834000       15.9994           0
   39855 WT2  5959 TIP3 H1   HT     0.417000        1.0080           0
   39856 WT2  5959 TIP3 H2   HT     0.417000        1.0080           0
   39857 WT2  5961 TIP3 OH2  OT    -0.834000       15.9994           0
   39858 WT2  5961 TIP3 H1   HT     0.417000        1.0080           0
   39859 WT2  5961 TIP3 H2   HT     0.417000        1.0080           0
   39860 WT2  5962 TIP3 OH2  OT    -0.834000       15.9994           0
   39861 WT2  5962 TIP3 H1   HT     0.417000        1.0080           0
   39862 WT2  5962 TIP3 H2   HT     0.417000        1.0080           0
   39863 WT2  5964 TIP3 OH2  OT    -0.834000       15.9994           0
   39864 WT2  5964 TIP3 H1   HT     0.417000        1.0080           0
   39865 WT2  5964 TIP3 H2   HT     0.417000        1.0080           0
   39866 WT2  5965 TIP3 OH2  OT    -0.834000       15.9994           0
   39867 WT2  5965 TIP3 H1   HT     0.417000        1.0080           0
   39868 WT2  5965 TIP3 H2   HT     0.417000        1.0080           0
   39869 WT2  5966 TIP3 OH2  OT    -0.834000       15.9994           0
   39870 WT2  5966 TIP3 H1   HT     0.417000        1.0080           0
   39871 WT2  5966 TIP3 H2   HT     0.417000        1.0080           0
   39872 WT2  5967 TIP3 OH2  OT    -0.834000       15.9994           0
   39873 WT2  5967 TIP3 H1   HT     0.417000        1.0080           0
   39874 WT2  5967 TIP3 H2   HT     0.417000        1.0080           0
   39875 WT2  5969 TIP3 OH2  OT    -0.834000       15.9994           0
   39876 WT2  5969 TIP3 H1   HT     0.417000        1.0080           0
   39877 WT2  5969 TIP3 H2   HT     0.417000        1.0080           0
   39878 WT2  5970 TIP3 OH2  OT    -0.834000       15.9994           0
   39879 WT2  5970 TIP3 H1   HT     0.417000        1.0080           0
   39880 WT2  5970 TIP3 H2   HT     0.417000        1.0080           0
   39881 WT2  5972 TIP3 OH2  OT    -0.834000       15.9994           0
   39882 WT2  5972 TIP3 H1   HT     0.417000        1.0080           0
   39883 WT2  5972 TIP3 H2   HT     0.417000        1.0080           0
   39884 WT2  5974 TIP3 OH2  OT    -0.834000       15.9994           0
   39885 WT2  5974 TIP3 H1   HT     0.417000        1.0080           0
   39886 WT2  5974 TIP3 H2   HT     0.417000        1.0080           0
   39887 WT2  5975 TIP3 OH2  OT    -0.834000       15.9994           0
   39888 WT2  5975 TIP3 H1   HT     0.417000        1.0080           0
   39889 WT2  5975 TIP3 H2   HT     0.417000        1.0080           0
   39890 WT2  5980 TIP3 OH2  OT    -0.834000       15.9994           0
   39891 WT2  5980 TIP3 H1   HT     0.417000        1.0080           0
   39892 WT2  5980 TIP3 H2   HT     0.417000        1.0080           0
   39893 WT2  5981 TIP3 OH2  OT    -0.834000       15.9994           0
   39894 WT2  5981 TIP3 H1   HT     0.417000        1.0080           0
   39895 WT2  5981 TIP3 H2   HT     0.417000        1.0080           0
   39896 WT2  5982 TIP3 OH2  OT    -0.834000       15.9994           0
   39897 WT2  5982 TIP3 H1   HT     0.417000        1.0080           0
   39898 WT2  5982 TIP3 H2   HT     0.417000        1.0080           0
   39899 WT2  5983 TIP3 OH2  OT    -0.834000       15.9994           0
   39900 WT2  5983 TIP3 H1   HT     0.417000        1.0080           0
   39901 WT2  5983 TIP3 H2   HT     0.417000        1.0080           0
   39902 WT2  5986 TIP3 OH2  OT    -0.834000       15.9994           0
   39903 WT2  5986 TIP3 H1   HT     0.417000        1.0080           0
   39904 WT2  5986 TIP3 H2   HT     0.417000        1.0080           0
   39905 WT2  5987 TIP3 OH2  OT    -0.834000       15.9994           0
   39906 WT2  5987 TIP3 H1   HT     0.417000        1.0080           0
   39907 WT2  5987 TIP3 H2   HT     0.417000        1.0080           0
   39908 WT2  5990 TIP3 OH2  OT    -0.834000       15.9994           0
   39909 WT2  5990 TIP3 H1   HT     0.417000        1.0080           0
   39910 WT2  5990 TIP3 H2   HT     0.417000        1.0080           0
   39911 WT2  5991 TIP3 OH2  OT    -0.834000       15.9994           0
   39912 WT2  5991 TIP3 H1   HT     0.417000        1.0080           0
   39913 WT2  5991 TIP3 H2   HT     0.417000        1.0080           0
   39914 WT2  5993 TIP3 OH2  OT    -0.834000       15.9994           0
   39915 WT2  5993 TIP3 H1   HT     0.417000        1.0080           0
   39916 WT2  5993 TIP3 H2   HT     0.417000        1.0080           0
   39917 WT2  5994 TIP3 OH2  OT    -0.834000       15.9994           0
   39918 WT2  5994 TIP3 H1   HT     0.417000        1.0080           0
   39919 WT2  5994 TIP3 H2   HT     0.417000        1.0080           0
   39920 WT2  5995 TIP3 OH2  OT    -0.834000       15.9994           0
   39921 WT2  5995 TIP3 H1   HT     0.417000        1.0080           0
   39922 WT2  5995 TIP3 H2   HT     0.417000        1.0080           0
   39923 WT2  5997 TIP3 OH2  OT    -0.834000       15.9994           0
   39924 WT2  5997 TIP3 H1   HT     0.417000        1.0080           0
   39925 WT2  5997 TIP3 H2   HT     0.417000        1.0080           0
   39926 WT2  5998 TIP3 OH2  OT    -0.834000       15.9994           0
   39927 WT2  5998 TIP3 H1   HT     0.417000        1.0080           0
   39928 WT2  5998 TIP3 H2   HT     0.417000        1.0080           0
   39929 WT2  5999 TIP3 OH2  OT    -0.834000       15.9994           0
   39930 WT2  5999 TIP3 H1   HT     0.417000        1.0080           0
   39931 WT2  5999 TIP3 H2   HT     0.417000        1.0080           0
   39932 WT2  6001 TIP3 OH2  OT    -0.834000       15.9994           0
   39933 WT2  6001 TIP3 H1   HT     0.417000        1.0080           0
   39934 WT2  6001 TIP3 H2   HT     0.417000        1.0080           0
   39935 WT2  6002 TIP3 OH2  OT    -0.834000       15.9994           0
   39936 WT2  6002 TIP3 H1   HT     0.417000        1.0080           0
   39937 WT2  6002 TIP3 H2   HT     0.417000        1.0080           0
   39938 WT2  6004 TIP3 OH2  OT    -0.834000       15.9994           0
   39939 WT2  6004 TIP3 H1   HT     0.417000        1.0080           0
   39940 WT2  6004 TIP3 H2   HT     0.417000        1.0080           0
   39941 WT2  6006 TIP3 OH2  OT    -0.834000       15.9994           0
   39942 WT2  6006 TIP3 H1   HT     0.417000        1.0080           0
   39943 WT2  6006 TIP3 H2   HT     0.417000        1.0080           0
   39944 WT2  6007 TIP3 OH2  OT    -0.834000       15.9994           0
   39945 WT2  6007 TIP3 H1   HT     0.417000        1.0080           0
   39946 WT2  6007 TIP3 H2   HT     0.417000        1.0080           0
   39947 WT2  6009 TIP3 OH2  OT    -0.834000       15.9994           0
   39948 WT2  6009 TIP3 H1   HT     0.417000        1.0080           0
   39949 WT2  6009 TIP3 H2   HT     0.417000        1.0080           0
   39950 WT2  6010 TIP3 OH2  OT    -0.834000       15.9994           0
   39951 WT2  6010 TIP3 H1   HT     0.417000        1.0080           0
   39952 WT2  6010 TIP3 H2   HT     0.417000        1.0080           0
   39953 WT2  6011 TIP3 OH2  OT    -0.834000       15.9994           0
   39954 WT2  6011 TIP3 H1   HT     0.417000        1.0080           0
   39955 WT2  6011 TIP3 H2   HT     0.417000        1.0080           0
   39956 WT2  6013 TIP3 OH2  OT    -0.834000       15.9994           0
   39957 WT2  6013 TIP3 H1   HT     0.417000        1.0080           0
   39958 WT2  6013 TIP3 H2   HT     0.417000        1.0080           0
   39959 WT2  6015 TIP3 OH2  OT    -0.834000       15.9994           0
   39960 WT2  6015 TIP3 H1   HT     0.417000        1.0080           0
   39961 WT2  6015 TIP3 H2   HT     0.417000        1.0080           0
   39962 WT2  6017 TIP3 OH2  OT    -0.834000       15.9994           0
   39963 WT2  6017 TIP3 H1   HT     0.417000        1.0080           0
   39964 WT2  6017 TIP3 H2   HT     0.417000        1.0080           0
   39965 WT2  6018 TIP3 OH2  OT    -0.834000       15.9994           0
   39966 WT2  6018 TIP3 H1   HT     0.417000        1.0080           0
   39967 WT2  6018 TIP3 H2   HT     0.417000        1.0080           0
   39968 WT2  6020 TIP3 OH2  OT    -0.834000       15.9994           0
   39969 WT2  6020 TIP3 H1   HT     0.417000        1.0080           0
   39970 WT2  6020 TIP3 H2   HT     0.417000        1.0080           0
   39971 WT2  6021 TIP3 OH2  OT    -0.834000       15.9994           0
   39972 WT2  6021 TIP3 H1   HT     0.417000        1.0080           0
   39973 WT2  6021 TIP3 H2   HT     0.417000        1.0080           0
   39974 WT2  6022 TIP3 OH2  OT    -0.834000       15.9994           0
   39975 WT2  6022 TIP3 H1   HT     0.417000        1.0080           0
   39976 WT2  6022 TIP3 H2   HT     0.417000        1.0080           0
   39977 WT2  6025 TIP3 OH2  OT    -0.834000       15.9994           0
   39978 WT2  6025 TIP3 H1   HT     0.417000        1.0080           0
   39979 WT2  6025 TIP3 H2   HT     0.417000        1.0080           0
   39980 WT2  6026 TIP3 OH2  OT    -0.834000       15.9994           0
   39981 WT2  6026 TIP3 H1   HT     0.417000        1.0080           0
   39982 WT2  6026 TIP3 H2   HT     0.417000        1.0080           0
   39983 WT2  6027 TIP3 OH2  OT    -0.834000       15.9994           0
   39984 WT2  6027 TIP3 H1   HT     0.417000        1.0080           0
   39985 WT2  6027 TIP3 H2   HT     0.417000        1.0080           0
   39986 WT2  6028 TIP3 OH2  OT    -0.834000       15.9994           0
   39987 WT2  6028 TIP3 H1   HT     0.417000        1.0080           0
   39988 WT2  6028 TIP3 H2   HT     0.417000        1.0080           0
   39989 WT2  6029 TIP3 OH2  OT    -0.834000       15.9994           0
   39990 WT2  6029 TIP3 H1   HT     0.417000        1.0080           0
   39991 WT2  6029 TIP3 H2   HT     0.417000        1.0080           0
   39992 WT2  6030 TIP3 OH2  OT    -0.834000       15.9994           0
   39993 WT2  6030 TIP3 H1   HT     0.417000        1.0080           0
   39994 WT2  6030 TIP3 H2   HT     0.417000        1.0080           0
   39995 WT2  6032 TIP3 OH2  OT    -0.834000       15.9994           0
   39996 WT2  6032 TIP3 H1   HT     0.417000        1.0080           0
   39997 WT2  6032 TIP3 H2   HT     0.417000        1.0080           0
   39998 WT2  6034 TIP3 OH2  OT    -0.834000       15.9994           0
   39999 WT2  6034 TIP3 H1   HT     0.417000        1.0080           0
   40000 WT2  6034 TIP3 H2   HT     0.417000        1.0080           0
   40001 WT2  6035 TIP3 OH2  OT    -0.834000       15.9994           0
   40002 WT2  6035 TIP3 H1   HT     0.417000        1.0080           0
   40003 WT2  6035 TIP3 H2   HT     0.417000        1.0080           0
   40004 WT2  6037 TIP3 OH2  OT    -0.834000       15.9994           0
   40005 WT2  6037 TIP3 H1   HT     0.417000        1.0080           0
   40006 WT2  6037 TIP3 H2   HT     0.417000        1.0080           0
   40007 WT2  6038 TIP3 OH2  OT    -0.834000       15.9994           0
   40008 WT2  6038 TIP3 H1   HT     0.417000        1.0080           0
   40009 WT2  6038 TIP3 H2   HT     0.417000        1.0080           0
   40010 WT2  6040 TIP3 OH2  OT    -0.834000       15.9994           0
   40011 WT2  6040 TIP3 H1   HT     0.417000        1.0080           0
   40012 WT2  6040 TIP3 H2   HT     0.417000        1.0080           0
   40013 WT2  6041 TIP3 OH2  OT    -0.834000       15.9994           0
   40014 WT2  6041 TIP3 H1   HT     0.417000        1.0080           0
   40015 WT2  6041 TIP3 H2   HT     0.417000        1.0080           0
   40016 WT2  6042 TIP3 OH2  OT    -0.834000       15.9994           0
   40017 WT2  6042 TIP3 H1   HT     0.417000        1.0080           0
   40018 WT2  6042 TIP3 H2   HT     0.417000        1.0080           0
   40019 WT2  6043 TIP3 OH2  OT    -0.834000       15.9994           0
   40020 WT2  6043 TIP3 H1   HT     0.417000        1.0080           0
   40021 WT2  6043 TIP3 H2   HT     0.417000        1.0080           0
   40022 WT2  6044 TIP3 OH2  OT    -0.834000       15.9994           0
   40023 WT2  6044 TIP3 H1   HT     0.417000        1.0080           0
   40024 WT2  6044 TIP3 H2   HT     0.417000        1.0080           0
   40025 WT2  6045 TIP3 OH2  OT    -0.834000       15.9994           0
   40026 WT2  6045 TIP3 H1   HT     0.417000        1.0080           0
   40027 WT2  6045 TIP3 H2   HT     0.417000        1.0080           0
   40028 WT2  6047 TIP3 OH2  OT    -0.834000       15.9994           0
   40029 WT2  6047 TIP3 H1   HT     0.417000        1.0080           0
   40030 WT2  6047 TIP3 H2   HT     0.417000        1.0080           0
   40031 WT2  6049 TIP3 OH2  OT    -0.834000       15.9994           0
   40032 WT2  6049 TIP3 H1   HT     0.417000        1.0080           0
   40033 WT2  6049 TIP3 H2   HT     0.417000        1.0080           0
   40034 WT2  6051 TIP3 OH2  OT    -0.834000       15.9994           0
   40035 WT2  6051 TIP3 H1   HT     0.417000        1.0080           0
   40036 WT2  6051 TIP3 H2   HT     0.417000        1.0080           0
   40037 WT2  6052 TIP3 OH2  OT    -0.834000       15.9994           0
   40038 WT2  6052 TIP3 H1   HT     0.417000        1.0080           0
   40039 WT2  6052 TIP3 H2   HT     0.417000        1.0080           0
   40040 WT2  6053 TIP3 OH2  OT    -0.834000       15.9994           0
   40041 WT2  6053 TIP3 H1   HT     0.417000        1.0080           0
   40042 WT2  6053 TIP3 H2   HT     0.417000        1.0080           0
   40043 WT2  6054 TIP3 OH2  OT    -0.834000       15.9994           0
   40044 WT2  6054 TIP3 H1   HT     0.417000        1.0080           0
   40045 WT2  6054 TIP3 H2   HT     0.417000        1.0080           0
   40046 WT2  6055 TIP3 OH2  OT    -0.834000       15.9994           0
   40047 WT2  6055 TIP3 H1   HT     0.417000        1.0080           0
   40048 WT2  6055 TIP3 H2   HT     0.417000        1.0080           0
   40049 WT2  6056 TIP3 OH2  OT    -0.834000       15.9994           0
   40050 WT2  6056 TIP3 H1   HT     0.417000        1.0080           0
   40051 WT2  6056 TIP3 H2   HT     0.417000        1.0080           0
   40052 WT2  6058 TIP3 OH2  OT    -0.834000       15.9994           0
   40053 WT2  6058 TIP3 H1   HT     0.417000        1.0080           0
   40054 WT2  6058 TIP3 H2   HT     0.417000        1.0080           0
   40055 WT2  6059 TIP3 OH2  OT    -0.834000       15.9994           0
   40056 WT2  6059 TIP3 H1   HT     0.417000        1.0080           0
   40057 WT2  6059 TIP3 H2   HT     0.417000        1.0080           0
   40058 WT2  6061 TIP3 OH2  OT    -0.834000       15.9994           0
   40059 WT2  6061 TIP3 H1   HT     0.417000        1.0080           0
   40060 WT2  6061 TIP3 H2   HT     0.417000        1.0080           0
   40061 WT2  6062 TIP3 OH2  OT    -0.834000       15.9994           0
   40062 WT2  6062 TIP3 H1   HT     0.417000        1.0080           0
   40063 WT2  6062 TIP3 H2   HT     0.417000        1.0080           0
   40064 WT2  6064 TIP3 OH2  OT    -0.834000       15.9994           0
   40065 WT2  6064 TIP3 H1   HT     0.417000        1.0080           0
   40066 WT2  6064 TIP3 H2   HT     0.417000        1.0080           0
   40067 WT2  6065 TIP3 OH2  OT    -0.834000       15.9994           0
   40068 WT2  6065 TIP3 H1   HT     0.417000        1.0080           0
   40069 WT2  6065 TIP3 H2   HT     0.417000        1.0080           0
   40070 WT2  6067 TIP3 OH2  OT    -0.834000       15.9994           0
   40071 WT2  6067 TIP3 H1   HT     0.417000        1.0080           0
   40072 WT2  6067 TIP3 H2   HT     0.417000        1.0080           0
   40073 WT2  6069 TIP3 OH2  OT    -0.834000       15.9994           0
   40074 WT2  6069 TIP3 H1   HT     0.417000        1.0080           0
   40075 WT2  6069 TIP3 H2   HT     0.417000        1.0080           0
   40076 WT2  6070 TIP3 OH2  OT    -0.834000       15.9994           0
   40077 WT2  6070 TIP3 H1   HT     0.417000        1.0080           0
   40078 WT2  6070 TIP3 H2   HT     0.417000        1.0080           0
   40079 WT2  6071 TIP3 OH2  OT    -0.834000       15.9994           0
   40080 WT2  6071 TIP3 H1   HT     0.417000        1.0080           0
   40081 WT2  6071 TIP3 H2   HT     0.417000        1.0080           0
   40082 WT2  6072 TIP3 OH2  OT    -0.834000       15.9994           0
   40083 WT2  6072 TIP3 H1   HT     0.417000        1.0080           0
   40084 WT2  6072 TIP3 H2   HT     0.417000        1.0080           0
   40085 WT2  6073 TIP3 OH2  OT    -0.834000       15.9994           0
   40086 WT2  6073 TIP3 H1   HT     0.417000        1.0080           0
   40087 WT2  6073 TIP3 H2   HT     0.417000        1.0080           0
   40088 WT2  6074 TIP3 OH2  OT    -0.834000       15.9994           0
   40089 WT2  6074 TIP3 H1   HT     0.417000        1.0080           0
   40090 WT2  6074 TIP3 H2   HT     0.417000        1.0080           0
   40091 WT2  6075 TIP3 OH2  OT    -0.834000       15.9994           0
   40092 WT2  6075 TIP3 H1   HT     0.417000        1.0080           0
   40093 WT2  6075 TIP3 H2   HT     0.417000        1.0080           0
   40094 WT2  6076 TIP3 OH2  OT    -0.834000       15.9994           0
   40095 WT2  6076 TIP3 H1   HT     0.417000        1.0080           0
   40096 WT2  6076 TIP3 H2   HT     0.417000        1.0080           0
   40097 WT2  6078 TIP3 OH2  OT    -0.834000       15.9994           0
   40098 WT2  6078 TIP3 H1   HT     0.417000        1.0080           0
   40099 WT2  6078 TIP3 H2   HT     0.417000        1.0080           0
   40100 WT2  6079 TIP3 OH2  OT    -0.834000       15.9994           0
   40101 WT2  6079 TIP3 H1   HT     0.417000        1.0080           0
   40102 WT2  6079 TIP3 H2   HT     0.417000        1.0080           0
   40103 WT2  6081 TIP3 OH2  OT    -0.834000       15.9994           0
   40104 WT2  6081 TIP3 H1   HT     0.417000        1.0080           0
   40105 WT2  6081 TIP3 H2   HT     0.417000        1.0080           0
   40106 WT2  6082 TIP3 OH2  OT    -0.834000       15.9994           0
   40107 WT2  6082 TIP3 H1   HT     0.417000        1.0080           0
   40108 WT2  6082 TIP3 H2   HT     0.417000        1.0080           0
   40109 WT2  6083 TIP3 OH2  OT    -0.834000       15.9994           0
   40110 WT2  6083 TIP3 H1   HT     0.417000        1.0080           0
   40111 WT2  6083 TIP3 H2   HT     0.417000        1.0080           0
   40112 WT2  6084 TIP3 OH2  OT    -0.834000       15.9994           0
   40113 WT2  6084 TIP3 H1   HT     0.417000        1.0080           0
   40114 WT2  6084 TIP3 H2   HT     0.417000        1.0080           0
   40115 WT2  6085 TIP3 OH2  OT    -0.834000       15.9994           0
   40116 WT2  6085 TIP3 H1   HT     0.417000        1.0080           0
   40117 WT2  6085 TIP3 H2   HT     0.417000        1.0080           0
   40118 WT2  6086 TIP3 OH2  OT    -0.834000       15.9994           0
   40119 WT2  6086 TIP3 H1   HT     0.417000        1.0080           0
   40120 WT2  6086 TIP3 H2   HT     0.417000        1.0080           0
   40121 WT2  6087 TIP3 OH2  OT    -0.834000       15.9994           0
   40122 WT2  6087 TIP3 H1   HT     0.417000        1.0080           0
   40123 WT2  6087 TIP3 H2   HT     0.417000        1.0080           0
   40124 WT2  6089 TIP3 OH2  OT    -0.834000       15.9994           0
   40125 WT2  6089 TIP3 H1   HT     0.417000        1.0080           0
   40126 WT2  6089 TIP3 H2   HT     0.417000        1.0080           0
   40127 WT2  6090 TIP3 OH2  OT    -0.834000       15.9994           0
   40128 WT2  6090 TIP3 H1   HT     0.417000        1.0080           0
   40129 WT2  6090 TIP3 H2   HT     0.417000        1.0080           0
   40130 WT2  6091 TIP3 OH2  OT    -0.834000       15.9994           0
   40131 WT2  6091 TIP3 H1   HT     0.417000        1.0080           0
   40132 WT2  6091 TIP3 H2   HT     0.417000        1.0080           0
   40133 WT2  6092 TIP3 OH2  OT    -0.834000       15.9994           0
   40134 WT2  6092 TIP3 H1   HT     0.417000        1.0080           0
   40135 WT2  6092 TIP3 H2   HT     0.417000        1.0080           0
   40136 WT2  6093 TIP3 OH2  OT    -0.834000       15.9994           0
   40137 WT2  6093 TIP3 H1   HT     0.417000        1.0080           0
   40138 WT2  6093 TIP3 H2   HT     0.417000        1.0080           0
   40139 WT2  6096 TIP3 OH2  OT    -0.834000       15.9994           0
   40140 WT2  6096 TIP3 H1   HT     0.417000        1.0080           0
   40141 WT2  6096 TIP3 H2   HT     0.417000        1.0080           0
   40142 WT2  6097 TIP3 OH2  OT    -0.834000       15.9994           0
   40143 WT2  6097 TIP3 H1   HT     0.417000        1.0080           0
   40144 WT2  6097 TIP3 H2   HT     0.417000        1.0080           0
   40145 WT2  6099 TIP3 OH2  OT    -0.834000       15.9994           0
   40146 WT2  6099 TIP3 H1   HT     0.417000        1.0080           0
   40147 WT2  6099 TIP3 H2   HT     0.417000        1.0080           0
   40148 WT2  6100 TIP3 OH2  OT    -0.834000       15.9994           0
   40149 WT2  6100 TIP3 H1   HT     0.417000        1.0080           0
   40150 WT2  6100 TIP3 H2   HT     0.417000        1.0080           0
   40151 WT2  6101 TIP3 OH2  OT    -0.834000       15.9994           0
   40152 WT2  6101 TIP3 H1   HT     0.417000        1.0080           0
   40153 WT2  6101 TIP3 H2   HT     0.417000        1.0080           0
   40154 WT2  6102 TIP3 OH2  OT    -0.834000       15.9994           0
   40155 WT2  6102 TIP3 H1   HT     0.417000        1.0080           0
   40156 WT2  6102 TIP3 H2   HT     0.417000        1.0080           0
   40157 WT2  6103 TIP3 OH2  OT    -0.834000       15.9994           0
   40158 WT2  6103 TIP3 H1   HT     0.417000        1.0080           0
   40159 WT2  6103 TIP3 H2   HT     0.417000        1.0080           0
   40160 WT2  6105 TIP3 OH2  OT    -0.834000       15.9994           0
   40161 WT2  6105 TIP3 H1   HT     0.417000        1.0080           0
   40162 WT2  6105 TIP3 H2   HT     0.417000        1.0080           0
   40163 WT2  6106 TIP3 OH2  OT    -0.834000       15.9994           0
   40164 WT2  6106 TIP3 H1   HT     0.417000        1.0080           0
   40165 WT2  6106 TIP3 H2   HT     0.417000        1.0080           0
   40166 WT2  6108 TIP3 OH2  OT    -0.834000       15.9994           0
   40167 WT2  6108 TIP3 H1   HT     0.417000        1.0080           0
   40168 WT2  6108 TIP3 H2   HT     0.417000        1.0080           0
   40169 WT2  6109 TIP3 OH2  OT    -0.834000       15.9994           0
   40170 WT2  6109 TIP3 H1   HT     0.417000        1.0080           0
   40171 WT2  6109 TIP3 H2   HT     0.417000        1.0080           0
   40172 WT2  6110 TIP3 OH2  OT    -0.834000       15.9994           0
   40173 WT2  6110 TIP3 H1   HT     0.417000        1.0080           0
   40174 WT2  6110 TIP3 H2   HT     0.417000        1.0080           0
   40175 WT2  6112 TIP3 OH2  OT    -0.834000       15.9994           0
   40176 WT2  6112 TIP3 H1   HT     0.417000        1.0080           0
   40177 WT2  6112 TIP3 H2   HT     0.417000        1.0080           0
   40178 WT2  6113 TIP3 OH2  OT    -0.834000       15.9994           0
   40179 WT2  6113 TIP3 H1   HT     0.417000        1.0080           0
   40180 WT2  6113 TIP3 H2   HT     0.417000        1.0080           0
   40181 WT2  6114 TIP3 OH2  OT    -0.834000       15.9994           0
   40182 WT2  6114 TIP3 H1   HT     0.417000        1.0080           0
   40183 WT2  6114 TIP3 H2   HT     0.417000        1.0080           0
   40184 WT2  6115 TIP3 OH2  OT    -0.834000       15.9994           0
   40185 WT2  6115 TIP3 H1   HT     0.417000        1.0080           0
   40186 WT2  6115 TIP3 H2   HT     0.417000        1.0080           0
   40187 WT2  6116 TIP3 OH2  OT    -0.834000       15.9994           0
   40188 WT2  6116 TIP3 H1   HT     0.417000        1.0080           0
   40189 WT2  6116 TIP3 H2   HT     0.417000        1.0080           0
   40190 WT2  6118 TIP3 OH2  OT    -0.834000       15.9994           0
   40191 WT2  6118 TIP3 H1   HT     0.417000        1.0080           0
   40192 WT2  6118 TIP3 H2   HT     0.417000        1.0080           0
   40193 WT2  6119 TIP3 OH2  OT    -0.834000       15.9994           0
   40194 WT2  6119 TIP3 H1   HT     0.417000        1.0080           0
   40195 WT2  6119 TIP3 H2   HT     0.417000        1.0080           0
   40196 WT2  6120 TIP3 OH2  OT    -0.834000       15.9994           0
   40197 WT2  6120 TIP3 H1   HT     0.417000        1.0080           0
   40198 WT2  6120 TIP3 H2   HT     0.417000        1.0080           0
   40199 WT2  6121 TIP3 OH2  OT    -0.834000       15.9994           0
   40200 WT2  6121 TIP3 H1   HT     0.417000        1.0080           0
   40201 WT2  6121 TIP3 H2   HT     0.417000        1.0080           0
   40202 WT2  6122 TIP3 OH2  OT    -0.834000       15.9994           0
   40203 WT2  6122 TIP3 H1   HT     0.417000        1.0080           0
   40204 WT2  6122 TIP3 H2   HT     0.417000        1.0080           0
   40205 WT2  6123 TIP3 OH2  OT    -0.834000       15.9994           0
   40206 WT2  6123 TIP3 H1   HT     0.417000        1.0080           0
   40207 WT2  6123 TIP3 H2   HT     0.417000        1.0080           0
   40208 WT2  6124 TIP3 OH2  OT    -0.834000       15.9994           0
   40209 WT2  6124 TIP3 H1   HT     0.417000        1.0080           0
   40210 WT2  6124 TIP3 H2   HT     0.417000        1.0080           0
   40211 WT2  6125 TIP3 OH2  OT    -0.834000       15.9994           0
   40212 WT2  6125 TIP3 H1   HT     0.417000        1.0080           0
   40213 WT2  6125 TIP3 H2   HT     0.417000        1.0080           0
   40214 WT2  6126 TIP3 OH2  OT    -0.834000       15.9994           0
   40215 WT2  6126 TIP3 H1   HT     0.417000        1.0080           0
   40216 WT2  6126 TIP3 H2   HT     0.417000        1.0080           0
   40217 WT2  6127 TIP3 OH2  OT    -0.834000       15.9994           0
   40218 WT2  6127 TIP3 H1   HT     0.417000        1.0080           0
   40219 WT2  6127 TIP3 H2   HT     0.417000        1.0080           0
   40220 WT2  6128 TIP3 OH2  OT    -0.834000       15.9994           0
   40221 WT2  6128 TIP3 H1   HT     0.417000        1.0080           0
   40222 WT2  6128 TIP3 H2   HT     0.417000        1.0080           0
   40223 WT2  6129 TIP3 OH2  OT    -0.834000       15.9994           0
   40224 WT2  6129 TIP3 H1   HT     0.417000        1.0080           0
   40225 WT2  6129 TIP3 H2   HT     0.417000        1.0080           0
   40226 WT2  6130 TIP3 OH2  OT    -0.834000       15.9994           0
   40227 WT2  6130 TIP3 H1   HT     0.417000        1.0080           0
   40228 WT2  6130 TIP3 H2   HT     0.417000        1.0080           0
   40229 WT2  6131 TIP3 OH2  OT    -0.834000       15.9994           0
   40230 WT2  6131 TIP3 H1   HT     0.417000        1.0080           0
   40231 WT2  6131 TIP3 H2   HT     0.417000        1.0080           0
   40232 WT2  6132 TIP3 OH2  OT    -0.834000       15.9994           0
   40233 WT2  6132 TIP3 H1   HT     0.417000        1.0080           0
   40234 WT2  6132 TIP3 H2   HT     0.417000        1.0080           0
   40235 WT2  6133 TIP3 OH2  OT    -0.834000       15.9994           0
   40236 WT2  6133 TIP3 H1   HT     0.417000        1.0080           0
   40237 WT2  6133 TIP3 H2   HT     0.417000        1.0080           0
   40238 WT2  6134 TIP3 OH2  OT    -0.834000       15.9994           0
   40239 WT2  6134 TIP3 H1   HT     0.417000        1.0080           0
   40240 WT2  6134 TIP3 H2   HT     0.417000        1.0080           0
   40241 WT2  6135 TIP3 OH2  OT    -0.834000       15.9994           0
   40242 WT2  6135 TIP3 H1   HT     0.417000        1.0080           0
   40243 WT2  6135 TIP3 H2   HT     0.417000        1.0080           0
   40244 WT2  6136 TIP3 OH2  OT    -0.834000       15.9994           0
   40245 WT2  6136 TIP3 H1   HT     0.417000        1.0080           0
   40246 WT2  6136 TIP3 H2   HT     0.417000        1.0080           0
   40247 WT2  6137 TIP3 OH2  OT    -0.834000       15.9994           0
   40248 WT2  6137 TIP3 H1   HT     0.417000        1.0080           0
   40249 WT2  6137 TIP3 H2   HT     0.417000        1.0080           0
   40250 WT2  6138 TIP3 OH2  OT    -0.834000       15.9994           0
   40251 WT2  6138 TIP3 H1   HT     0.417000        1.0080           0
   40252 WT2  6138 TIP3 H2   HT     0.417000        1.0080           0
   40253 WT2  6139 TIP3 OH2  OT    -0.834000       15.9994           0
   40254 WT2  6139 TIP3 H1   HT     0.417000        1.0080           0
   40255 WT2  6139 TIP3 H2   HT     0.417000        1.0080           0
   40256 WT2  6141 TIP3 OH2  OT    -0.834000       15.9994           0
   40257 WT2  6141 TIP3 H1   HT     0.417000        1.0080           0
   40258 WT2  6141 TIP3 H2   HT     0.417000        1.0080           0
   40259 WT2  6142 TIP3 OH2  OT    -0.834000       15.9994           0
   40260 WT2  6142 TIP3 H1   HT     0.417000        1.0080           0
   40261 WT2  6142 TIP3 H2   HT     0.417000        1.0080           0
   40262 WT2  6143 TIP3 OH2  OT    -0.834000       15.9994           0
   40263 WT2  6143 TIP3 H1   HT     0.417000        1.0080           0
   40264 WT2  6143 TIP3 H2   HT     0.417000        1.0080           0
   40265 WT2  6144 TIP3 OH2  OT    -0.834000       15.9994           0
   40266 WT2  6144 TIP3 H1   HT     0.417000        1.0080           0
   40267 WT2  6144 TIP3 H2   HT     0.417000        1.0080           0
   40268 WT2  6145 TIP3 OH2  OT    -0.834000       15.9994           0
   40269 WT2  6145 TIP3 H1   HT     0.417000        1.0080           0
   40270 WT2  6145 TIP3 H2   HT     0.417000        1.0080           0
   40271 WT2  6146 TIP3 OH2  OT    -0.834000       15.9994           0
   40272 WT2  6146 TIP3 H1   HT     0.417000        1.0080           0
   40273 WT2  6146 TIP3 H2   HT     0.417000        1.0080           0
   40274 WT2  6147 TIP3 OH2  OT    -0.834000       15.9994           0
   40275 WT2  6147 TIP3 H1   HT     0.417000        1.0080           0
   40276 WT2  6147 TIP3 H2   HT     0.417000        1.0080           0
   40277 WT2  6148 TIP3 OH2  OT    -0.834000       15.9994           0
   40278 WT2  6148 TIP3 H1   HT     0.417000        1.0080           0
   40279 WT2  6148 TIP3 H2   HT     0.417000        1.0080           0
   40280 WT2  6149 TIP3 OH2  OT    -0.834000       15.9994           0
   40281 WT2  6149 TIP3 H1   HT     0.417000        1.0080           0
   40282 WT2  6149 TIP3 H2   HT     0.417000        1.0080           0
   40283 WT2  6150 TIP3 OH2  OT    -0.834000       15.9994           0
   40284 WT2  6150 TIP3 H1   HT     0.417000        1.0080           0
   40285 WT2  6150 TIP3 H2   HT     0.417000        1.0080           0
   40286 WT2  6151 TIP3 OH2  OT    -0.834000       15.9994           0
   40287 WT2  6151 TIP3 H1   HT     0.417000        1.0080           0
   40288 WT2  6151 TIP3 H2   HT     0.417000        1.0080           0
   40289 WT2  6153 TIP3 OH2  OT    -0.834000       15.9994           0
   40290 WT2  6153 TIP3 H1   HT     0.417000        1.0080           0
   40291 WT2  6153 TIP3 H2   HT     0.417000        1.0080           0
   40292 WT2  6154 TIP3 OH2  OT    -0.834000       15.9994           0
   40293 WT2  6154 TIP3 H1   HT     0.417000        1.0080           0
   40294 WT2  6154 TIP3 H2   HT     0.417000        1.0080           0
   40295 WT2  6155 TIP3 OH2  OT    -0.834000       15.9994           0
   40296 WT2  6155 TIP3 H1   HT     0.417000        1.0080           0
   40297 WT2  6155 TIP3 H2   HT     0.417000        1.0080           0
   40298 WT2  6156 TIP3 OH2  OT    -0.834000       15.9994           0
   40299 WT2  6156 TIP3 H1   HT     0.417000        1.0080           0
   40300 WT2  6156 TIP3 H2   HT     0.417000        1.0080           0
   40301 WT2  6157 TIP3 OH2  OT    -0.834000       15.9994           0
   40302 WT2  6157 TIP3 H1   HT     0.417000        1.0080           0
   40303 WT2  6157 TIP3 H2   HT     0.417000        1.0080           0
   40304 WT2  6158 TIP3 OH2  OT    -0.834000       15.9994           0
   40305 WT2  6158 TIP3 H1   HT     0.417000        1.0080           0
   40306 WT2  6158 TIP3 H2   HT     0.417000        1.0080           0
   40307 WT2  6159 TIP3 OH2  OT    -0.834000       15.9994           0
   40308 WT2  6159 TIP3 H1   HT     0.417000        1.0080           0
   40309 WT2  6159 TIP3 H2   HT     0.417000        1.0080           0
   40310 WT2  6160 TIP3 OH2  OT    -0.834000       15.9994           0
   40311 WT2  6160 TIP3 H1   HT     0.417000        1.0080           0
   40312 WT2  6160 TIP3 H2   HT     0.417000        1.0080           0
   40313 WT2  6161 TIP3 OH2  OT    -0.834000       15.9994           0
   40314 WT2  6161 TIP3 H1   HT     0.417000        1.0080           0
   40315 WT2  6161 TIP3 H2   HT     0.417000        1.0080           0
   40316 WT2  6162 TIP3 OH2  OT    -0.834000       15.9994           0
   40317 WT2  6162 TIP3 H1   HT     0.417000        1.0080           0
   40318 WT2  6162 TIP3 H2   HT     0.417000        1.0080           0
   40319 WT2  6163 TIP3 OH2  OT    -0.834000       15.9994           0
   40320 WT2  6163 TIP3 H1   HT     0.417000        1.0080           0
   40321 WT2  6163 TIP3 H2   HT     0.417000        1.0080           0
   40322 WT2  6164 TIP3 OH2  OT    -0.834000       15.9994           0
   40323 WT2  6164 TIP3 H1   HT     0.417000        1.0080           0
   40324 WT2  6164 TIP3 H2   HT     0.417000        1.0080           0
   40325 WT2  6165 TIP3 OH2  OT    -0.834000       15.9994           0
   40326 WT2  6165 TIP3 H1   HT     0.417000        1.0080           0
   40327 WT2  6165 TIP3 H2   HT     0.417000        1.0080           0
   40328 WT2  6166 TIP3 OH2  OT    -0.834000       15.9994           0
   40329 WT2  6166 TIP3 H1   HT     0.417000        1.0080           0
   40330 WT2  6166 TIP3 H2   HT     0.417000        1.0080           0
   40331 WT2  6167 TIP3 OH2  OT    -0.834000       15.9994           0
   40332 WT2  6167 TIP3 H1   HT     0.417000        1.0080           0
   40333 WT2  6167 TIP3 H2   HT     0.417000        1.0080           0
   40334 WT2  6168 TIP3 OH2  OT    -0.834000       15.9994           0
   40335 WT2  6168 TIP3 H1   HT     0.417000        1.0080           0
   40336 WT2  6168 TIP3 H2   HT     0.417000        1.0080           0
   40337 WT2  6169 TIP3 OH2  OT    -0.834000       15.9994           0
   40338 WT2  6169 TIP3 H1   HT     0.417000        1.0080           0
   40339 WT2  6169 TIP3 H2   HT     0.417000        1.0080           0
   40340 WT2  6175 TIP3 OH2  OT    -0.834000       15.9994           0
   40341 WT2  6175 TIP3 H1   HT     0.417000        1.0080           0
   40342 WT2  6175 TIP3 H2   HT     0.417000        1.0080           0
   40343 WT2  6177 TIP3 OH2  OT    -0.834000       15.9994           0
   40344 WT2  6177 TIP3 H1   HT     0.417000        1.0080           0
   40345 WT2  6177 TIP3 H2   HT     0.417000        1.0080           0
   40346 WT2  6178 TIP3 OH2  OT    -0.834000       15.9994           0
   40347 WT2  6178 TIP3 H1   HT     0.417000        1.0080           0
   40348 WT2  6178 TIP3 H2   HT     0.417000        1.0080           0
   40349 WT2  6180 TIP3 OH2  OT    -0.834000       15.9994           0
   40350 WT2  6180 TIP3 H1   HT     0.417000        1.0080           0
   40351 WT2  6180 TIP3 H2   HT     0.417000        1.0080           0
   40352 WT2  6181 TIP3 OH2  OT    -0.834000       15.9994           0
   40353 WT2  6181 TIP3 H1   HT     0.417000        1.0080           0
   40354 WT2  6181 TIP3 H2   HT     0.417000        1.0080           0
   40355 WT2  6182 TIP3 OH2  OT    -0.834000       15.9994           0
   40356 WT2  6182 TIP3 H1   HT     0.417000        1.0080           0
   40357 WT2  6182 TIP3 H2   HT     0.417000        1.0080           0
   40358 WT2  6183 TIP3 OH2  OT    -0.834000       15.9994           0
   40359 WT2  6183 TIP3 H1   HT     0.417000        1.0080           0
   40360 WT2  6183 TIP3 H2   HT     0.417000        1.0080           0
   40361 WT2  6184 TIP3 OH2  OT    -0.834000       15.9994           0
   40362 WT2  6184 TIP3 H1   HT     0.417000        1.0080           0
   40363 WT2  6184 TIP3 H2   HT     0.417000        1.0080           0
   40364 WT2  6185 TIP3 OH2  OT    -0.834000       15.9994           0
   40365 WT2  6185 TIP3 H1   HT     0.417000        1.0080           0
   40366 WT2  6185 TIP3 H2   HT     0.417000        1.0080           0
   40367 WT2  6186 TIP3 OH2  OT    -0.834000       15.9994           0
   40368 WT2  6186 TIP3 H1   HT     0.417000        1.0080           0
   40369 WT2  6186 TIP3 H2   HT     0.417000        1.0080           0
   40370 WT2  6187 TIP3 OH2  OT    -0.834000       15.9994           0
   40371 WT2  6187 TIP3 H1   HT     0.417000        1.0080           0
   40372 WT2  6187 TIP3 H2   HT     0.417000        1.0080           0
   40373 WT2  6189 TIP3 OH2  OT    -0.834000       15.9994           0
   40374 WT2  6189 TIP3 H1   HT     0.417000        1.0080           0
   40375 WT2  6189 TIP3 H2   HT     0.417000        1.0080           0
   40376 WT2  6190 TIP3 OH2  OT    -0.834000       15.9994           0
   40377 WT2  6190 TIP3 H1   HT     0.417000        1.0080           0
   40378 WT2  6190 TIP3 H2   HT     0.417000        1.0080           0
   40379 WT2  6191 TIP3 OH2  OT    -0.834000       15.9994           0
   40380 WT2  6191 TIP3 H1   HT     0.417000        1.0080           0
   40381 WT2  6191 TIP3 H2   HT     0.417000        1.0080           0
   40382 WT2  6192 TIP3 OH2  OT    -0.834000       15.9994           0
   40383 WT2  6192 TIP3 H1   HT     0.417000        1.0080           0
   40384 WT2  6192 TIP3 H2   HT     0.417000        1.0080           0
   40385 WT2  6193 TIP3 OH2  OT    -0.834000       15.9994           0
   40386 WT2  6193 TIP3 H1   HT     0.417000        1.0080           0
   40387 WT2  6193 TIP3 H2   HT     0.417000        1.0080           0
   40388 WT2  6194 TIP3 OH2  OT    -0.834000       15.9994           0
   40389 WT2  6194 TIP3 H1   HT     0.417000        1.0080           0
   40390 WT2  6194 TIP3 H2   HT     0.417000        1.0080           0
   40391 WT2  6195 TIP3 OH2  OT    -0.834000       15.9994           0
   40392 WT2  6195 TIP3 H1   HT     0.417000        1.0080           0
   40393 WT2  6195 TIP3 H2   HT     0.417000        1.0080           0
   40394 WT2  6196 TIP3 OH2  OT    -0.834000       15.9994           0
   40395 WT2  6196 TIP3 H1   HT     0.417000        1.0080           0
   40396 WT2  6196 TIP3 H2   HT     0.417000        1.0080           0
   40397 WT2  6197 TIP3 OH2  OT    -0.834000       15.9994           0
   40398 WT2  6197 TIP3 H1   HT     0.417000        1.0080           0
   40399 WT2  6197 TIP3 H2   HT     0.417000        1.0080           0
   40400 WT2  6198 TIP3 OH2  OT    -0.834000       15.9994           0
   40401 WT2  6198 TIP3 H1   HT     0.417000        1.0080           0
   40402 WT2  6198 TIP3 H2   HT     0.417000        1.0080           0
   40403 WT2  6199 TIP3 OH2  OT    -0.834000       15.9994           0
   40404 WT2  6199 TIP3 H1   HT     0.417000        1.0080           0
   40405 WT2  6199 TIP3 H2   HT     0.417000        1.0080           0
   40406 WT2  6200 TIP3 OH2  OT    -0.834000       15.9994           0
   40407 WT2  6200 TIP3 H1   HT     0.417000        1.0080           0
   40408 WT2  6200 TIP3 H2   HT     0.417000        1.0080           0
   40409 WT2  6201 TIP3 OH2  OT    -0.834000       15.9994           0
   40410 WT2  6201 TIP3 H1   HT     0.417000        1.0080           0
   40411 WT2  6201 TIP3 H2   HT     0.417000        1.0080           0
   40412 WT2  6202 TIP3 OH2  OT    -0.834000       15.9994           0
   40413 WT2  6202 TIP3 H1   HT     0.417000        1.0080           0
   40414 WT2  6202 TIP3 H2   HT     0.417000        1.0080           0
   40415 WT2  6204 TIP3 OH2  OT    -0.834000       15.9994           0
   40416 WT2  6204 TIP3 H1   HT     0.417000        1.0080           0
   40417 WT2  6204 TIP3 H2   HT     0.417000        1.0080           0
   40418 WT2  6205 TIP3 OH2  OT    -0.834000       15.9994           0
   40419 WT2  6205 TIP3 H1   HT     0.417000        1.0080           0
   40420 WT2  6205 TIP3 H2   HT     0.417000        1.0080           0
   40421 WT2  6206 TIP3 OH2  OT    -0.834000       15.9994           0
   40422 WT2  6206 TIP3 H1   HT     0.417000        1.0080           0
   40423 WT2  6206 TIP3 H2   HT     0.417000        1.0080           0
   40424 WT2  6207 TIP3 OH2  OT    -0.834000       15.9994           0
   40425 WT2  6207 TIP3 H1   HT     0.417000        1.0080           0
   40426 WT2  6207 TIP3 H2   HT     0.417000        1.0080           0
   40427 WT2  6208 TIP3 OH2  OT    -0.834000       15.9994           0
   40428 WT2  6208 TIP3 H1   HT     0.417000        1.0080           0
   40429 WT2  6208 TIP3 H2   HT     0.417000        1.0080           0
   40430 WT2  6209 TIP3 OH2  OT    -0.834000       15.9994           0
   40431 WT2  6209 TIP3 H1   HT     0.417000        1.0080           0
   40432 WT2  6209 TIP3 H2   HT     0.417000        1.0080           0
   40433 WT2  6212 TIP3 OH2  OT    -0.834000       15.9994           0
   40434 WT2  6212 TIP3 H1   HT     0.417000        1.0080           0
   40435 WT2  6212 TIP3 H2   HT     0.417000        1.0080           0
   40436 WT2  6213 TIP3 OH2  OT    -0.834000       15.9994           0
   40437 WT2  6213 TIP3 H1   HT     0.417000        1.0080           0
   40438 WT2  6213 TIP3 H2   HT     0.417000        1.0080           0
   40439 WT2  6214 TIP3 OH2  OT    -0.834000       15.9994           0
   40440 WT2  6214 TIP3 H1   HT     0.417000        1.0080           0
   40441 WT2  6214 TIP3 H2   HT     0.417000        1.0080           0
   40442 WT2  6215 TIP3 OH2  OT    -0.834000       15.9994           0
   40443 WT2  6215 TIP3 H1   HT     0.417000        1.0080           0
   40444 WT2  6215 TIP3 H2   HT     0.417000        1.0080           0
   40445 WT2  6216 TIP3 OH2  OT    -0.834000       15.9994           0
   40446 WT2  6216 TIP3 H1   HT     0.417000        1.0080           0
   40447 WT2  6216 TIP3 H2   HT     0.417000        1.0080           0
   40448 WT2  6217 TIP3 OH2  OT    -0.834000       15.9994           0
   40449 WT2  6217 TIP3 H1   HT     0.417000        1.0080           0
   40450 WT2  6217 TIP3 H2   HT     0.417000        1.0080           0
   40451 WT2  6218 TIP3 OH2  OT    -0.834000       15.9994           0
   40452 WT2  6218 TIP3 H1   HT     0.417000        1.0080           0
   40453 WT2  6218 TIP3 H2   HT     0.417000        1.0080           0
   40454 WT2  6219 TIP3 OH2  OT    -0.834000       15.9994           0
   40455 WT2  6219 TIP3 H1   HT     0.417000        1.0080           0
   40456 WT2  6219 TIP3 H2   HT     0.417000        1.0080           0
   40457 WT2  6221 TIP3 OH2  OT    -0.834000       15.9994           0
   40458 WT2  6221 TIP3 H1   HT     0.417000        1.0080           0
   40459 WT2  6221 TIP3 H2   HT     0.417000        1.0080           0
   40460 WT2  6222 TIP3 OH2  OT    -0.834000       15.9994           0
   40461 WT2  6222 TIP3 H1   HT     0.417000        1.0080           0
   40462 WT2  6222 TIP3 H2   HT     0.417000        1.0080           0
   40463 WT2  6223 TIP3 OH2  OT    -0.834000       15.9994           0
   40464 WT2  6223 TIP3 H1   HT     0.417000        1.0080           0
   40465 WT2  6223 TIP3 H2   HT     0.417000        1.0080           0
   40466 WT2  6224 TIP3 OH2  OT    -0.834000       15.9994           0
   40467 WT2  6224 TIP3 H1   HT     0.417000        1.0080           0
   40468 WT2  6224 TIP3 H2   HT     0.417000        1.0080           0
   40469 WT2  6225 TIP3 OH2  OT    -0.834000       15.9994           0
   40470 WT2  6225 TIP3 H1   HT     0.417000        1.0080           0
   40471 WT2  6225 TIP3 H2   HT     0.417000        1.0080           0
   40472 WT2  6226 TIP3 OH2  OT    -0.834000       15.9994           0
   40473 WT2  6226 TIP3 H1   HT     0.417000        1.0080           0
   40474 WT2  6226 TIP3 H2   HT     0.417000        1.0080           0
   40475 WT2  6227 TIP3 OH2  OT    -0.834000       15.9994           0
   40476 WT2  6227 TIP3 H1   HT     0.417000        1.0080           0
   40477 WT2  6227 TIP3 H2   HT     0.417000        1.0080           0
   40478 WT2  6228 TIP3 OH2  OT    -0.834000       15.9994           0
   40479 WT2  6228 TIP3 H1   HT     0.417000        1.0080           0
   40480 WT2  6228 TIP3 H2   HT     0.417000        1.0080           0
   40481 WT2  6229 TIP3 OH2  OT    -0.834000       15.9994           0
   40482 WT2  6229 TIP3 H1   HT     0.417000        1.0080           0
   40483 WT2  6229 TIP3 H2   HT     0.417000        1.0080           0
   40484 WT2  6231 TIP3 OH2  OT    -0.834000       15.9994           0
   40485 WT2  6231 TIP3 H1   HT     0.417000        1.0080           0
   40486 WT2  6231 TIP3 H2   HT     0.417000        1.0080           0
   40487 WT2  6232 TIP3 OH2  OT    -0.834000       15.9994           0
   40488 WT2  6232 TIP3 H1   HT     0.417000        1.0080           0
   40489 WT2  6232 TIP3 H2   HT     0.417000        1.0080           0
   40490 WT2  6233 TIP3 OH2  OT    -0.834000       15.9994           0
   40491 WT2  6233 TIP3 H1   HT     0.417000        1.0080           0
   40492 WT2  6233 TIP3 H2   HT     0.417000        1.0080           0
   40493 WT2  6234 TIP3 OH2  OT    -0.834000       15.9994           0
   40494 WT2  6234 TIP3 H1   HT     0.417000        1.0080           0
   40495 WT2  6234 TIP3 H2   HT     0.417000        1.0080           0
   40496 WT2  6237 TIP3 OH2  OT    -0.834000       15.9994           0
   40497 WT2  6237 TIP3 H1   HT     0.417000        1.0080           0
   40498 WT2  6237 TIP3 H2   HT     0.417000        1.0080           0
   40499 WT2  6238 TIP3 OH2  OT    -0.834000       15.9994           0
   40500 WT2  6238 TIP3 H1   HT     0.417000        1.0080           0
   40501 WT2  6238 TIP3 H2   HT     0.417000        1.0080           0
   40502 WT2  6239 TIP3 OH2  OT    -0.834000       15.9994           0
   40503 WT2  6239 TIP3 H1   HT     0.417000        1.0080           0
   40504 WT2  6239 TIP3 H2   HT     0.417000        1.0080           0
   40505 WT2  6240 TIP3 OH2  OT    -0.834000       15.9994           0
   40506 WT2  6240 TIP3 H1   HT     0.417000        1.0080           0
   40507 WT2  6240 TIP3 H2   HT     0.417000        1.0080           0
   40508 WT2  6241 TIP3 OH2  OT    -0.834000       15.9994           0
   40509 WT2  6241 TIP3 H1   HT     0.417000        1.0080           0
   40510 WT2  6241 TIP3 H2   HT     0.417000        1.0080           0
   40511 WT2  6242 TIP3 OH2  OT    -0.834000       15.9994           0
   40512 WT2  6242 TIP3 H1   HT     0.417000        1.0080           0
   40513 WT2  6242 TIP3 H2   HT     0.417000        1.0080           0
   40514 WT2  6243 TIP3 OH2  OT    -0.834000       15.9994           0
   40515 WT2  6243 TIP3 H1   HT     0.417000        1.0080           0
   40516 WT2  6243 TIP3 H2   HT     0.417000        1.0080           0
   40517 WT2  6244 TIP3 OH2  OT    -0.834000       15.9994           0
   40518 WT2  6244 TIP3 H1   HT     0.417000        1.0080           0
   40519 WT2  6244 TIP3 H2   HT     0.417000        1.0080           0
   40520 WT2  6245 TIP3 OH2  OT    -0.834000       15.9994           0
   40521 WT2  6245 TIP3 H1   HT     0.417000        1.0080           0
   40522 WT2  6245 TIP3 H2   HT     0.417000        1.0080           0
   40523 WT2  6246 TIP3 OH2  OT    -0.834000       15.9994           0
   40524 WT2  6246 TIP3 H1   HT     0.417000        1.0080           0
   40525 WT2  6246 TIP3 H2   HT     0.417000        1.0080           0
   40526 WT2  6247 TIP3 OH2  OT    -0.834000       15.9994           0
   40527 WT2  6247 TIP3 H1   HT     0.417000        1.0080           0
   40528 WT2  6247 TIP3 H2   HT     0.417000        1.0080           0
   40529 WT2  6248 TIP3 OH2  OT    -0.834000       15.9994           0
   40530 WT2  6248 TIP3 H1   HT     0.417000        1.0080           0
   40531 WT2  6248 TIP3 H2   HT     0.417000        1.0080           0
   40532 WT2  6249 TIP3 OH2  OT    -0.834000       15.9994           0
   40533 WT2  6249 TIP3 H1   HT     0.417000        1.0080           0
   40534 WT2  6249 TIP3 H2   HT     0.417000        1.0080           0
   40535 WT2  6250 TIP3 OH2  OT    -0.834000       15.9994           0
   40536 WT2  6250 TIP3 H1   HT     0.417000        1.0080           0
   40537 WT2  6250 TIP3 H2   HT     0.417000        1.0080           0
   40538 WT2  6251 TIP3 OH2  OT    -0.834000       15.9994           0
   40539 WT2  6251 TIP3 H1   HT     0.417000        1.0080           0
   40540 WT2  6251 TIP3 H2   HT     0.417000        1.0080           0
   40541 WT2  6252 TIP3 OH2  OT    -0.834000       15.9994           0
   40542 WT2  6252 TIP3 H1   HT     0.417000        1.0080           0
   40543 WT2  6252 TIP3 H2   HT     0.417000        1.0080           0
   40544 WT2  6253 TIP3 OH2  OT    -0.834000       15.9994           0
   40545 WT2  6253 TIP3 H1   HT     0.417000        1.0080           0
   40546 WT2  6253 TIP3 H2   HT     0.417000        1.0080           0
   40547 WT2  6254 TIP3 OH2  OT    -0.834000       15.9994           0
   40548 WT2  6254 TIP3 H1   HT     0.417000        1.0080           0
   40549 WT2  6254 TIP3 H2   HT     0.417000        1.0080           0
   40550 WT2  6255 TIP3 OH2  OT    -0.834000       15.9994           0
   40551 WT2  6255 TIP3 H1   HT     0.417000        1.0080           0
   40552 WT2  6255 TIP3 H2   HT     0.417000        1.0080           0
   40553 WT2  6256 TIP3 OH2  OT    -0.834000       15.9994           0
   40554 WT2  6256 TIP3 H1   HT     0.417000        1.0080           0
   40555 WT2  6256 TIP3 H2   HT     0.417000        1.0080           0
   40556 WT2  6257 TIP3 OH2  OT    -0.834000       15.9994           0
   40557 WT2  6257 TIP3 H1   HT     0.417000        1.0080           0
   40558 WT2  6257 TIP3 H2   HT     0.417000        1.0080           0
   40559 WT2  6258 TIP3 OH2  OT    -0.834000       15.9994           0
   40560 WT2  6258 TIP3 H1   HT     0.417000        1.0080           0
   40561 WT2  6258 TIP3 H2   HT     0.417000        1.0080           0
   40562 WT2  6259 TIP3 OH2  OT    -0.834000       15.9994           0
   40563 WT2  6259 TIP3 H1   HT     0.417000        1.0080           0
   40564 WT2  6259 TIP3 H2   HT     0.417000        1.0080           0
   40565 WT2  6260 TIP3 OH2  OT    -0.834000       15.9994           0
   40566 WT2  6260 TIP3 H1   HT     0.417000        1.0080           0
   40567 WT2  6260 TIP3 H2   HT     0.417000        1.0080           0
   40568 WT2  6261 TIP3 OH2  OT    -0.834000       15.9994           0
   40569 WT2  6261 TIP3 H1   HT     0.417000        1.0080           0
   40570 WT2  6261 TIP3 H2   HT     0.417000        1.0080           0
   40571 WT2  6263 TIP3 OH2  OT    -0.834000       15.9994           0
   40572 WT2  6263 TIP3 H1   HT     0.417000        1.0080           0
   40573 WT2  6263 TIP3 H2   HT     0.417000        1.0080           0
   40574 WT2  6264 TIP3 OH2  OT    -0.834000       15.9994           0
   40575 WT2  6264 TIP3 H1   HT     0.417000        1.0080           0
   40576 WT2  6264 TIP3 H2   HT     0.417000        1.0080           0
   40577 WT2  6266 TIP3 OH2  OT    -0.834000       15.9994           0
   40578 WT2  6266 TIP3 H1   HT     0.417000        1.0080           0
   40579 WT2  6266 TIP3 H2   HT     0.417000        1.0080           0
   40580 WT2  6267 TIP3 OH2  OT    -0.834000       15.9994           0
   40581 WT2  6267 TIP3 H1   HT     0.417000        1.0080           0
   40582 WT2  6267 TIP3 H2   HT     0.417000        1.0080           0
   40583 WT2  6268 TIP3 OH2  OT    -0.834000       15.9994           0
   40584 WT2  6268 TIP3 H1   HT     0.417000        1.0080           0
   40585 WT2  6268 TIP3 H2   HT     0.417000        1.0080           0
   40586 WT2  6269 TIP3 OH2  OT    -0.834000       15.9994           0
   40587 WT2  6269 TIP3 H1   HT     0.417000        1.0080           0
   40588 WT2  6269 TIP3 H2   HT     0.417000        1.0080           0
   40589 WT2  6271 TIP3 OH2  OT    -0.834000       15.9994           0
   40590 WT2  6271 TIP3 H1   HT     0.417000        1.0080           0
   40591 WT2  6271 TIP3 H2   HT     0.417000        1.0080           0
   40592 WT2  6272 TIP3 OH2  OT    -0.834000       15.9994           0
   40593 WT2  6272 TIP3 H1   HT     0.417000        1.0080           0
   40594 WT2  6272 TIP3 H2   HT     0.417000        1.0080           0
   40595 WT2  6273 TIP3 OH2  OT    -0.834000       15.9994           0
   40596 WT2  6273 TIP3 H1   HT     0.417000        1.0080           0
   40597 WT2  6273 TIP3 H2   HT     0.417000        1.0080           0
   40598 WT2  6274 TIP3 OH2  OT    -0.834000       15.9994           0
   40599 WT2  6274 TIP3 H1   HT     0.417000        1.0080           0
   40600 WT2  6274 TIP3 H2   HT     0.417000        1.0080           0
   40601 WT2  6276 TIP3 OH2  OT    -0.834000       15.9994           0
   40602 WT2  6276 TIP3 H1   HT     0.417000        1.0080           0
   40603 WT2  6276 TIP3 H2   HT     0.417000        1.0080           0
   40604 WT2  6278 TIP3 OH2  OT    -0.834000       15.9994           0
   40605 WT2  6278 TIP3 H1   HT     0.417000        1.0080           0
   40606 WT2  6278 TIP3 H2   HT     0.417000        1.0080           0
   40607 WT2  6279 TIP3 OH2  OT    -0.834000       15.9994           0
   40608 WT2  6279 TIP3 H1   HT     0.417000        1.0080           0
   40609 WT2  6279 TIP3 H2   HT     0.417000        1.0080           0
   40610 WT2  6280 TIP3 OH2  OT    -0.834000       15.9994           0
   40611 WT2  6280 TIP3 H1   HT     0.417000        1.0080           0
   40612 WT2  6280 TIP3 H2   HT     0.417000        1.0080           0
   40613 WT2  6281 TIP3 OH2  OT    -0.834000       15.9994           0
   40614 WT2  6281 TIP3 H1   HT     0.417000        1.0080           0
   40615 WT2  6281 TIP3 H2   HT     0.417000        1.0080           0
   40616 WT2  6282 TIP3 OH2  OT    -0.834000       15.9994           0
   40617 WT2  6282 TIP3 H1   HT     0.417000        1.0080           0
   40618 WT2  6282 TIP3 H2   HT     0.417000        1.0080           0
   40619 WT2  6283 TIP3 OH2  OT    -0.834000       15.9994           0
   40620 WT2  6283 TIP3 H1   HT     0.417000        1.0080           0
   40621 WT2  6283 TIP3 H2   HT     0.417000        1.0080           0
   40622 WT2  6284 TIP3 OH2  OT    -0.834000       15.9994           0
   40623 WT2  6284 TIP3 H1   HT     0.417000        1.0080           0
   40624 WT2  6284 TIP3 H2   HT     0.417000        1.0080           0
   40625 WT2  6285 TIP3 OH2  OT    -0.834000       15.9994           0
   40626 WT2  6285 TIP3 H1   HT     0.417000        1.0080           0
   40627 WT2  6285 TIP3 H2   HT     0.417000        1.0080           0
   40628 WT2  6286 TIP3 OH2  OT    -0.834000       15.9994           0
   40629 WT2  6286 TIP3 H1   HT     0.417000        1.0080           0
   40630 WT2  6286 TIP3 H2   HT     0.417000        1.0080           0
   40631 WT2  6287 TIP3 OH2  OT    -0.834000       15.9994           0
   40632 WT2  6287 TIP3 H1   HT     0.417000        1.0080           0
   40633 WT2  6287 TIP3 H2   HT     0.417000        1.0080           0
   40634 WT2  6288 TIP3 OH2  OT    -0.834000       15.9994           0
   40635 WT2  6288 TIP3 H1   HT     0.417000        1.0080           0
   40636 WT2  6288 TIP3 H2   HT     0.417000        1.0080           0
   40637 WT2  6289 TIP3 OH2  OT    -0.834000       15.9994           0
   40638 WT2  6289 TIP3 H1   HT     0.417000        1.0080           0
   40639 WT2  6289 TIP3 H2   HT     0.417000        1.0080           0
   40640 WT2  6290 TIP3 OH2  OT    -0.834000       15.9994           0
   40641 WT2  6290 TIP3 H1   HT     0.417000        1.0080           0
   40642 WT2  6290 TIP3 H2   HT     0.417000        1.0080           0
   40643 WT2  6291 TIP3 OH2  OT    -0.834000       15.9994           0
   40644 WT2  6291 TIP3 H1   HT     0.417000        1.0080           0
   40645 WT2  6291 TIP3 H2   HT     0.417000        1.0080           0
   40646 WT2  6292 TIP3 OH2  OT    -0.834000       15.9994           0
   40647 WT2  6292 TIP3 H1   HT     0.417000        1.0080           0
   40648 WT2  6292 TIP3 H2   HT     0.417000        1.0080           0
   40649 WT2  6293 TIP3 OH2  OT    -0.834000       15.9994           0
   40650 WT2  6293 TIP3 H1   HT     0.417000        1.0080           0
   40651 WT2  6293 TIP3 H2   HT     0.417000        1.0080           0
   40652 WT2  6294 TIP3 OH2  OT    -0.834000       15.9994           0
   40653 WT2  6294 TIP3 H1   HT     0.417000        1.0080           0
   40654 WT2  6294 TIP3 H2   HT     0.417000        1.0080           0
   40655 WT2  6295 TIP3 OH2  OT    -0.834000       15.9994           0
   40656 WT2  6295 TIP3 H1   HT     0.417000        1.0080           0
   40657 WT2  6295 TIP3 H2   HT     0.417000        1.0080           0
   40658 WT2  6296 TIP3 OH2  OT    -0.834000       15.9994           0
   40659 WT2  6296 TIP3 H1   HT     0.417000        1.0080           0
   40660 WT2  6296 TIP3 H2   HT     0.417000        1.0080           0
   40661 WT2  6297 TIP3 OH2  OT    -0.834000       15.9994           0
   40662 WT2  6297 TIP3 H1   HT     0.417000        1.0080           0
   40663 WT2  6297 TIP3 H2   HT     0.417000        1.0080           0
   40664 WT2  6298 TIP3 OH2  OT    -0.834000       15.9994           0
   40665 WT2  6298 TIP3 H1   HT     0.417000        1.0080           0
   40666 WT2  6298 TIP3 H2   HT     0.417000        1.0080           0
   40667 WT2  6301 TIP3 OH2  OT    -0.834000       15.9994           0
   40668 WT2  6301 TIP3 H1   HT     0.417000        1.0080           0
   40669 WT2  6301 TIP3 H2   HT     0.417000        1.0080           0
   40670 WT2  6303 TIP3 OH2  OT    -0.834000       15.9994           0
   40671 WT2  6303 TIP3 H1   HT     0.417000        1.0080           0
   40672 WT2  6303 TIP3 H2   HT     0.417000        1.0080           0
   40673 WT2  6304 TIP3 OH2  OT    -0.834000       15.9994           0
   40674 WT2  6304 TIP3 H1   HT     0.417000        1.0080           0
   40675 WT2  6304 TIP3 H2   HT     0.417000        1.0080           0
   40676 WT2  6306 TIP3 OH2  OT    -0.834000       15.9994           0
   40677 WT2  6306 TIP3 H1   HT     0.417000        1.0080           0
   40678 WT2  6306 TIP3 H2   HT     0.417000        1.0080           0
   40679 WT2  6307 TIP3 OH2  OT    -0.834000       15.9994           0
   40680 WT2  6307 TIP3 H1   HT     0.417000        1.0080           0
   40681 WT2  6307 TIP3 H2   HT     0.417000        1.0080           0
   40682 WT2  6308 TIP3 OH2  OT    -0.834000       15.9994           0
   40683 WT2  6308 TIP3 H1   HT     0.417000        1.0080           0
   40684 WT2  6308 TIP3 H2   HT     0.417000        1.0080           0
   40685 WT2  6311 TIP3 OH2  OT    -0.834000       15.9994           0
   40686 WT2  6311 TIP3 H1   HT     0.417000        1.0080           0
   40687 WT2  6311 TIP3 H2   HT     0.417000        1.0080           0
   40688 WT2  6312 TIP3 OH2  OT    -0.834000       15.9994           0
   40689 WT2  6312 TIP3 H1   HT     0.417000        1.0080           0
   40690 WT2  6312 TIP3 H2   HT     0.417000        1.0080           0
   40691 WT2  6314 TIP3 OH2  OT    -0.834000       15.9994           0
   40692 WT2  6314 TIP3 H1   HT     0.417000        1.0080           0
   40693 WT2  6314 TIP3 H2   HT     0.417000        1.0080           0
   40694 WT2  6315 TIP3 OH2  OT    -0.834000       15.9994           0
   40695 WT2  6315 TIP3 H1   HT     0.417000        1.0080           0
   40696 WT2  6315 TIP3 H2   HT     0.417000        1.0080           0
   40697 WT2  6316 TIP3 OH2  OT    -0.834000       15.9994           0
   40698 WT2  6316 TIP3 H1   HT     0.417000        1.0080           0
   40699 WT2  6316 TIP3 H2   HT     0.417000        1.0080           0
   40700 WT2  6317 TIP3 OH2  OT    -0.834000       15.9994           0
   40701 WT2  6317 TIP3 H1   HT     0.417000        1.0080           0
   40702 WT2  6317 TIP3 H2   HT     0.417000        1.0080           0
   40703 WT2  6318 TIP3 OH2  OT    -0.834000       15.9994           0
   40704 WT2  6318 TIP3 H1   HT     0.417000        1.0080           0
   40705 WT2  6318 TIP3 H2   HT     0.417000        1.0080           0
   40706 WT2  6319 TIP3 OH2  OT    -0.834000       15.9994           0
   40707 WT2  6319 TIP3 H1   HT     0.417000        1.0080           0
   40708 WT2  6319 TIP3 H2   HT     0.417000        1.0080           0
   40709 WT2  6320 TIP3 OH2  OT    -0.834000       15.9994           0
   40710 WT2  6320 TIP3 H1   HT     0.417000        1.0080           0
   40711 WT2  6320 TIP3 H2   HT     0.417000        1.0080           0
   40712 WT2  6321 TIP3 OH2  OT    -0.834000       15.9994           0
   40713 WT2  6321 TIP3 H1   HT     0.417000        1.0080           0
   40714 WT2  6321 TIP3 H2   HT     0.417000        1.0080           0
   40715 WT2  6322 TIP3 OH2  OT    -0.834000       15.9994           0
   40716 WT2  6322 TIP3 H1   HT     0.417000        1.0080           0
   40717 WT2  6322 TIP3 H2   HT     0.417000        1.0080           0
   40718 WT2  6323 TIP3 OH2  OT    -0.834000       15.9994           0
   40719 WT2  6323 TIP3 H1   HT     0.417000        1.0080           0
   40720 WT2  6323 TIP3 H2   HT     0.417000        1.0080           0
   40721 WT2  6324 TIP3 OH2  OT    -0.834000       15.9994           0
   40722 WT2  6324 TIP3 H1   HT     0.417000        1.0080           0
   40723 WT2  6324 TIP3 H2   HT     0.417000        1.0080           0
   40724 WT2  6325 TIP3 OH2  OT    -0.834000       15.9994           0
   40725 WT2  6325 TIP3 H1   HT     0.417000        1.0080           0
   40726 WT2  6325 TIP3 H2   HT     0.417000        1.0080           0
   40727 WT2  6327 TIP3 OH2  OT    -0.834000       15.9994           0
   40728 WT2  6327 TIP3 H1   HT     0.417000        1.0080           0
   40729 WT2  6327 TIP3 H2   HT     0.417000        1.0080           0
   40730 WT2  6328 TIP3 OH2  OT    -0.834000       15.9994           0
   40731 WT2  6328 TIP3 H1   HT     0.417000        1.0080           0
   40732 WT2  6328 TIP3 H2   HT     0.417000        1.0080           0
   40733 WT2  6329 TIP3 OH2  OT    -0.834000       15.9994           0
   40734 WT2  6329 TIP3 H1   HT     0.417000        1.0080           0
   40735 WT2  6329 TIP3 H2   HT     0.417000        1.0080           0
   40736 WT2  6330 TIP3 OH2  OT    -0.834000       15.9994           0
   40737 WT2  6330 TIP3 H1   HT     0.417000        1.0080           0
   40738 WT2  6330 TIP3 H2   HT     0.417000        1.0080           0
   40739 WT2  6331 TIP3 OH2  OT    -0.834000       15.9994           0
   40740 WT2  6331 TIP3 H1   HT     0.417000        1.0080           0
   40741 WT2  6331 TIP3 H2   HT     0.417000        1.0080           0
   40742 WT2  6332 TIP3 OH2  OT    -0.834000       15.9994           0
   40743 WT2  6332 TIP3 H1   HT     0.417000        1.0080           0
   40744 WT2  6332 TIP3 H2   HT     0.417000        1.0080           0
   40745 WT2  6334 TIP3 OH2  OT    -0.834000       15.9994           0
   40746 WT2  6334 TIP3 H1   HT     0.417000        1.0080           0
   40747 WT2  6334 TIP3 H2   HT     0.417000        1.0080           0
   40748 WT2  6335 TIP3 OH2  OT    -0.834000       15.9994           0
   40749 WT2  6335 TIP3 H1   HT     0.417000        1.0080           0
   40750 WT2  6335 TIP3 H2   HT     0.417000        1.0080           0
   40751 WT2  6337 TIP3 OH2  OT    -0.834000       15.9994           0
   40752 WT2  6337 TIP3 H1   HT     0.417000        1.0080           0
   40753 WT2  6337 TIP3 H2   HT     0.417000        1.0080           0
   40754 WT2  6338 TIP3 OH2  OT    -0.834000       15.9994           0
   40755 WT2  6338 TIP3 H1   HT     0.417000        1.0080           0
   40756 WT2  6338 TIP3 H2   HT     0.417000        1.0080           0
   40757 WT2  6339 TIP3 OH2  OT    -0.834000       15.9994           0
   40758 WT2  6339 TIP3 H1   HT     0.417000        1.0080           0
   40759 WT2  6339 TIP3 H2   HT     0.417000        1.0080           0
   40760 WT2  6340 TIP3 OH2  OT    -0.834000       15.9994           0
   40761 WT2  6340 TIP3 H1   HT     0.417000        1.0080           0
   40762 WT2  6340 TIP3 H2   HT     0.417000        1.0080           0
   40763 WT2  6342 TIP3 OH2  OT    -0.834000       15.9994           0
   40764 WT2  6342 TIP3 H1   HT     0.417000        1.0080           0
   40765 WT2  6342 TIP3 H2   HT     0.417000        1.0080           0
   40766 WT2  6344 TIP3 OH2  OT    -0.834000       15.9994           0
   40767 WT2  6344 TIP3 H1   HT     0.417000        1.0080           0
   40768 WT2  6344 TIP3 H2   HT     0.417000        1.0080           0
   40769 WT2  6345 TIP3 OH2  OT    -0.834000       15.9994           0
   40770 WT2  6345 TIP3 H1   HT     0.417000        1.0080           0
   40771 WT2  6345 TIP3 H2   HT     0.417000        1.0080           0
   40772 WT2  6346 TIP3 OH2  OT    -0.834000       15.9994           0
   40773 WT2  6346 TIP3 H1   HT     0.417000        1.0080           0
   40774 WT2  6346 TIP3 H2   HT     0.417000        1.0080           0
   40775 WT2  6347 TIP3 OH2  OT    -0.834000       15.9994           0
   40776 WT2  6347 TIP3 H1   HT     0.417000        1.0080           0
   40777 WT2  6347 TIP3 H2   HT     0.417000        1.0080           0
   40778 WT2  6348 TIP3 OH2  OT    -0.834000       15.9994           0
   40779 WT2  6348 TIP3 H1   HT     0.417000        1.0080           0
   40780 WT2  6348 TIP3 H2   HT     0.417000        1.0080           0
   40781 WT2  6349 TIP3 OH2  OT    -0.834000       15.9994           0
   40782 WT2  6349 TIP3 H1   HT     0.417000        1.0080           0
   40783 WT2  6349 TIP3 H2   HT     0.417000        1.0080           0
   40784 WT2  6354 TIP3 OH2  OT    -0.834000       15.9994           0
   40785 WT2  6354 TIP3 H1   HT     0.417000        1.0080           0
   40786 WT2  6354 TIP3 H2   HT     0.417000        1.0080           0
   40787 WT2  6356 TIP3 OH2  OT    -0.834000       15.9994           0
   40788 WT2  6356 TIP3 H1   HT     0.417000        1.0080           0
   40789 WT2  6356 TIP3 H2   HT     0.417000        1.0080           0
   40790 WT2  6357 TIP3 OH2  OT    -0.834000       15.9994           0
   40791 WT2  6357 TIP3 H1   HT     0.417000        1.0080           0
   40792 WT2  6357 TIP3 H2   HT     0.417000        1.0080           0
   40793 WT2  6358 TIP3 OH2  OT    -0.834000       15.9994           0
   40794 WT2  6358 TIP3 H1   HT     0.417000        1.0080           0
   40795 WT2  6358 TIP3 H2   HT     0.417000        1.0080           0
   40796 WT2  6359 TIP3 OH2  OT    -0.834000       15.9994           0
   40797 WT2  6359 TIP3 H1   HT     0.417000        1.0080           0
   40798 WT2  6359 TIP3 H2   HT     0.417000        1.0080           0
   40799 WT2  6360 TIP3 OH2  OT    -0.834000       15.9994           0
   40800 WT2  6360 TIP3 H1   HT     0.417000        1.0080           0
   40801 WT2  6360 TIP3 H2   HT     0.417000        1.0080           0
   40802 WT2  6361 TIP3 OH2  OT    -0.834000       15.9994           0
   40803 WT2  6361 TIP3 H1   HT     0.417000        1.0080           0
   40804 WT2  6361 TIP3 H2   HT     0.417000        1.0080           0
   40805 WT2  6362 TIP3 OH2  OT    -0.834000       15.9994           0
   40806 WT2  6362 TIP3 H1   HT     0.417000        1.0080           0
   40807 WT2  6362 TIP3 H2   HT     0.417000        1.0080           0
   40808 WT2  6363 TIP3 OH2  OT    -0.834000       15.9994           0
   40809 WT2  6363 TIP3 H1   HT     0.417000        1.0080           0
   40810 WT2  6363 TIP3 H2   HT     0.417000        1.0080           0
   40811 WT2  6364 TIP3 OH2  OT    -0.834000       15.9994           0
   40812 WT2  6364 TIP3 H1   HT     0.417000        1.0080           0
   40813 WT2  6364 TIP3 H2   HT     0.417000        1.0080           0
   40814 WT2  6366 TIP3 OH2  OT    -0.834000       15.9994           0
   40815 WT2  6366 TIP3 H1   HT     0.417000        1.0080           0
   40816 WT2  6366 TIP3 H2   HT     0.417000        1.0080           0
   40817 WT2  6368 TIP3 OH2  OT    -0.834000       15.9994           0
   40818 WT2  6368 TIP3 H1   HT     0.417000        1.0080           0
   40819 WT2  6368 TIP3 H2   HT     0.417000        1.0080           0
   40820 WT2  6369 TIP3 OH2  OT    -0.834000       15.9994           0
   40821 WT2  6369 TIP3 H1   HT     0.417000        1.0080           0
   40822 WT2  6369 TIP3 H2   HT     0.417000        1.0080           0
   40823 WT2  6370 TIP3 OH2  OT    -0.834000       15.9994           0
   40824 WT2  6370 TIP3 H1   HT     0.417000        1.0080           0
   40825 WT2  6370 TIP3 H2   HT     0.417000        1.0080           0
   40826 WT2  6371 TIP3 OH2  OT    -0.834000       15.9994           0
   40827 WT2  6371 TIP3 H1   HT     0.417000        1.0080           0
   40828 WT2  6371 TIP3 H2   HT     0.417000        1.0080           0
   40829 WT2  6372 TIP3 OH2  OT    -0.834000       15.9994           0
   40830 WT2  6372 TIP3 H1   HT     0.417000        1.0080           0
   40831 WT2  6372 TIP3 H2   HT     0.417000        1.0080           0
   40832 WT2  6374 TIP3 OH2  OT    -0.834000       15.9994           0
   40833 WT2  6374 TIP3 H1   HT     0.417000        1.0080           0
   40834 WT2  6374 TIP3 H2   HT     0.417000        1.0080           0
   40835 WT2  6379 TIP3 OH2  OT    -0.834000       15.9994           0
   40836 WT2  6379 TIP3 H1   HT     0.417000        1.0080           0
   40837 WT2  6379 TIP3 H2   HT     0.417000        1.0080           0
   40838 WT2  6381 TIP3 OH2  OT    -0.834000       15.9994           0
   40839 WT2  6381 TIP3 H1   HT     0.417000        1.0080           0
   40840 WT2  6381 TIP3 H2   HT     0.417000        1.0080           0
   40841 WT2  6382 TIP3 OH2  OT    -0.834000       15.9994           0
   40842 WT2  6382 TIP3 H1   HT     0.417000        1.0080           0
   40843 WT2  6382 TIP3 H2   HT     0.417000        1.0080           0
   40844 WT2  6383 TIP3 OH2  OT    -0.834000       15.9994           0
   40845 WT2  6383 TIP3 H1   HT     0.417000        1.0080           0
   40846 WT2  6383 TIP3 H2   HT     0.417000        1.0080           0
   40847 WT2  6384 TIP3 OH2  OT    -0.834000       15.9994           0
   40848 WT2  6384 TIP3 H1   HT     0.417000        1.0080           0
   40849 WT2  6384 TIP3 H2   HT     0.417000        1.0080           0
   40850 WT2  6385 TIP3 OH2  OT    -0.834000       15.9994           0
   40851 WT2  6385 TIP3 H1   HT     0.417000        1.0080           0
   40852 WT2  6385 TIP3 H2   HT     0.417000        1.0080           0
   40853 WT2  6386 TIP3 OH2  OT    -0.834000       15.9994           0
   40854 WT2  6386 TIP3 H1   HT     0.417000        1.0080           0
   40855 WT2  6386 TIP3 H2   HT     0.417000        1.0080           0
   40856 WT2  6387 TIP3 OH2  OT    -0.834000       15.9994           0
   40857 WT2  6387 TIP3 H1   HT     0.417000        1.0080           0
   40858 WT2  6387 TIP3 H2   HT     0.417000        1.0080           0
   40859 WT2  6388 TIP3 OH2  OT    -0.834000       15.9994           0
   40860 WT2  6388 TIP3 H1   HT     0.417000        1.0080           0
   40861 WT2  6388 TIP3 H2   HT     0.417000        1.0080           0
   40862 WT2  6389 TIP3 OH2  OT    -0.834000       15.9994           0
   40863 WT2  6389 TIP3 H1   HT     0.417000        1.0080           0
   40864 WT2  6389 TIP3 H2   HT     0.417000        1.0080           0
   40865 WT2  6390 TIP3 OH2  OT    -0.834000       15.9994           0
   40866 WT2  6390 TIP3 H1   HT     0.417000        1.0080           0
   40867 WT2  6390 TIP3 H2   HT     0.417000        1.0080           0
   40868 WT2  6391 TIP3 OH2  OT    -0.834000       15.9994           0
   40869 WT2  6391 TIP3 H1   HT     0.417000        1.0080           0
   40870 WT2  6391 TIP3 H2   HT     0.417000        1.0080           0
   40871 WT2  6392 TIP3 OH2  OT    -0.834000       15.9994           0
   40872 WT2  6392 TIP3 H1   HT     0.417000        1.0080           0
   40873 WT2  6392 TIP3 H2   HT     0.417000        1.0080           0
   40874 WT2  6393 TIP3 OH2  OT    -0.834000       15.9994           0
   40875 WT2  6393 TIP3 H1   HT     0.417000        1.0080           0
   40876 WT2  6393 TIP3 H2   HT     0.417000        1.0080           0
   40877 WT2  6394 TIP3 OH2  OT    -0.834000       15.9994           0
   40878 WT2  6394 TIP3 H1   HT     0.417000        1.0080           0
   40879 WT2  6394 TIP3 H2   HT     0.417000        1.0080           0
   40880 WT2  6395 TIP3 OH2  OT    -0.834000       15.9994           0
   40881 WT2  6395 TIP3 H1   HT     0.417000        1.0080           0
   40882 WT2  6395 TIP3 H2   HT     0.417000        1.0080           0
   40883 WT2  6397 TIP3 OH2  OT    -0.834000       15.9994           0
   40884 WT2  6397 TIP3 H1   HT     0.417000        1.0080           0
   40885 WT2  6397 TIP3 H2   HT     0.417000        1.0080           0
   40886 WT2  6399 TIP3 OH2  OT    -0.834000       15.9994           0
   40887 WT2  6399 TIP3 H1   HT     0.417000        1.0080           0
   40888 WT2  6399 TIP3 H2   HT     0.417000        1.0080           0
   40889 WT2  6400 TIP3 OH2  OT    -0.834000       15.9994           0
   40890 WT2  6400 TIP3 H1   HT     0.417000        1.0080           0
   40891 WT2  6400 TIP3 H2   HT     0.417000        1.0080           0
   40892 WT2  6401 TIP3 OH2  OT    -0.834000       15.9994           0
   40893 WT2  6401 TIP3 H1   HT     0.417000        1.0080           0
   40894 WT2  6401 TIP3 H2   HT     0.417000        1.0080           0
   40895 WT2  6402 TIP3 OH2  OT    -0.834000       15.9994           0
   40896 WT2  6402 TIP3 H1   HT     0.417000        1.0080           0
   40897 WT2  6402 TIP3 H2   HT     0.417000        1.0080           0
   40898 WT2  6403 TIP3 OH2  OT    -0.834000       15.9994           0
   40899 WT2  6403 TIP3 H1   HT     0.417000        1.0080           0
   40900 WT2  6403 TIP3 H2   HT     0.417000        1.0080           0
   40901 WT2  6405 TIP3 OH2  OT    -0.834000       15.9994           0
   40902 WT2  6405 TIP3 H1   HT     0.417000        1.0080           0
   40903 WT2  6405 TIP3 H2   HT     0.417000        1.0080           0
   40904 WT2  6406 TIP3 OH2  OT    -0.834000       15.9994           0
   40905 WT2  6406 TIP3 H1   HT     0.417000        1.0080           0
   40906 WT2  6406 TIP3 H2   HT     0.417000        1.0080           0
   40907 WT2  6410 TIP3 OH2  OT    -0.834000       15.9994           0
   40908 WT2  6410 TIP3 H1   HT     0.417000        1.0080           0
   40909 WT2  6410 TIP3 H2   HT     0.417000        1.0080           0
   40910 WT2  6411 TIP3 OH2  OT    -0.834000       15.9994           0
   40911 WT2  6411 TIP3 H1   HT     0.417000        1.0080           0
   40912 WT2  6411 TIP3 H2   HT     0.417000        1.0080           0
   40913 WT2  6412 TIP3 OH2  OT    -0.834000       15.9994           0
   40914 WT2  6412 TIP3 H1   HT     0.417000        1.0080           0
   40915 WT2  6412 TIP3 H2   HT     0.417000        1.0080           0
   40916 WT2  6413 TIP3 OH2  OT    -0.834000       15.9994           0
   40917 WT2  6413 TIP3 H1   HT     0.417000        1.0080           0
   40918 WT2  6413 TIP3 H2   HT     0.417000        1.0080           0
   40919 WT2  6414 TIP3 OH2  OT    -0.834000       15.9994           0
   40920 WT2  6414 TIP3 H1   HT     0.417000        1.0080           0
   40921 WT2  6414 TIP3 H2   HT     0.417000        1.0080           0
   40922 WT2  6415 TIP3 OH2  OT    -0.834000       15.9994           0
   40923 WT2  6415 TIP3 H1   HT     0.417000        1.0080           0
   40924 WT2  6415 TIP3 H2   HT     0.417000        1.0080           0
   40925 WT2  6416 TIP3 OH2  OT    -0.834000       15.9994           0
   40926 WT2  6416 TIP3 H1   HT     0.417000        1.0080           0
   40927 WT2  6416 TIP3 H2   HT     0.417000        1.0080           0
   40928 WT2  6417 TIP3 OH2  OT    -0.834000       15.9994           0
   40929 WT2  6417 TIP3 H1   HT     0.417000        1.0080           0
   40930 WT2  6417 TIP3 H2   HT     0.417000        1.0080           0
   40931 WT2  6418 TIP3 OH2  OT    -0.834000       15.9994           0
   40932 WT2  6418 TIP3 H1   HT     0.417000        1.0080           0
   40933 WT2  6418 TIP3 H2   HT     0.417000        1.0080           0
   40934 WT2  6419 TIP3 OH2  OT    -0.834000       15.9994           0
   40935 WT2  6419 TIP3 H1   HT     0.417000        1.0080           0
   40936 WT2  6419 TIP3 H2   HT     0.417000        1.0080           0
   40937 WT2  6420 TIP3 OH2  OT    -0.834000       15.9994           0
   40938 WT2  6420 TIP3 H1   HT     0.417000        1.0080           0
   40939 WT2  6420 TIP3 H2   HT     0.417000        1.0080           0
   40940 WT2  6421 TIP3 OH2  OT    -0.834000       15.9994           0
   40941 WT2  6421 TIP3 H1   HT     0.417000        1.0080           0
   40942 WT2  6421 TIP3 H2   HT     0.417000        1.0080           0
   40943 WT2  6422 TIP3 OH2  OT    -0.834000       15.9994           0
   40944 WT2  6422 TIP3 H1   HT     0.417000        1.0080           0
   40945 WT2  6422 TIP3 H2   HT     0.417000        1.0080           0
   40946 WT2  6423 TIP3 OH2  OT    -0.834000       15.9994           0
   40947 WT2  6423 TIP3 H1   HT     0.417000        1.0080           0
   40948 WT2  6423 TIP3 H2   HT     0.417000        1.0080           0
   40949 WT2  6424 TIP3 OH2  OT    -0.834000       15.9994           0
   40950 WT2  6424 TIP3 H1   HT     0.417000        1.0080           0
   40951 WT2  6424 TIP3 H2   HT     0.417000        1.0080           0
   40952 WT2  6425 TIP3 OH2  OT    -0.834000       15.9994           0
   40953 WT2  6425 TIP3 H1   HT     0.417000        1.0080           0
   40954 WT2  6425 TIP3 H2   HT     0.417000        1.0080           0
   40955 WT2  6427 TIP3 OH2  OT    -0.834000       15.9994           0
   40956 WT2  6427 TIP3 H1   HT     0.417000        1.0080           0
   40957 WT2  6427 TIP3 H2   HT     0.417000        1.0080           0
   40958 WT2  6428 TIP3 OH2  OT    -0.834000       15.9994           0
   40959 WT2  6428 TIP3 H1   HT     0.417000        1.0080           0
   40960 WT2  6428 TIP3 H2   HT     0.417000        1.0080           0
   40961 WT2  6429 TIP3 OH2  OT    -0.834000       15.9994           0
   40962 WT2  6429 TIP3 H1   HT     0.417000        1.0080           0
   40963 WT2  6429 TIP3 H2   HT     0.417000        1.0080           0
   40964 WT2  6430 TIP3 OH2  OT    -0.834000       15.9994           0
   40965 WT2  6430 TIP3 H1   HT     0.417000        1.0080           0
   40966 WT2  6430 TIP3 H2   HT     0.417000        1.0080           0
   40967 WT2  6431 TIP3 OH2  OT    -0.834000       15.9994           0
   40968 WT2  6431 TIP3 H1   HT     0.417000        1.0080           0
   40969 WT2  6431 TIP3 H2   HT     0.417000        1.0080           0
   40970 WT2  6432 TIP3 OH2  OT    -0.834000       15.9994           0
   40971 WT2  6432 TIP3 H1   HT     0.417000        1.0080           0
   40972 WT2  6432 TIP3 H2   HT     0.417000        1.0080           0
   40973 WT2  6433 TIP3 OH2  OT    -0.834000       15.9994           0
   40974 WT2  6433 TIP3 H1   HT     0.417000        1.0080           0
   40975 WT2  6433 TIP3 H2   HT     0.417000        1.0080           0
   40976 WT2  6434 TIP3 OH2  OT    -0.834000       15.9994           0
   40977 WT2  6434 TIP3 H1   HT     0.417000        1.0080           0
   40978 WT2  6434 TIP3 H2   HT     0.417000        1.0080           0
   40979 WT2  6435 TIP3 OH2  OT    -0.834000       15.9994           0
   40980 WT2  6435 TIP3 H1   HT     0.417000        1.0080           0
   40981 WT2  6435 TIP3 H2   HT     0.417000        1.0080           0
   40982 WT2  6437 TIP3 OH2  OT    -0.834000       15.9994           0
   40983 WT2  6437 TIP3 H1   HT     0.417000        1.0080           0
   40984 WT2  6437 TIP3 H2   HT     0.417000        1.0080           0
   40985 WT2  6438 TIP3 OH2  OT    -0.834000       15.9994           0
   40986 WT2  6438 TIP3 H1   HT     0.417000        1.0080           0
   40987 WT2  6438 TIP3 H2   HT     0.417000        1.0080           0
   40988 WT2  6442 TIP3 OH2  OT    -0.834000       15.9994           0
   40989 WT2  6442 TIP3 H1   HT     0.417000        1.0080           0
   40990 WT2  6442 TIP3 H2   HT     0.417000        1.0080           0
   40991 WT2  6443 TIP3 OH2  OT    -0.834000       15.9994           0
   40992 WT2  6443 TIP3 H1   HT     0.417000        1.0080           0
   40993 WT2  6443 TIP3 H2   HT     0.417000        1.0080           0
   40994 WT2  6444 TIP3 OH2  OT    -0.834000       15.9994           0
   40995 WT2  6444 TIP3 H1   HT     0.417000        1.0080           0
   40996 WT2  6444 TIP3 H2   HT     0.417000        1.0080           0
   40997 WT2  6446 TIP3 OH2  OT    -0.834000       15.9994           0
   40998 WT2  6446 TIP3 H1   HT     0.417000        1.0080           0
   40999 WT2  6446 TIP3 H2   HT     0.417000        1.0080           0
   41000 WT2  6447 TIP3 OH2  OT    -0.834000       15.9994           0
   41001 WT2  6447 TIP3 H1   HT     0.417000        1.0080           0
   41002 WT2  6447 TIP3 H2   HT     0.417000        1.0080           0
   41003 WT2  6448 TIP3 OH2  OT    -0.834000       15.9994           0
   41004 WT2  6448 TIP3 H1   HT     0.417000        1.0080           0
   41005 WT2  6448 TIP3 H2   HT     0.417000        1.0080           0
   41006 WT2  6450 TIP3 OH2  OT    -0.834000       15.9994           0
   41007 WT2  6450 TIP3 H1   HT     0.417000        1.0080           0
   41008 WT2  6450 TIP3 H2   HT     0.417000        1.0080           0
   41009 WT2  6451 TIP3 OH2  OT    -0.834000       15.9994           0
   41010 WT2  6451 TIP3 H1   HT     0.417000        1.0080           0
   41011 WT2  6451 TIP3 H2   HT     0.417000        1.0080           0
   41012 WT2  6452 TIP3 OH2  OT    -0.834000       15.9994           0
   41013 WT2  6452 TIP3 H1   HT     0.417000        1.0080           0
   41014 WT2  6452 TIP3 H2   HT     0.417000        1.0080           0
   41015 WT2  6454 TIP3 OH2  OT    -0.834000       15.9994           0
   41016 WT2  6454 TIP3 H1   HT     0.417000        1.0080           0
   41017 WT2  6454 TIP3 H2   HT     0.417000        1.0080           0
   41018 WT2  6455 TIP3 OH2  OT    -0.834000       15.9994           0
   41019 WT2  6455 TIP3 H1   HT     0.417000        1.0080           0
   41020 WT2  6455 TIP3 H2   HT     0.417000        1.0080           0
   41021 WT2  6457 TIP3 OH2  OT    -0.834000       15.9994           0
   41022 WT2  6457 TIP3 H1   HT     0.417000        1.0080           0
   41023 WT2  6457 TIP3 H2   HT     0.417000        1.0080           0
   41024 WT2  6459 TIP3 OH2  OT    -0.834000       15.9994           0
   41025 WT2  6459 TIP3 H1   HT     0.417000        1.0080           0
   41026 WT2  6459 TIP3 H2   HT     0.417000        1.0080           0
   41027 WT2  6460 TIP3 OH2  OT    -0.834000       15.9994           0
   41028 WT2  6460 TIP3 H1   HT     0.417000        1.0080           0
   41029 WT2  6460 TIP3 H2   HT     0.417000        1.0080           0
   41030 WT2  6461 TIP3 OH2  OT    -0.834000       15.9994           0
   41031 WT2  6461 TIP3 H1   HT     0.417000        1.0080           0
   41032 WT2  6461 TIP3 H2   HT     0.417000        1.0080           0
   41033 WT2  6462 TIP3 OH2  OT    -0.834000       15.9994           0
   41034 WT2  6462 TIP3 H1   HT     0.417000        1.0080           0
   41035 WT2  6462 TIP3 H2   HT     0.417000        1.0080           0
   41036 WT2  6463 TIP3 OH2  OT    -0.834000       15.9994           0
   41037 WT2  6463 TIP3 H1   HT     0.417000        1.0080           0
   41038 WT2  6463 TIP3 H2   HT     0.417000        1.0080           0
   41039 WT2  6464 TIP3 OH2  OT    -0.834000       15.9994           0
   41040 WT2  6464 TIP3 H1   HT     0.417000        1.0080           0
   41041 WT2  6464 TIP3 H2   HT     0.417000        1.0080           0
   41042 WT2  6465 TIP3 OH2  OT    -0.834000       15.9994           0
   41043 WT2  6465 TIP3 H1   HT     0.417000        1.0080           0
   41044 WT2  6465 TIP3 H2   HT     0.417000        1.0080           0
   41045 WT2  6467 TIP3 OH2  OT    -0.834000       15.9994           0
   41046 WT2  6467 TIP3 H1   HT     0.417000        1.0080           0
   41047 WT2  6467 TIP3 H2   HT     0.417000        1.0080           0
   41048 WT2  6469 TIP3 OH2  OT    -0.834000       15.9994           0
   41049 WT2  6469 TIP3 H1   HT     0.417000        1.0080           0
   41050 WT2  6469 TIP3 H2   HT     0.417000        1.0080           0
   41051 WT2  6470 TIP3 OH2  OT    -0.834000       15.9994           0
   41052 WT2  6470 TIP3 H1   HT     0.417000        1.0080           0
   41053 WT2  6470 TIP3 H2   HT     0.417000        1.0080           0
   41054 WT2  6471 TIP3 OH2  OT    -0.834000       15.9994           0
   41055 WT2  6471 TIP3 H1   HT     0.417000        1.0080           0
   41056 WT2  6471 TIP3 H2   HT     0.417000        1.0080           0
   41057 WT2  6472 TIP3 OH2  OT    -0.834000       15.9994           0
   41058 WT2  6472 TIP3 H1   HT     0.417000        1.0080           0
   41059 WT2  6472 TIP3 H2   HT     0.417000        1.0080           0
   41060 WT2  6474 TIP3 OH2  OT    -0.834000       15.9994           0
   41061 WT2  6474 TIP3 H1   HT     0.417000        1.0080           0
   41062 WT2  6474 TIP3 H2   HT     0.417000        1.0080           0
   41063 WT2  6475 TIP3 OH2  OT    -0.834000       15.9994           0
   41064 WT2  6475 TIP3 H1   HT     0.417000        1.0080           0
   41065 WT2  6475 TIP3 H2   HT     0.417000        1.0080           0
   41066 WT2  6476 TIP3 OH2  OT    -0.834000       15.9994           0
   41067 WT2  6476 TIP3 H1   HT     0.417000        1.0080           0
   41068 WT2  6476 TIP3 H2   HT     0.417000        1.0080           0
   41069 WT2  6477 TIP3 OH2  OT    -0.834000       15.9994           0
   41070 WT2  6477 TIP3 H1   HT     0.417000        1.0080           0
   41071 WT2  6477 TIP3 H2   HT     0.417000        1.0080           0
   41072 WT2  6479 TIP3 OH2  OT    -0.834000       15.9994           0
   41073 WT2  6479 TIP3 H1   HT     0.417000        1.0080           0
   41074 WT2  6479 TIP3 H2   HT     0.417000        1.0080           0
   41075 WT2  6480 TIP3 OH2  OT    -0.834000       15.9994           0
   41076 WT2  6480 TIP3 H1   HT     0.417000        1.0080           0
   41077 WT2  6480 TIP3 H2   HT     0.417000        1.0080           0
   41078 WT2  6481 TIP3 OH2  OT    -0.834000       15.9994           0
   41079 WT2  6481 TIP3 H1   HT     0.417000        1.0080           0
   41080 WT2  6481 TIP3 H2   HT     0.417000        1.0080           0
   41081 WT2  6482 TIP3 OH2  OT    -0.834000       15.9994           0
   41082 WT2  6482 TIP3 H1   HT     0.417000        1.0080           0
   41083 WT2  6482 TIP3 H2   HT     0.417000        1.0080           0
   41084 WT2  6486 TIP3 OH2  OT    -0.834000       15.9994           0
   41085 WT2  6486 TIP3 H1   HT     0.417000        1.0080           0
   41086 WT2  6486 TIP3 H2   HT     0.417000        1.0080           0
   41087 WT2  6487 TIP3 OH2  OT    -0.834000       15.9994           0
   41088 WT2  6487 TIP3 H1   HT     0.417000        1.0080           0
   41089 WT2  6487 TIP3 H2   HT     0.417000        1.0080           0
   41090 WT2  6488 TIP3 OH2  OT    -0.834000       15.9994           0
   41091 WT2  6488 TIP3 H1   HT     0.417000        1.0080           0
   41092 WT2  6488 TIP3 H2   HT     0.417000        1.0080           0
   41093 WT2  6489 TIP3 OH2  OT    -0.834000       15.9994           0
   41094 WT2  6489 TIP3 H1   HT     0.417000        1.0080           0
   41095 WT2  6489 TIP3 H2   HT     0.417000        1.0080           0
   41096 WT2  6490 TIP3 OH2  OT    -0.834000       15.9994           0
   41097 WT2  6490 TIP3 H1   HT     0.417000        1.0080           0
   41098 WT2  6490 TIP3 H2   HT     0.417000        1.0080           0
   41099 WT2  6491 TIP3 OH2  OT    -0.834000       15.9994           0
   41100 WT2  6491 TIP3 H1   HT     0.417000        1.0080           0
   41101 WT2  6491 TIP3 H2   HT     0.417000        1.0080           0
   41102 WT2  6492 TIP3 OH2  OT    -0.834000       15.9994           0
   41103 WT2  6492 TIP3 H1   HT     0.417000        1.0080           0
   41104 WT2  6492 TIP3 H2   HT     0.417000        1.0080           0
   41105 WT2  6493 TIP3 OH2  OT    -0.834000       15.9994           0
   41106 WT2  6493 TIP3 H1   HT     0.417000        1.0080           0
   41107 WT2  6493 TIP3 H2   HT     0.417000        1.0080           0
   41108 WT2  6494 TIP3 OH2  OT    -0.834000       15.9994           0
   41109 WT2  6494 TIP3 H1   HT     0.417000        1.0080           0
   41110 WT2  6494 TIP3 H2   HT     0.417000        1.0080           0
   41111 WT2  6495 TIP3 OH2  OT    -0.834000       15.9994           0
   41112 WT2  6495 TIP3 H1   HT     0.417000        1.0080           0
   41113 WT2  6495 TIP3 H2   HT     0.417000        1.0080           0
   41114 WT2  6496 TIP3 OH2  OT    -0.834000       15.9994           0
   41115 WT2  6496 TIP3 H1   HT     0.417000        1.0080           0
   41116 WT2  6496 TIP3 H2   HT     0.417000        1.0080           0
   41117 WT2  6497 TIP3 OH2  OT    -0.834000       15.9994           0
   41118 WT2  6497 TIP3 H1   HT     0.417000        1.0080           0
   41119 WT2  6497 TIP3 H2   HT     0.417000        1.0080           0
   41120 WT2  6498 TIP3 OH2  OT    -0.834000       15.9994           0
   41121 WT2  6498 TIP3 H1   HT     0.417000        1.0080           0
   41122 WT2  6498 TIP3 H2   HT     0.417000        1.0080           0
   41123 WT2  6499 TIP3 OH2  OT    -0.834000       15.9994           0
   41124 WT2  6499 TIP3 H1   HT     0.417000        1.0080           0
   41125 WT2  6499 TIP3 H2   HT     0.417000        1.0080           0
   41126 WT2  6500 TIP3 OH2  OT    -0.834000       15.9994           0
   41127 WT2  6500 TIP3 H1   HT     0.417000        1.0080           0
   41128 WT2  6500 TIP3 H2   HT     0.417000        1.0080           0
   41129 WT2  6501 TIP3 OH2  OT    -0.834000       15.9994           0
   41130 WT2  6501 TIP3 H1   HT     0.417000        1.0080           0
   41131 WT2  6501 TIP3 H2   HT     0.417000        1.0080           0
   41132 WT2  6502 TIP3 OH2  OT    -0.834000       15.9994           0
   41133 WT2  6502 TIP3 H1   HT     0.417000        1.0080           0
   41134 WT2  6502 TIP3 H2   HT     0.417000        1.0080           0
   41135 WT2  6503 TIP3 OH2  OT    -0.834000       15.9994           0
   41136 WT2  6503 TIP3 H1   HT     0.417000        1.0080           0
   41137 WT2  6503 TIP3 H2   HT     0.417000        1.0080           0
   41138 WT2  6505 TIP3 OH2  OT    -0.834000       15.9994           0
   41139 WT2  6505 TIP3 H1   HT     0.417000        1.0080           0
   41140 WT2  6505 TIP3 H2   HT     0.417000        1.0080           0
   41141 WT2  6506 TIP3 OH2  OT    -0.834000       15.9994           0
   41142 WT2  6506 TIP3 H1   HT     0.417000        1.0080           0
   41143 WT2  6506 TIP3 H2   HT     0.417000        1.0080           0
   41144 WT2  6507 TIP3 OH2  OT    -0.834000       15.9994           0
   41145 WT2  6507 TIP3 H1   HT     0.417000        1.0080           0
   41146 WT2  6507 TIP3 H2   HT     0.417000        1.0080           0
   41147 WT2  6508 TIP3 OH2  OT    -0.834000       15.9994           0
   41148 WT2  6508 TIP3 H1   HT     0.417000        1.0080           0
   41149 WT2  6508 TIP3 H2   HT     0.417000        1.0080           0
   41150 WT2  6510 TIP3 OH2  OT    -0.834000       15.9994           0
   41151 WT2  6510 TIP3 H1   HT     0.417000        1.0080           0
   41152 WT2  6510 TIP3 H2   HT     0.417000        1.0080           0
   41153 WT2  6511 TIP3 OH2  OT    -0.834000       15.9994           0
   41154 WT2  6511 TIP3 H1   HT     0.417000        1.0080           0
   41155 WT2  6511 TIP3 H2   HT     0.417000        1.0080           0
   41156 WT2  6512 TIP3 OH2  OT    -0.834000       15.9994           0
   41157 WT2  6512 TIP3 H1   HT     0.417000        1.0080           0
   41158 WT2  6512 TIP3 H2   HT     0.417000        1.0080           0
   41159 WT2  6513 TIP3 OH2  OT    -0.834000       15.9994           0
   41160 WT2  6513 TIP3 H1   HT     0.417000        1.0080           0
   41161 WT2  6513 TIP3 H2   HT     0.417000        1.0080           0
   41162 WT2  6514 TIP3 OH2  OT    -0.834000       15.9994           0
   41163 WT2  6514 TIP3 H1   HT     0.417000        1.0080           0
   41164 WT2  6514 TIP3 H2   HT     0.417000        1.0080           0
   41165 WT2  6516 TIP3 OH2  OT    -0.834000       15.9994           0
   41166 WT2  6516 TIP3 H1   HT     0.417000        1.0080           0
   41167 WT2  6516 TIP3 H2   HT     0.417000        1.0080           0
   41168 WT2  6517 TIP3 OH2  OT    -0.834000       15.9994           0
   41169 WT2  6517 TIP3 H1   HT     0.417000        1.0080           0
   41170 WT2  6517 TIP3 H2   HT     0.417000        1.0080           0
   41171 WT2  6520 TIP3 OH2  OT    -0.834000       15.9994           0
   41172 WT2  6520 TIP3 H1   HT     0.417000        1.0080           0
   41173 WT2  6520 TIP3 H2   HT     0.417000        1.0080           0
   41174 WT2  6522 TIP3 OH2  OT    -0.834000       15.9994           0
   41175 WT2  6522 TIP3 H1   HT     0.417000        1.0080           0
   41176 WT2  6522 TIP3 H2   HT     0.417000        1.0080           0
   41177 WT2  6523 TIP3 OH2  OT    -0.834000       15.9994           0
   41178 WT2  6523 TIP3 H1   HT     0.417000        1.0080           0
   41179 WT2  6523 TIP3 H2   HT     0.417000        1.0080           0
   41180 WT2  6524 TIP3 OH2  OT    -0.834000       15.9994           0
   41181 WT2  6524 TIP3 H1   HT     0.417000        1.0080           0
   41182 WT2  6524 TIP3 H2   HT     0.417000        1.0080           0
   41183 WT2  6525 TIP3 OH2  OT    -0.834000       15.9994           0
   41184 WT2  6525 TIP3 H1   HT     0.417000        1.0080           0
   41185 WT2  6525 TIP3 H2   HT     0.417000        1.0080           0
   41186 WT2  6526 TIP3 OH2  OT    -0.834000       15.9994           0
   41187 WT2  6526 TIP3 H1   HT     0.417000        1.0080           0
   41188 WT2  6526 TIP3 H2   HT     0.417000        1.0080           0
   41189 WT2  6527 TIP3 OH2  OT    -0.834000       15.9994           0
   41190 WT2  6527 TIP3 H1   HT     0.417000        1.0080           0
   41191 WT2  6527 TIP3 H2   HT     0.417000        1.0080           0
   41192 WT2  6528 TIP3 OH2  OT    -0.834000       15.9994           0
   41193 WT2  6528 TIP3 H1   HT     0.417000        1.0080           0
   41194 WT2  6528 TIP3 H2   HT     0.417000        1.0080           0
   41195 WT2  6530 TIP3 OH2  OT    -0.834000       15.9994           0
   41196 WT2  6530 TIP3 H1   HT     0.417000        1.0080           0
   41197 WT2  6530 TIP3 H2   HT     0.417000        1.0080           0
   41198 WT2  6531 TIP3 OH2  OT    -0.834000       15.9994           0
   41199 WT2  6531 TIP3 H1   HT     0.417000        1.0080           0
   41200 WT2  6531 TIP3 H2   HT     0.417000        1.0080           0
   41201 WT2  6532 TIP3 OH2  OT    -0.834000       15.9994           0
   41202 WT2  6532 TIP3 H1   HT     0.417000        1.0080           0
   41203 WT2  6532 TIP3 H2   HT     0.417000        1.0080           0
   41204 WT2  6534 TIP3 OH2  OT    -0.834000       15.9994           0
   41205 WT2  6534 TIP3 H1   HT     0.417000        1.0080           0
   41206 WT2  6534 TIP3 H2   HT     0.417000        1.0080           0
   41207 WT2  6535 TIP3 OH2  OT    -0.834000       15.9994           0
   41208 WT2  6535 TIP3 H1   HT     0.417000        1.0080           0
   41209 WT2  6535 TIP3 H2   HT     0.417000        1.0080           0
   41210 WT2  6536 TIP3 OH2  OT    -0.834000       15.9994           0
   41211 WT2  6536 TIP3 H1   HT     0.417000        1.0080           0
   41212 WT2  6536 TIP3 H2   HT     0.417000        1.0080           0
   41213 WT2  6537 TIP3 OH2  OT    -0.834000       15.9994           0
   41214 WT2  6537 TIP3 H1   HT     0.417000        1.0080           0
   41215 WT2  6537 TIP3 H2   HT     0.417000        1.0080           0
   41216 WT2  6538 TIP3 OH2  OT    -0.834000       15.9994           0
   41217 WT2  6538 TIP3 H1   HT     0.417000        1.0080           0
   41218 WT2  6538 TIP3 H2   HT     0.417000        1.0080           0
   41219 WT2  6539 TIP3 OH2  OT    -0.834000       15.9994           0
   41220 WT2  6539 TIP3 H1   HT     0.417000        1.0080           0
   41221 WT2  6539 TIP3 H2   HT     0.417000        1.0080           0
   41222 WT2  6540 TIP3 OH2  OT    -0.834000       15.9994           0
   41223 WT2  6540 TIP3 H1   HT     0.417000        1.0080           0
   41224 WT2  6540 TIP3 H2   HT     0.417000        1.0080           0
   41225 WT2  6541 TIP3 OH2  OT    -0.834000       15.9994           0
   41226 WT2  6541 TIP3 H1   HT     0.417000        1.0080           0
   41227 WT2  6541 TIP3 H2   HT     0.417000        1.0080           0
   41228 WT2  6543 TIP3 OH2  OT    -0.834000       15.9994           0
   41229 WT2  6543 TIP3 H1   HT     0.417000        1.0080           0
   41230 WT2  6543 TIP3 H2   HT     0.417000        1.0080           0
   41231 WT2  6544 TIP3 OH2  OT    -0.834000       15.9994           0
   41232 WT2  6544 TIP3 H1   HT     0.417000        1.0080           0
   41233 WT2  6544 TIP3 H2   HT     0.417000        1.0080           0
   41234 WT2  6545 TIP3 OH2  OT    -0.834000       15.9994           0
   41235 WT2  6545 TIP3 H1   HT     0.417000        1.0080           0
   41236 WT2  6545 TIP3 H2   HT     0.417000        1.0080           0
   41237 WT2  6546 TIP3 OH2  OT    -0.834000       15.9994           0
   41238 WT2  6546 TIP3 H1   HT     0.417000        1.0080           0
   41239 WT2  6546 TIP3 H2   HT     0.417000        1.0080           0
   41240 WT2  6548 TIP3 OH2  OT    -0.834000       15.9994           0
   41241 WT2  6548 TIP3 H1   HT     0.417000        1.0080           0
   41242 WT2  6548 TIP3 H2   HT     0.417000        1.0080           0
   41243 WT2  6550 TIP3 OH2  OT    -0.834000       15.9994           0
   41244 WT2  6550 TIP3 H1   HT     0.417000        1.0080           0
   41245 WT2  6550 TIP3 H2   HT     0.417000        1.0080           0
   41246 WT2  6551 TIP3 OH2  OT    -0.834000       15.9994           0
   41247 WT2  6551 TIP3 H1   HT     0.417000        1.0080           0
   41248 WT2  6551 TIP3 H2   HT     0.417000        1.0080           0
   41249 WT2  6552 TIP3 OH2  OT    -0.834000       15.9994           0
   41250 WT2  6552 TIP3 H1   HT     0.417000        1.0080           0
   41251 WT2  6552 TIP3 H2   HT     0.417000        1.0080           0
   41252 WT2  6553 TIP3 OH2  OT    -0.834000       15.9994           0
   41253 WT2  6553 TIP3 H1   HT     0.417000        1.0080           0
   41254 WT2  6553 TIP3 H2   HT     0.417000        1.0080           0
   41255 WT2  6554 TIP3 OH2  OT    -0.834000       15.9994           0
   41256 WT2  6554 TIP3 H1   HT     0.417000        1.0080           0
   41257 WT2  6554 TIP3 H2   HT     0.417000        1.0080           0
   41258 WT2  6555 TIP3 OH2  OT    -0.834000       15.9994           0
   41259 WT2  6555 TIP3 H1   HT     0.417000        1.0080           0
   41260 WT2  6555 TIP3 H2   HT     0.417000        1.0080           0
   41261 WT2  6556 TIP3 OH2  OT    -0.834000       15.9994           0
   41262 WT2  6556 TIP3 H1   HT     0.417000        1.0080           0
   41263 WT2  6556 TIP3 H2   HT     0.417000        1.0080           0
   41264 WT2  6557 TIP3 OH2  OT    -0.834000       15.9994           0
   41265 WT2  6557 TIP3 H1   HT     0.417000        1.0080           0
   41266 WT2  6557 TIP3 H2   HT     0.417000        1.0080           0
   41267 WT2  6558 TIP3 OH2  OT    -0.834000       15.9994           0
   41268 WT2  6558 TIP3 H1   HT     0.417000        1.0080           0
   41269 WT2  6558 TIP3 H2   HT     0.417000        1.0080           0
   41270 WT2  6559 TIP3 OH2  OT    -0.834000       15.9994           0
   41271 WT2  6559 TIP3 H1   HT     0.417000        1.0080           0
   41272 WT2  6559 TIP3 H2   HT     0.417000        1.0080           0
   41273 WT2  6560 TIP3 OH2  OT    -0.834000       15.9994           0
   41274 WT2  6560 TIP3 H1   HT     0.417000        1.0080           0
   41275 WT2  6560 TIP3 H2   HT     0.417000        1.0080           0
   41276 WT2  6561 TIP3 OH2  OT    -0.834000       15.9994           0
   41277 WT2  6561 TIP3 H1   HT     0.417000        1.0080           0
   41278 WT2  6561 TIP3 H2   HT     0.417000        1.0080           0
   41279 WT2  6563 TIP3 OH2  OT    -0.834000       15.9994           0
   41280 WT2  6563 TIP3 H1   HT     0.417000        1.0080           0
   41281 WT2  6563 TIP3 H2   HT     0.417000        1.0080           0
   41282 WT2  6564 TIP3 OH2  OT    -0.834000       15.9994           0
   41283 WT2  6564 TIP3 H1   HT     0.417000        1.0080           0
   41284 WT2  6564 TIP3 H2   HT     0.417000        1.0080           0
   41285 WT2  6565 TIP3 OH2  OT    -0.834000       15.9994           0
   41286 WT2  6565 TIP3 H1   HT     0.417000        1.0080           0
   41287 WT2  6565 TIP3 H2   HT     0.417000        1.0080           0
   41288 WT2  6567 TIP3 OH2  OT    -0.834000       15.9994           0
   41289 WT2  6567 TIP3 H1   HT     0.417000        1.0080           0
   41290 WT2  6567 TIP3 H2   HT     0.417000        1.0080           0
   41291 WT2  6568 TIP3 OH2  OT    -0.834000       15.9994           0
   41292 WT2  6568 TIP3 H1   HT     0.417000        1.0080           0
   41293 WT2  6568 TIP3 H2   HT     0.417000        1.0080           0
   41294 WT2  6569 TIP3 OH2  OT    -0.834000       15.9994           0
   41295 WT2  6569 TIP3 H1   HT     0.417000        1.0080           0
   41296 WT2  6569 TIP3 H2   HT     0.417000        1.0080           0
   41297 WT2  6570 TIP3 OH2  OT    -0.834000       15.9994           0
   41298 WT2  6570 TIP3 H1   HT     0.417000        1.0080           0
   41299 WT2  6570 TIP3 H2   HT     0.417000        1.0080           0
   41300 WT2  6571 TIP3 OH2  OT    -0.834000       15.9994           0
   41301 WT2  6571 TIP3 H1   HT     0.417000        1.0080           0
   41302 WT2  6571 TIP3 H2   HT     0.417000        1.0080           0
   41303 WT2  6572 TIP3 OH2  OT    -0.834000       15.9994           0
   41304 WT2  6572 TIP3 H1   HT     0.417000        1.0080           0
   41305 WT2  6572 TIP3 H2   HT     0.417000        1.0080           0
   41306 WT2  6573 TIP3 OH2  OT    -0.834000       15.9994           0
   41307 WT2  6573 TIP3 H1   HT     0.417000        1.0080           0
   41308 WT2  6573 TIP3 H2   HT     0.417000        1.0080           0
   41309 WT2  6574 TIP3 OH2  OT    -0.834000       15.9994           0
   41310 WT2  6574 TIP3 H1   HT     0.417000        1.0080           0
   41311 WT2  6574 TIP3 H2   HT     0.417000        1.0080           0
   41312 WT2  6575 TIP3 OH2  OT    -0.834000       15.9994           0
   41313 WT2  6575 TIP3 H1   HT     0.417000        1.0080           0
   41314 WT2  6575 TIP3 H2   HT     0.417000        1.0080           0
   41315 WT2  6576 TIP3 OH2  OT    -0.834000       15.9994           0
   41316 WT2  6576 TIP3 H1   HT     0.417000        1.0080           0
   41317 WT2  6576 TIP3 H2   HT     0.417000        1.0080           0
   41318 WT2  6577 TIP3 OH2  OT    -0.834000       15.9994           0
   41319 WT2  6577 TIP3 H1   HT     0.417000        1.0080           0
   41320 WT2  6577 TIP3 H2   HT     0.417000        1.0080           0
   41321 WT2  6578 TIP3 OH2  OT    -0.834000       15.9994           0
   41322 WT2  6578 TIP3 H1   HT     0.417000        1.0080           0
   41323 WT2  6578 TIP3 H2   HT     0.417000        1.0080           0
   41324 WT2  6579 TIP3 OH2  OT    -0.834000       15.9994           0
   41325 WT2  6579 TIP3 H1   HT     0.417000        1.0080           0
   41326 WT2  6579 TIP3 H2   HT     0.417000        1.0080           0
   41327 WT2  6580 TIP3 OH2  OT    -0.834000       15.9994           0
   41328 WT2  6580 TIP3 H1   HT     0.417000        1.0080           0
   41329 WT2  6580 TIP3 H2   HT     0.417000        1.0080           0
   41330 WT2  6581 TIP3 OH2  OT    -0.834000       15.9994           0
   41331 WT2  6581 TIP3 H1   HT     0.417000        1.0080           0
   41332 WT2  6581 TIP3 H2   HT     0.417000        1.0080           0
   41333 WT2  6583 TIP3 OH2  OT    -0.834000       15.9994           0
   41334 WT2  6583 TIP3 H1   HT     0.417000        1.0080           0
   41335 WT2  6583 TIP3 H2   HT     0.417000        1.0080           0
   41336 WT2  6585 TIP3 OH2  OT    -0.834000       15.9994           0
   41337 WT2  6585 TIP3 H1   HT     0.417000        1.0080           0
   41338 WT2  6585 TIP3 H2   HT     0.417000        1.0080           0
   41339 WT2  6586 TIP3 OH2  OT    -0.834000       15.9994           0
   41340 WT2  6586 TIP3 H1   HT     0.417000        1.0080           0
   41341 WT2  6586 TIP3 H2   HT     0.417000        1.0080           0
   41342 WT2  6587 TIP3 OH2  OT    -0.834000       15.9994           0
   41343 WT2  6587 TIP3 H1   HT     0.417000        1.0080           0
   41344 WT2  6587 TIP3 H2   HT     0.417000        1.0080           0
   41345 WT2  6589 TIP3 OH2  OT    -0.834000       15.9994           0
   41346 WT2  6589 TIP3 H1   HT     0.417000        1.0080           0
   41347 WT2  6589 TIP3 H2   HT     0.417000        1.0080           0
   41348 WT2  6590 TIP3 OH2  OT    -0.834000       15.9994           0
   41349 WT2  6590 TIP3 H1   HT     0.417000        1.0080           0
   41350 WT2  6590 TIP3 H2   HT     0.417000        1.0080           0
   41351 WT2  6592 TIP3 OH2  OT    -0.834000       15.9994           0
   41352 WT2  6592 TIP3 H1   HT     0.417000        1.0080           0
   41353 WT2  6592 TIP3 H2   HT     0.417000        1.0080           0
   41354 WT2  6593 TIP3 OH2  OT    -0.834000       15.9994           0
   41355 WT2  6593 TIP3 H1   HT     0.417000        1.0080           0
   41356 WT2  6593 TIP3 H2   HT     0.417000        1.0080           0
   41357 WT2  6595 TIP3 OH2  OT    -0.834000       15.9994           0
   41358 WT2  6595 TIP3 H1   HT     0.417000        1.0080           0
   41359 WT2  6595 TIP3 H2   HT     0.417000        1.0080           0
   41360 WT2  6596 TIP3 OH2  OT    -0.834000       15.9994           0
   41361 WT2  6596 TIP3 H1   HT     0.417000        1.0080           0
   41362 WT2  6596 TIP3 H2   HT     0.417000        1.0080           0
   41363 WT2  6597 TIP3 OH2  OT    -0.834000       15.9994           0
   41364 WT2  6597 TIP3 H1   HT     0.417000        1.0080           0
   41365 WT2  6597 TIP3 H2   HT     0.417000        1.0080           0
   41366 WT2  6598 TIP3 OH2  OT    -0.834000       15.9994           0
   41367 WT2  6598 TIP3 H1   HT     0.417000        1.0080           0
   41368 WT2  6598 TIP3 H2   HT     0.417000        1.0080           0
   41369 WT2  6599 TIP3 OH2  OT    -0.834000       15.9994           0
   41370 WT2  6599 TIP3 H1   HT     0.417000        1.0080           0
   41371 WT2  6599 TIP3 H2   HT     0.417000        1.0080           0
   41372 WT2  6600 TIP3 OH2  OT    -0.834000       15.9994           0
   41373 WT2  6600 TIP3 H1   HT     0.417000        1.0080           0
   41374 WT2  6600 TIP3 H2   HT     0.417000        1.0080           0
   41375 WT2  6601 TIP3 OH2  OT    -0.834000       15.9994           0
   41376 WT2  6601 TIP3 H1   HT     0.417000        1.0080           0
   41377 WT2  6601 TIP3 H2   HT     0.417000        1.0080           0
   41378 WT2  6602 TIP3 OH2  OT    -0.834000       15.9994           0
   41379 WT2  6602 TIP3 H1   HT     0.417000        1.0080           0
   41380 WT2  6602 TIP3 H2   HT     0.417000        1.0080           0
   41381 WT2  6603 TIP3 OH2  OT    -0.834000       15.9994           0
   41382 WT2  6603 TIP3 H1   HT     0.417000        1.0080           0
   41383 WT2  6603 TIP3 H2   HT     0.417000        1.0080           0
   41384 WT2  6604 TIP3 OH2  OT    -0.834000       15.9994           0
   41385 WT2  6604 TIP3 H1   HT     0.417000        1.0080           0
   41386 WT2  6604 TIP3 H2   HT     0.417000        1.0080           0
   41387 WT2  6605 TIP3 OH2  OT    -0.834000       15.9994           0
   41388 WT2  6605 TIP3 H1   HT     0.417000        1.0080           0
   41389 WT2  6605 TIP3 H2   HT     0.417000        1.0080           0
   41390 WT2  6606 TIP3 OH2  OT    -0.834000       15.9994           0
   41391 WT2  6606 TIP3 H1   HT     0.417000        1.0080           0
   41392 WT2  6606 TIP3 H2   HT     0.417000        1.0080           0
   41393 WT2  6607 TIP3 OH2  OT    -0.834000       15.9994           0
   41394 WT2  6607 TIP3 H1   HT     0.417000        1.0080           0
   41395 WT2  6607 TIP3 H2   HT     0.417000        1.0080           0
   41396 WT2  6608 TIP3 OH2  OT    -0.834000       15.9994           0
   41397 WT2  6608 TIP3 H1   HT     0.417000        1.0080           0
   41398 WT2  6608 TIP3 H2   HT     0.417000        1.0080           0
   41399 WT2  6609 TIP3 OH2  OT    -0.834000       15.9994           0
   41400 WT2  6609 TIP3 H1   HT     0.417000        1.0080           0
   41401 WT2  6609 TIP3 H2   HT     0.417000        1.0080           0
   41402 WT2  6610 TIP3 OH2  OT    -0.834000       15.9994           0
   41403 WT2  6610 TIP3 H1   HT     0.417000        1.0080           0
   41404 WT2  6610 TIP3 H2   HT     0.417000        1.0080           0
   41405 WT2  6611 TIP3 OH2  OT    -0.834000       15.9994           0
   41406 WT2  6611 TIP3 H1   HT     0.417000        1.0080           0
   41407 WT2  6611 TIP3 H2   HT     0.417000        1.0080           0
   41408 WT2  6612 TIP3 OH2  OT    -0.834000       15.9994           0
   41409 WT2  6612 TIP3 H1   HT     0.417000        1.0080           0
   41410 WT2  6612 TIP3 H2   HT     0.417000        1.0080           0
   41411 WT2  6613 TIP3 OH2  OT    -0.834000       15.9994           0
   41412 WT2  6613 TIP3 H1   HT     0.417000        1.0080           0
   41413 WT2  6613 TIP3 H2   HT     0.417000        1.0080           0
   41414 WT2  6614 TIP3 OH2  OT    -0.834000       15.9994           0
   41415 WT2  6614 TIP3 H1   HT     0.417000        1.0080           0
   41416 WT2  6614 TIP3 H2   HT     0.417000        1.0080           0
   41417 WT2  6615 TIP3 OH2  OT    -0.834000       15.9994           0
   41418 WT2  6615 TIP3 H1   HT     0.417000        1.0080           0
   41419 WT2  6615 TIP3 H2   HT     0.417000        1.0080           0
   41420 WT2  6617 TIP3 OH2  OT    -0.834000       15.9994           0
   41421 WT2  6617 TIP3 H1   HT     0.417000        1.0080           0
   41422 WT2  6617 TIP3 H2   HT     0.417000        1.0080           0
   41423 WT2  6618 TIP3 OH2  OT    -0.834000       15.9994           0
   41424 WT2  6618 TIP3 H1   HT     0.417000        1.0080           0
   41425 WT2  6618 TIP3 H2   HT     0.417000        1.0080           0
   41426 WT2  6620 TIP3 OH2  OT    -0.834000       15.9994           0
   41427 WT2  6620 TIP3 H1   HT     0.417000        1.0080           0
   41428 WT2  6620 TIP3 H2   HT     0.417000        1.0080           0
   41429 WT2  6621 TIP3 OH2  OT    -0.834000       15.9994           0
   41430 WT2  6621 TIP3 H1   HT     0.417000        1.0080           0
   41431 WT2  6621 TIP3 H2   HT     0.417000        1.0080           0
   41432 WT2  6622 TIP3 OH2  OT    -0.834000       15.9994           0
   41433 WT2  6622 TIP3 H1   HT     0.417000        1.0080           0
   41434 WT2  6622 TIP3 H2   HT     0.417000        1.0080           0
   41435 WT2  6624 TIP3 OH2  OT    -0.834000       15.9994           0
   41436 WT2  6624 TIP3 H1   HT     0.417000        1.0080           0
   41437 WT2  6624 TIP3 H2   HT     0.417000        1.0080           0
   41438 WT2  6625 TIP3 OH2  OT    -0.834000       15.9994           0
   41439 WT2  6625 TIP3 H1   HT     0.417000        1.0080           0
   41440 WT2  6625 TIP3 H2   HT     0.417000        1.0080           0
   41441 WT2  6626 TIP3 OH2  OT    -0.834000       15.9994           0
   41442 WT2  6626 TIP3 H1   HT     0.417000        1.0080           0
   41443 WT2  6626 TIP3 H2   HT     0.417000        1.0080           0
   41444 WT2  6627 TIP3 OH2  OT    -0.834000       15.9994           0
   41445 WT2  6627 TIP3 H1   HT     0.417000        1.0080           0
   41446 WT2  6627 TIP3 H2   HT     0.417000        1.0080           0
   41447 WT2  6628 TIP3 OH2  OT    -0.834000       15.9994           0
   41448 WT2  6628 TIP3 H1   HT     0.417000        1.0080           0
   41449 WT2  6628 TIP3 H2   HT     0.417000        1.0080           0
   41450 WT2  6629 TIP3 OH2  OT    -0.834000       15.9994           0
   41451 WT2  6629 TIP3 H1   HT     0.417000        1.0080           0
   41452 WT2  6629 TIP3 H2   HT     0.417000        1.0080           0
   41453 WT2  6631 TIP3 OH2  OT    -0.834000       15.9994           0
   41454 WT2  6631 TIP3 H1   HT     0.417000        1.0080           0
   41455 WT2  6631 TIP3 H2   HT     0.417000        1.0080           0
   41456 WT2  6632 TIP3 OH2  OT    -0.834000       15.9994           0
   41457 WT2  6632 TIP3 H1   HT     0.417000        1.0080           0
   41458 WT2  6632 TIP3 H2   HT     0.417000        1.0080           0
   41459 WT2  6633 TIP3 OH2  OT    -0.834000       15.9994           0
   41460 WT2  6633 TIP3 H1   HT     0.417000        1.0080           0
   41461 WT2  6633 TIP3 H2   HT     0.417000        1.0080           0
   41462 WT2  6636 TIP3 OH2  OT    -0.834000       15.9994           0
   41463 WT2  6636 TIP3 H1   HT     0.417000        1.0080           0
   41464 WT2  6636 TIP3 H2   HT     0.417000        1.0080           0
   41465 WT2  6637 TIP3 OH2  OT    -0.834000       15.9994           0
   41466 WT2  6637 TIP3 H1   HT     0.417000        1.0080           0
   41467 WT2  6637 TIP3 H2   HT     0.417000        1.0080           0
   41468 WT2  6638 TIP3 OH2  OT    -0.834000       15.9994           0
   41469 WT2  6638 TIP3 H1   HT     0.417000        1.0080           0
   41470 WT2  6638 TIP3 H2   HT     0.417000        1.0080           0
   41471 WT2  6639 TIP3 OH2  OT    -0.834000       15.9994           0
   41472 WT2  6639 TIP3 H1   HT     0.417000        1.0080           0
   41473 WT2  6639 TIP3 H2   HT     0.417000        1.0080           0
   41474 WT2  6640 TIP3 OH2  OT    -0.834000       15.9994           0
   41475 WT2  6640 TIP3 H1   HT     0.417000        1.0080           0
   41476 WT2  6640 TIP3 H2   HT     0.417000        1.0080           0
   41477 WT2  6641 TIP3 OH2  OT    -0.834000       15.9994           0
   41478 WT2  6641 TIP3 H1   HT     0.417000        1.0080           0
   41479 WT2  6641 TIP3 H2   HT     0.417000        1.0080           0
   41480 WT2  6643 TIP3 OH2  OT    -0.834000       15.9994           0
   41481 WT2  6643 TIP3 H1   HT     0.417000        1.0080           0
   41482 WT2  6643 TIP3 H2   HT     0.417000        1.0080           0
   41483 WT2  6644 TIP3 OH2  OT    -0.834000       15.9994           0
   41484 WT2  6644 TIP3 H1   HT     0.417000        1.0080           0
   41485 WT2  6644 TIP3 H2   HT     0.417000        1.0080           0
   41486 WT2  6645 TIP3 OH2  OT    -0.834000       15.9994           0
   41487 WT2  6645 TIP3 H1   HT     0.417000        1.0080           0
   41488 WT2  6645 TIP3 H2   HT     0.417000        1.0080           0
   41489 WT2  6646 TIP3 OH2  OT    -0.834000       15.9994           0
   41490 WT2  6646 TIP3 H1   HT     0.417000        1.0080           0
   41491 WT2  6646 TIP3 H2   HT     0.417000        1.0080           0
   41492 WT2  6647 TIP3 OH2  OT    -0.834000       15.9994           0
   41493 WT2  6647 TIP3 H1   HT     0.417000        1.0080           0
   41494 WT2  6647 TIP3 H2   HT     0.417000        1.0080           0
   41495 WT2  6648 TIP3 OH2  OT    -0.834000       15.9994           0
   41496 WT2  6648 TIP3 H1   HT     0.417000        1.0080           0
   41497 WT2  6648 TIP3 H2   HT     0.417000        1.0080           0
   41498 WT2  6649 TIP3 OH2  OT    -0.834000       15.9994           0
   41499 WT2  6649 TIP3 H1   HT     0.417000        1.0080           0
   41500 WT2  6649 TIP3 H2   HT     0.417000        1.0080           0
   41501 WT2  6650 TIP3 OH2  OT    -0.834000       15.9994           0
   41502 WT2  6650 TIP3 H1   HT     0.417000        1.0080           0
   41503 WT2  6650 TIP3 H2   HT     0.417000        1.0080           0
   41504 WT2  6651 TIP3 OH2  OT    -0.834000       15.9994           0
   41505 WT2  6651 TIP3 H1   HT     0.417000        1.0080           0
   41506 WT2  6651 TIP3 H2   HT     0.417000        1.0080           0
   41507 WT2  6652 TIP3 OH2  OT    -0.834000       15.9994           0
   41508 WT2  6652 TIP3 H1   HT     0.417000        1.0080           0
   41509 WT2  6652 TIP3 H2   HT     0.417000        1.0080           0
   41510 WT2  6653 TIP3 OH2  OT    -0.834000       15.9994           0
   41511 WT2  6653 TIP3 H1   HT     0.417000        1.0080           0
   41512 WT2  6653 TIP3 H2   HT     0.417000        1.0080           0
   41513 WT2  6654 TIP3 OH2  OT    -0.834000       15.9994           0
   41514 WT2  6654 TIP3 H1   HT     0.417000        1.0080           0
   41515 WT2  6654 TIP3 H2   HT     0.417000        1.0080           0
   41516 WT2  6655 TIP3 OH2  OT    -0.834000       15.9994           0
   41517 WT2  6655 TIP3 H1   HT     0.417000        1.0080           0
   41518 WT2  6655 TIP3 H2   HT     0.417000        1.0080           0
   41519 WT2  6656 TIP3 OH2  OT    -0.834000       15.9994           0
   41520 WT2  6656 TIP3 H1   HT     0.417000        1.0080           0
   41521 WT2  6656 TIP3 H2   HT     0.417000        1.0080           0
   41522 WT2  6657 TIP3 OH2  OT    -0.834000       15.9994           0
   41523 WT2  6657 TIP3 H1   HT     0.417000        1.0080           0
   41524 WT2  6657 TIP3 H2   HT     0.417000        1.0080           0
   41525 WT2  6658 TIP3 OH2  OT    -0.834000       15.9994           0
   41526 WT2  6658 TIP3 H1   HT     0.417000        1.0080           0
   41527 WT2  6658 TIP3 H2   HT     0.417000        1.0080           0
   41528 WT2  6659 TIP3 OH2  OT    -0.834000       15.9994           0
   41529 WT2  6659 TIP3 H1   HT     0.417000        1.0080           0
   41530 WT2  6659 TIP3 H2   HT     0.417000        1.0080           0
   41531 WT2  6660 TIP3 OH2  OT    -0.834000       15.9994           0
   41532 WT2  6660 TIP3 H1   HT     0.417000        1.0080           0
   41533 WT2  6660 TIP3 H2   HT     0.417000        1.0080           0
   41534 WT2  6661 TIP3 OH2  OT    -0.834000       15.9994           0
   41535 WT2  6661 TIP3 H1   HT     0.417000        1.0080           0
   41536 WT2  6661 TIP3 H2   HT     0.417000        1.0080           0
   41537 WT2  6662 TIP3 OH2  OT    -0.834000       15.9994           0
   41538 WT2  6662 TIP3 H1   HT     0.417000        1.0080           0
   41539 WT2  6662 TIP3 H2   HT     0.417000        1.0080           0
   41540 WT2  6663 TIP3 OH2  OT    -0.834000       15.9994           0
   41541 WT2  6663 TIP3 H1   HT     0.417000        1.0080           0
   41542 WT2  6663 TIP3 H2   HT     0.417000        1.0080           0
   41543 WT2  6664 TIP3 OH2  OT    -0.834000       15.9994           0
   41544 WT2  6664 TIP3 H1   HT     0.417000        1.0080           0
   41545 WT2  6664 TIP3 H2   HT     0.417000        1.0080           0
   41546 WT2  6665 TIP3 OH2  OT    -0.834000       15.9994           0
   41547 WT2  6665 TIP3 H1   HT     0.417000        1.0080           0
   41548 WT2  6665 TIP3 H2   HT     0.417000        1.0080           0
   41549 WT2  6666 TIP3 OH2  OT    -0.834000       15.9994           0
   41550 WT2  6666 TIP3 H1   HT     0.417000        1.0080           0
   41551 WT2  6666 TIP3 H2   HT     0.417000        1.0080           0
   41552 WT2  6667 TIP3 OH2  OT    -0.834000       15.9994           0
   41553 WT2  6667 TIP3 H1   HT     0.417000        1.0080           0
   41554 WT2  6667 TIP3 H2   HT     0.417000        1.0080           0
   41555 WT2  6668 TIP3 OH2  OT    -0.834000       15.9994           0
   41556 WT2  6668 TIP3 H1   HT     0.417000        1.0080           0
   41557 WT2  6668 TIP3 H2   HT     0.417000        1.0080           0
   41558 WT2  6669 TIP3 OH2  OT    -0.834000       15.9994           0
   41559 WT2  6669 TIP3 H1   HT     0.417000        1.0080           0
   41560 WT2  6669 TIP3 H2   HT     0.417000        1.0080           0
   41561 WT2  6670 TIP3 OH2  OT    -0.834000       15.9994           0
   41562 WT2  6670 TIP3 H1   HT     0.417000        1.0080           0
   41563 WT2  6670 TIP3 H2   HT     0.417000        1.0080           0
   41564 WT2  6671 TIP3 OH2  OT    -0.834000       15.9994           0
   41565 WT2  6671 TIP3 H1   HT     0.417000        1.0080           0
   41566 WT2  6671 TIP3 H2   HT     0.417000        1.0080           0
   41567 WT2  6673 TIP3 OH2  OT    -0.834000       15.9994           0
   41568 WT2  6673 TIP3 H1   HT     0.417000        1.0080           0
   41569 WT2  6673 TIP3 H2   HT     0.417000        1.0080           0
   41570 WT2  6674 TIP3 OH2  OT    -0.834000       15.9994           0
   41571 WT2  6674 TIP3 H1   HT     0.417000        1.0080           0
   41572 WT2  6674 TIP3 H2   HT     0.417000        1.0080           0
   41573 WT2  6676 TIP3 OH2  OT    -0.834000       15.9994           0
   41574 WT2  6676 TIP3 H1   HT     0.417000        1.0080           0
   41575 WT2  6676 TIP3 H2   HT     0.417000        1.0080           0
   41576 WT2  6678 TIP3 OH2  OT    -0.834000       15.9994           0
   41577 WT2  6678 TIP3 H1   HT     0.417000        1.0080           0
   41578 WT2  6678 TIP3 H2   HT     0.417000        1.0080           0
   41579 WT2  6679 TIP3 OH2  OT    -0.834000       15.9994           0
   41580 WT2  6679 TIP3 H1   HT     0.417000        1.0080           0
   41581 WT2  6679 TIP3 H2   HT     0.417000        1.0080           0
   41582 WT2  6680 TIP3 OH2  OT    -0.834000       15.9994           0
   41583 WT2  6680 TIP3 H1   HT     0.417000        1.0080           0
   41584 WT2  6680 TIP3 H2   HT     0.417000        1.0080           0
   41585 WT2  6681 TIP3 OH2  OT    -0.834000       15.9994           0
   41586 WT2  6681 TIP3 H1   HT     0.417000        1.0080           0
   41587 WT2  6681 TIP3 H2   HT     0.417000        1.0080           0
   41588 WT2  6683 TIP3 OH2  OT    -0.834000       15.9994           0
   41589 WT2  6683 TIP3 H1   HT     0.417000        1.0080           0
   41590 WT2  6683 TIP3 H2   HT     0.417000        1.0080           0
   41591 WT2  6684 TIP3 OH2  OT    -0.834000       15.9994           0
   41592 WT2  6684 TIP3 H1   HT     0.417000        1.0080           0
   41593 WT2  6684 TIP3 H2   HT     0.417000        1.0080           0
   41594 WT2  6685 TIP3 OH2  OT    -0.834000       15.9994           0
   41595 WT2  6685 TIP3 H1   HT     0.417000        1.0080           0
   41596 WT2  6685 TIP3 H2   HT     0.417000        1.0080           0
   41597 WT2  6686 TIP3 OH2  OT    -0.834000       15.9994           0
   41598 WT2  6686 TIP3 H1   HT     0.417000        1.0080           0
   41599 WT2  6686 TIP3 H2   HT     0.417000        1.0080           0
   41600 WT2  6687 TIP3 OH2  OT    -0.834000       15.9994           0
   41601 WT2  6687 TIP3 H1   HT     0.417000        1.0080           0
   41602 WT2  6687 TIP3 H2   HT     0.417000        1.0080           0
   41603 WT2  6688 TIP3 OH2  OT    -0.834000       15.9994           0
   41604 WT2  6688 TIP3 H1   HT     0.417000        1.0080           0
   41605 WT2  6688 TIP3 H2   HT     0.417000        1.0080           0
   41606 WT2  6690 TIP3 OH2  OT    -0.834000       15.9994           0
   41607 WT2  6690 TIP3 H1   HT     0.417000        1.0080           0
   41608 WT2  6690 TIP3 H2   HT     0.417000        1.0080           0
   41609 WT2  6691 TIP3 OH2  OT    -0.834000       15.9994           0
   41610 WT2  6691 TIP3 H1   HT     0.417000        1.0080           0
   41611 WT2  6691 TIP3 H2   HT     0.417000        1.0080           0
   41612 WT2  6692 TIP3 OH2  OT    -0.834000       15.9994           0
   41613 WT2  6692 TIP3 H1   HT     0.417000        1.0080           0
   41614 WT2  6692 TIP3 H2   HT     0.417000        1.0080           0
   41615 WT2  6693 TIP3 OH2  OT    -0.834000       15.9994           0
   41616 WT2  6693 TIP3 H1   HT     0.417000        1.0080           0
   41617 WT2  6693 TIP3 H2   HT     0.417000        1.0080           0
   41618 WT2  6695 TIP3 OH2  OT    -0.834000       15.9994           0
   41619 WT2  6695 TIP3 H1   HT     0.417000        1.0080           0
   41620 WT2  6695 TIP3 H2   HT     0.417000        1.0080           0
   41621 WT2  6696 TIP3 OH2  OT    -0.834000       15.9994           0
   41622 WT2  6696 TIP3 H1   HT     0.417000        1.0080           0
   41623 WT2  6696 TIP3 H2   HT     0.417000        1.0080           0
   41624 WT2  6697 TIP3 OH2  OT    -0.834000       15.9994           0
   41625 WT2  6697 TIP3 H1   HT     0.417000        1.0080           0
   41626 WT2  6697 TIP3 H2   HT     0.417000        1.0080           0
   41627 WT2  6698 TIP3 OH2  OT    -0.834000       15.9994           0
   41628 WT2  6698 TIP3 H1   HT     0.417000        1.0080           0
   41629 WT2  6698 TIP3 H2   HT     0.417000        1.0080           0
   41630 WT2  6699 TIP3 OH2  OT    -0.834000       15.9994           0
   41631 WT2  6699 TIP3 H1   HT     0.417000        1.0080           0
   41632 WT2  6699 TIP3 H2   HT     0.417000        1.0080           0
   41633 WT2  6701 TIP3 OH2  OT    -0.834000       15.9994           0
   41634 WT2  6701 TIP3 H1   HT     0.417000        1.0080           0
   41635 WT2  6701 TIP3 H2   HT     0.417000        1.0080           0
   41636 WT2  6703 TIP3 OH2  OT    -0.834000       15.9994           0
   41637 WT2  6703 TIP3 H1   HT     0.417000        1.0080           0
   41638 WT2  6703 TIP3 H2   HT     0.417000        1.0080           0
   41639 WT2  6704 TIP3 OH2  OT    -0.834000       15.9994           0
   41640 WT2  6704 TIP3 H1   HT     0.417000        1.0080           0
   41641 WT2  6704 TIP3 H2   HT     0.417000        1.0080           0
   41642 WT2  6705 TIP3 OH2  OT    -0.834000       15.9994           0
   41643 WT2  6705 TIP3 H1   HT     0.417000        1.0080           0
   41644 WT2  6705 TIP3 H2   HT     0.417000        1.0080           0
   41645 WT2  6706 TIP3 OH2  OT    -0.834000       15.9994           0
   41646 WT2  6706 TIP3 H1   HT     0.417000        1.0080           0
   41647 WT2  6706 TIP3 H2   HT     0.417000        1.0080           0
   41648 WT2  6709 TIP3 OH2  OT    -0.834000       15.9994           0
   41649 WT2  6709 TIP3 H1   HT     0.417000        1.0080           0
   41650 WT2  6709 TIP3 H2   HT     0.417000        1.0080           0
   41651 WT2  6710 TIP3 OH2  OT    -0.834000       15.9994           0
   41652 WT2  6710 TIP3 H1   HT     0.417000        1.0080           0
   41653 WT2  6710 TIP3 H2   HT     0.417000        1.0080           0
   41654 WT2  6711 TIP3 OH2  OT    -0.834000       15.9994           0
   41655 WT2  6711 TIP3 H1   HT     0.417000        1.0080           0
   41656 WT2  6711 TIP3 H2   HT     0.417000        1.0080           0
   41657 WT2  6712 TIP3 OH2  OT    -0.834000       15.9994           0
   41658 WT2  6712 TIP3 H1   HT     0.417000        1.0080           0
   41659 WT2  6712 TIP3 H2   HT     0.417000        1.0080           0
   41660 WT2  6713 TIP3 OH2  OT    -0.834000       15.9994           0
   41661 WT2  6713 TIP3 H1   HT     0.417000        1.0080           0
   41662 WT2  6713 TIP3 H2   HT     0.417000        1.0080           0
   41663 WT2  6714 TIP3 OH2  OT    -0.834000       15.9994           0
   41664 WT2  6714 TIP3 H1   HT     0.417000        1.0080           0
   41665 WT2  6714 TIP3 H2   HT     0.417000        1.0080           0
   41666 WT2  6715 TIP3 OH2  OT    -0.834000       15.9994           0
   41667 WT2  6715 TIP3 H1   HT     0.417000        1.0080           0
   41668 WT2  6715 TIP3 H2   HT     0.417000        1.0080           0
   41669 WT2  6716 TIP3 OH2  OT    -0.834000       15.9994           0
   41670 WT2  6716 TIP3 H1   HT     0.417000        1.0080           0
   41671 WT2  6716 TIP3 H2   HT     0.417000        1.0080           0
   41672 WT2  6717 TIP3 OH2  OT    -0.834000       15.9994           0
   41673 WT2  6717 TIP3 H1   HT     0.417000        1.0080           0
   41674 WT2  6717 TIP3 H2   HT     0.417000        1.0080           0
   41675 WT2  6718 TIP3 OH2  OT    -0.834000       15.9994           0
   41676 WT2  6718 TIP3 H1   HT     0.417000        1.0080           0
   41677 WT2  6718 TIP3 H2   HT     0.417000        1.0080           0
   41678 WT2  6719 TIP3 OH2  OT    -0.834000       15.9994           0
   41679 WT2  6719 TIP3 H1   HT     0.417000        1.0080           0
   41680 WT2  6719 TIP3 H2   HT     0.417000        1.0080           0
   41681 WT2  6720 TIP3 OH2  OT    -0.834000       15.9994           0
   41682 WT2  6720 TIP3 H1   HT     0.417000        1.0080           0
   41683 WT2  6720 TIP3 H2   HT     0.417000        1.0080           0
   41684 WT2  6721 TIP3 OH2  OT    -0.834000       15.9994           0
   41685 WT2  6721 TIP3 H1   HT     0.417000        1.0080           0
   41686 WT2  6721 TIP3 H2   HT     0.417000        1.0080           0
   41687 WT2  6722 TIP3 OH2  OT    -0.834000       15.9994           0
   41688 WT2  6722 TIP3 H1   HT     0.417000        1.0080           0
   41689 WT2  6722 TIP3 H2   HT     0.417000        1.0080           0
   41690 WT2  6724 TIP3 OH2  OT    -0.834000       15.9994           0
   41691 WT2  6724 TIP3 H1   HT     0.417000        1.0080           0
   41692 WT2  6724 TIP3 H2   HT     0.417000        1.0080           0
   41693 WT2  6725 TIP3 OH2  OT    -0.834000       15.9994           0
   41694 WT2  6725 TIP3 H1   HT     0.417000        1.0080           0
   41695 WT2  6725 TIP3 H2   HT     0.417000        1.0080           0
   41696 WT2  6726 TIP3 OH2  OT    -0.834000       15.9994           0
   41697 WT2  6726 TIP3 H1   HT     0.417000        1.0080           0
   41698 WT2  6726 TIP3 H2   HT     0.417000        1.0080           0
   41699 WT2  6727 TIP3 OH2  OT    -0.834000       15.9994           0
   41700 WT2  6727 TIP3 H1   HT     0.417000        1.0080           0
   41701 WT2  6727 TIP3 H2   HT     0.417000        1.0080           0
   41702 WT2  6728 TIP3 OH2  OT    -0.834000       15.9994           0
   41703 WT2  6728 TIP3 H1   HT     0.417000        1.0080           0
   41704 WT2  6728 TIP3 H2   HT     0.417000        1.0080           0
   41705 WT2  6729 TIP3 OH2  OT    -0.834000       15.9994           0
   41706 WT2  6729 TIP3 H1   HT     0.417000        1.0080           0
   41707 WT2  6729 TIP3 H2   HT     0.417000        1.0080           0
   41708 WT2  6730 TIP3 OH2  OT    -0.834000       15.9994           0
   41709 WT2  6730 TIP3 H1   HT     0.417000        1.0080           0
   41710 WT2  6730 TIP3 H2   HT     0.417000        1.0080           0
   41711 WT2  6731 TIP3 OH2  OT    -0.834000       15.9994           0
   41712 WT2  6731 TIP3 H1   HT     0.417000        1.0080           0
   41713 WT2  6731 TIP3 H2   HT     0.417000        1.0080           0
   41714 WT2  6732 TIP3 OH2  OT    -0.834000       15.9994           0
   41715 WT2  6732 TIP3 H1   HT     0.417000        1.0080           0
   41716 WT2  6732 TIP3 H2   HT     0.417000        1.0080           0
   41717 WT2  6733 TIP3 OH2  OT    -0.834000       15.9994           0
   41718 WT2  6733 TIP3 H1   HT     0.417000        1.0080           0
   41719 WT2  6733 TIP3 H2   HT     0.417000        1.0080           0
   41720 WT2  6734 TIP3 OH2  OT    -0.834000       15.9994           0
   41721 WT2  6734 TIP3 H1   HT     0.417000        1.0080           0
   41722 WT2  6734 TIP3 H2   HT     0.417000        1.0080           0
   41723 WT2  6735 TIP3 OH2  OT    -0.834000       15.9994           0
   41724 WT2  6735 TIP3 H1   HT     0.417000        1.0080           0
   41725 WT2  6735 TIP3 H2   HT     0.417000        1.0080           0
   41726 WT2  6736 TIP3 OH2  OT    -0.834000       15.9994           0
   41727 WT2  6736 TIP3 H1   HT     0.417000        1.0080           0
   41728 WT2  6736 TIP3 H2   HT     0.417000        1.0080           0
   41729 WT2  6737 TIP3 OH2  OT    -0.834000       15.9994           0
   41730 WT2  6737 TIP3 H1   HT     0.417000        1.0080           0
   41731 WT2  6737 TIP3 H2   HT     0.417000        1.0080           0
   41732 WT2  6739 TIP3 OH2  OT    -0.834000       15.9994           0
   41733 WT2  6739 TIP3 H1   HT     0.417000        1.0080           0
   41734 WT2  6739 TIP3 H2   HT     0.417000        1.0080           0
   41735 WT2  6740 TIP3 OH2  OT    -0.834000       15.9994           0
   41736 WT2  6740 TIP3 H1   HT     0.417000        1.0080           0
   41737 WT2  6740 TIP3 H2   HT     0.417000        1.0080           0
   41738 WT2  6741 TIP3 OH2  OT    -0.834000       15.9994           0
   41739 WT2  6741 TIP3 H1   HT     0.417000        1.0080           0
   41740 WT2  6741 TIP3 H2   HT     0.417000        1.0080           0
   41741 WT2  6742 TIP3 OH2  OT    -0.834000       15.9994           0
   41742 WT2  6742 TIP3 H1   HT     0.417000        1.0080           0
   41743 WT2  6742 TIP3 H2   HT     0.417000        1.0080           0
   41744 WT2  6743 TIP3 OH2  OT    -0.834000       15.9994           0
   41745 WT2  6743 TIP3 H1   HT     0.417000        1.0080           0
   41746 WT2  6743 TIP3 H2   HT     0.417000        1.0080           0
   41747 WT2  6744 TIP3 OH2  OT    -0.834000       15.9994           0
   41748 WT2  6744 TIP3 H1   HT     0.417000        1.0080           0
   41749 WT2  6744 TIP3 H2   HT     0.417000        1.0080           0
   41750 WT2  6745 TIP3 OH2  OT    -0.834000       15.9994           0
   41751 WT2  6745 TIP3 H1   HT     0.417000        1.0080           0
   41752 WT2  6745 TIP3 H2   HT     0.417000        1.0080           0
   41753 WT2  6746 TIP3 OH2  OT    -0.834000       15.9994           0
   41754 WT2  6746 TIP3 H1   HT     0.417000        1.0080           0
   41755 WT2  6746 TIP3 H2   HT     0.417000        1.0080           0
   41756 WT2  6747 TIP3 OH2  OT    -0.834000       15.9994           0
   41757 WT2  6747 TIP3 H1   HT     0.417000        1.0080           0
   41758 WT2  6747 TIP3 H2   HT     0.417000        1.0080           0
   41759 WT2  6748 TIP3 OH2  OT    -0.834000       15.9994           0
   41760 WT2  6748 TIP3 H1   HT     0.417000        1.0080           0
   41761 WT2  6748 TIP3 H2   HT     0.417000        1.0080           0
   41762 WT2  6749 TIP3 OH2  OT    -0.834000       15.9994           0
   41763 WT2  6749 TIP3 H1   HT     0.417000        1.0080           0
   41764 WT2  6749 TIP3 H2   HT     0.417000        1.0080           0
   41765 WT2  6750 TIP3 OH2  OT    -0.834000       15.9994           0
   41766 WT2  6750 TIP3 H1   HT     0.417000        1.0080           0
   41767 WT2  6750 TIP3 H2   HT     0.417000        1.0080           0
   41768 WT2  6751 TIP3 OH2  OT    -0.834000       15.9994           0
   41769 WT2  6751 TIP3 H1   HT     0.417000        1.0080           0
   41770 WT2  6751 TIP3 H2   HT     0.417000        1.0080           0
   41771 WT2  6752 TIP3 OH2  OT    -0.834000       15.9994           0
   41772 WT2  6752 TIP3 H1   HT     0.417000        1.0080           0
   41773 WT2  6752 TIP3 H2   HT     0.417000        1.0080           0
   41774 WT2  6753 TIP3 OH2  OT    -0.834000       15.9994           0
   41775 WT2  6753 TIP3 H1   HT     0.417000        1.0080           0
   41776 WT2  6753 TIP3 H2   HT     0.417000        1.0080           0
   41777 WT2  6754 TIP3 OH2  OT    -0.834000       15.9994           0
   41778 WT2  6754 TIP3 H1   HT     0.417000        1.0080           0
   41779 WT2  6754 TIP3 H2   HT     0.417000        1.0080           0
   41780 WT2  6755 TIP3 OH2  OT    -0.834000       15.9994           0
   41781 WT2  6755 TIP3 H1   HT     0.417000        1.0080           0
   41782 WT2  6755 TIP3 H2   HT     0.417000        1.0080           0
   41783 WT2  6756 TIP3 OH2  OT    -0.834000       15.9994           0
   41784 WT2  6756 TIP3 H1   HT     0.417000        1.0080           0
   41785 WT2  6756 TIP3 H2   HT     0.417000        1.0080           0
   41786 WT2  6757 TIP3 OH2  OT    -0.834000       15.9994           0
   41787 WT2  6757 TIP3 H1   HT     0.417000        1.0080           0
   41788 WT2  6757 TIP3 H2   HT     0.417000        1.0080           0
   41789 WT2  6758 TIP3 OH2  OT    -0.834000       15.9994           0
   41790 WT2  6758 TIP3 H1   HT     0.417000        1.0080           0
   41791 WT2  6758 TIP3 H2   HT     0.417000        1.0080           0
   41792 WT2  6759 TIP3 OH2  OT    -0.834000       15.9994           0
   41793 WT2  6759 TIP3 H1   HT     0.417000        1.0080           0
   41794 WT2  6759 TIP3 H2   HT     0.417000        1.0080           0
   41795 WT2  6760 TIP3 OH2  OT    -0.834000       15.9994           0
   41796 WT2  6760 TIP3 H1   HT     0.417000        1.0080           0
   41797 WT2  6760 TIP3 H2   HT     0.417000        1.0080           0
   41798 WT2  6761 TIP3 OH2  OT    -0.834000       15.9994           0
   41799 WT2  6761 TIP3 H1   HT     0.417000        1.0080           0
   41800 WT2  6761 TIP3 H2   HT     0.417000        1.0080           0
   41801 WT2  6762 TIP3 OH2  OT    -0.834000       15.9994           0
   41802 WT2  6762 TIP3 H1   HT     0.417000        1.0080           0
   41803 WT2  6762 TIP3 H2   HT     0.417000        1.0080           0
   41804 WT2  6763 TIP3 OH2  OT    -0.834000       15.9994           0
   41805 WT2  6763 TIP3 H1   HT     0.417000        1.0080           0
   41806 WT2  6763 TIP3 H2   HT     0.417000        1.0080           0
   41807 WT2  6764 TIP3 OH2  OT    -0.834000       15.9994           0
   41808 WT2  6764 TIP3 H1   HT     0.417000        1.0080           0
   41809 WT2  6764 TIP3 H2   HT     0.417000        1.0080           0
   41810 WT2  6765 TIP3 OH2  OT    -0.834000       15.9994           0
   41811 WT2  6765 TIP3 H1   HT     0.417000        1.0080           0
   41812 WT2  6765 TIP3 H2   HT     0.417000        1.0080           0
   41813 WT2  6766 TIP3 OH2  OT    -0.834000       15.9994           0
   41814 WT2  6766 TIP3 H1   HT     0.417000        1.0080           0
   41815 WT2  6766 TIP3 H2   HT     0.417000        1.0080           0
   41816 WT2  6767 TIP3 OH2  OT    -0.834000       15.9994           0
   41817 WT2  6767 TIP3 H1   HT     0.417000        1.0080           0
   41818 WT2  6767 TIP3 H2   HT     0.417000        1.0080           0
   41819 WT2  6768 TIP3 OH2  OT    -0.834000       15.9994           0
   41820 WT2  6768 TIP3 H1   HT     0.417000        1.0080           0
   41821 WT2  6768 TIP3 H2   HT     0.417000        1.0080           0
   41822 WT2  6769 TIP3 OH2  OT    -0.834000       15.9994           0
   41823 WT2  6769 TIP3 H1   HT     0.417000        1.0080           0
   41824 WT2  6769 TIP3 H2   HT     0.417000        1.0080           0
   41825 WT2  6770 TIP3 OH2  OT    -0.834000       15.9994           0
   41826 WT2  6770 TIP3 H1   HT     0.417000        1.0080           0
   41827 WT2  6770 TIP3 H2   HT     0.417000        1.0080           0
   41828 WT2  6771 TIP3 OH2  OT    -0.834000       15.9994           0
   41829 WT2  6771 TIP3 H1   HT     0.417000        1.0080           0
   41830 WT2  6771 TIP3 H2   HT     0.417000        1.0080           0
   41831 WT2  6772 TIP3 OH2  OT    -0.834000       15.9994           0
   41832 WT2  6772 TIP3 H1   HT     0.417000        1.0080           0
   41833 WT2  6772 TIP3 H2   HT     0.417000        1.0080           0
   41834 WT2  6773 TIP3 OH2  OT    -0.834000       15.9994           0
   41835 WT2  6773 TIP3 H1   HT     0.417000        1.0080           0
   41836 WT2  6773 TIP3 H2   HT     0.417000        1.0080           0
   41837 WT2  6774 TIP3 OH2  OT    -0.834000       15.9994           0
   41838 WT2  6774 TIP3 H1   HT     0.417000        1.0080           0
   41839 WT2  6774 TIP3 H2   HT     0.417000        1.0080           0
   41840 WT2  6775 TIP3 OH2  OT    -0.834000       15.9994           0
   41841 WT2  6775 TIP3 H1   HT     0.417000        1.0080           0
   41842 WT2  6775 TIP3 H2   HT     0.417000        1.0080           0
   41843 WT2  6776 TIP3 OH2  OT    -0.834000       15.9994           0
   41844 WT2  6776 TIP3 H1   HT     0.417000        1.0080           0
   41845 WT2  6776 TIP3 H2   HT     0.417000        1.0080           0
   41846 WT2  6777 TIP3 OH2  OT    -0.834000       15.9994           0
   41847 WT2  6777 TIP3 H1   HT     0.417000        1.0080           0
   41848 WT2  6777 TIP3 H2   HT     0.417000        1.0080           0
   41849 WT2  6780 TIP3 OH2  OT    -0.834000       15.9994           0
   41850 WT2  6780 TIP3 H1   HT     0.417000        1.0080           0
   41851 WT2  6780 TIP3 H2   HT     0.417000        1.0080           0
   41852 WT2  6782 TIP3 OH2  OT    -0.834000       15.9994           0
   41853 WT2  6782 TIP3 H1   HT     0.417000        1.0080           0
   41854 WT2  6782 TIP3 H2   HT     0.417000        1.0080           0
   41855 WT2  6783 TIP3 OH2  OT    -0.834000       15.9994           0
   41856 WT2  6783 TIP3 H1   HT     0.417000        1.0080           0
   41857 WT2  6783 TIP3 H2   HT     0.417000        1.0080           0
   41858 WT2  6785 TIP3 OH2  OT    -0.834000       15.9994           0
   41859 WT2  6785 TIP3 H1   HT     0.417000        1.0080           0
   41860 WT2  6785 TIP3 H2   HT     0.417000        1.0080           0
   41861 WT2  6786 TIP3 OH2  OT    -0.834000       15.9994           0
   41862 WT2  6786 TIP3 H1   HT     0.417000        1.0080           0
   41863 WT2  6786 TIP3 H2   HT     0.417000        1.0080           0
   41864 WT2  6787 TIP3 OH2  OT    -0.834000       15.9994           0
   41865 WT2  6787 TIP3 H1   HT     0.417000        1.0080           0
   41866 WT2  6787 TIP3 H2   HT     0.417000        1.0080           0
   41867 WT2  6788 TIP3 OH2  OT    -0.834000       15.9994           0
   41868 WT2  6788 TIP3 H1   HT     0.417000        1.0080           0
   41869 WT2  6788 TIP3 H2   HT     0.417000        1.0080           0
   41870 WT2  6790 TIP3 OH2  OT    -0.834000       15.9994           0
   41871 WT2  6790 TIP3 H1   HT     0.417000        1.0080           0
   41872 WT2  6790 TIP3 H2   HT     0.417000        1.0080           0
   41873 WT2  6791 TIP3 OH2  OT    -0.834000       15.9994           0
   41874 WT2  6791 TIP3 H1   HT     0.417000        1.0080           0
   41875 WT2  6791 TIP3 H2   HT     0.417000        1.0080           0
   41876 WT2  6792 TIP3 OH2  OT    -0.834000       15.9994           0
   41877 WT2  6792 TIP3 H1   HT     0.417000        1.0080           0
   41878 WT2  6792 TIP3 H2   HT     0.417000        1.0080           0
   41879 WT2  6793 TIP3 OH2  OT    -0.834000       15.9994           0
   41880 WT2  6793 TIP3 H1   HT     0.417000        1.0080           0
   41881 WT2  6793 TIP3 H2   HT     0.417000        1.0080           0
   41882 WT2  6794 TIP3 OH2  OT    -0.834000       15.9994           0
   41883 WT2  6794 TIP3 H1   HT     0.417000        1.0080           0
   41884 WT2  6794 TIP3 H2   HT     0.417000        1.0080           0
   41885 WT2  6796 TIP3 OH2  OT    -0.834000       15.9994           0
   41886 WT2  6796 TIP3 H1   HT     0.417000        1.0080           0
   41887 WT2  6796 TIP3 H2   HT     0.417000        1.0080           0
   41888 WT2  6798 TIP3 OH2  OT    -0.834000       15.9994           0
   41889 WT2  6798 TIP3 H1   HT     0.417000        1.0080           0
   41890 WT2  6798 TIP3 H2   HT     0.417000        1.0080           0
   41891 WT2  6800 TIP3 OH2  OT    -0.834000       15.9994           0
   41892 WT2  6800 TIP3 H1   HT     0.417000        1.0080           0
   41893 WT2  6800 TIP3 H2   HT     0.417000        1.0080           0
   41894 WT2  6801 TIP3 OH2  OT    -0.834000       15.9994           0
   41895 WT2  6801 TIP3 H1   HT     0.417000        1.0080           0
   41896 WT2  6801 TIP3 H2   HT     0.417000        1.0080           0
   41897 WT2  6803 TIP3 OH2  OT    -0.834000       15.9994           0
   41898 WT2  6803 TIP3 H1   HT     0.417000        1.0080           0
   41899 WT2  6803 TIP3 H2   HT     0.417000        1.0080           0
   41900 WT2  6804 TIP3 OH2  OT    -0.834000       15.9994           0
   41901 WT2  6804 TIP3 H1   HT     0.417000        1.0080           0
   41902 WT2  6804 TIP3 H2   HT     0.417000        1.0080           0
   41903 WT2  6805 TIP3 OH2  OT    -0.834000       15.9994           0
   41904 WT2  6805 TIP3 H1   HT     0.417000        1.0080           0
   41905 WT2  6805 TIP3 H2   HT     0.417000        1.0080           0
   41906 WT2  6806 TIP3 OH2  OT    -0.834000       15.9994           0
   41907 WT2  6806 TIP3 H1   HT     0.417000        1.0080           0
   41908 WT2  6806 TIP3 H2   HT     0.417000        1.0080           0
   41909 WT2  6807 TIP3 OH2  OT    -0.834000       15.9994           0
   41910 WT2  6807 TIP3 H1   HT     0.417000        1.0080           0
   41911 WT2  6807 TIP3 H2   HT     0.417000        1.0080           0
   41912 WT2  6808 TIP3 OH2  OT    -0.834000       15.9994           0
   41913 WT2  6808 TIP3 H1   HT     0.417000        1.0080           0
   41914 WT2  6808 TIP3 H2   HT     0.417000        1.0080           0
   41915 WT2  6809 TIP3 OH2  OT    -0.834000       15.9994           0
   41916 WT2  6809 TIP3 H1   HT     0.417000        1.0080           0
   41917 WT2  6809 TIP3 H2   HT     0.417000        1.0080           0
   41918 WT2  6810 TIP3 OH2  OT    -0.834000       15.9994           0
   41919 WT2  6810 TIP3 H1   HT     0.417000        1.0080           0
   41920 WT2  6810 TIP3 H2   HT     0.417000        1.0080           0
   41921 WT2  6811 TIP3 OH2  OT    -0.834000       15.9994           0
   41922 WT2  6811 TIP3 H1   HT     0.417000        1.0080           0
   41923 WT2  6811 TIP3 H2   HT     0.417000        1.0080           0
   41924 WT2  6812 TIP3 OH2  OT    -0.834000       15.9994           0
   41925 WT2  6812 TIP3 H1   HT     0.417000        1.0080           0
   41926 WT2  6812 TIP3 H2   HT     0.417000        1.0080           0
   41927 WT2  6813 TIP3 OH2  OT    -0.834000       15.9994           0
   41928 WT2  6813 TIP3 H1   HT     0.417000        1.0080           0
   41929 WT2  6813 TIP3 H2   HT     0.417000        1.0080           0
   41930 WT2  6814 TIP3 OH2  OT    -0.834000       15.9994           0
   41931 WT2  6814 TIP3 H1   HT     0.417000        1.0080           0
   41932 WT2  6814 TIP3 H2   HT     0.417000        1.0080           0
   41933 WT2  6815 TIP3 OH2  OT    -0.834000       15.9994           0
   41934 WT2  6815 TIP3 H1   HT     0.417000        1.0080           0
   41935 WT2  6815 TIP3 H2   HT     0.417000        1.0080           0
   41936 WT2  6816 TIP3 OH2  OT    -0.834000       15.9994           0
   41937 WT2  6816 TIP3 H1   HT     0.417000        1.0080           0
   41938 WT2  6816 TIP3 H2   HT     0.417000        1.0080           0
   41939 WT2  6817 TIP3 OH2  OT    -0.834000       15.9994           0
   41940 WT2  6817 TIP3 H1   HT     0.417000        1.0080           0
   41941 WT2  6817 TIP3 H2   HT     0.417000        1.0080           0
   41942 WT2  6818 TIP3 OH2  OT    -0.834000       15.9994           0
   41943 WT2  6818 TIP3 H1   HT     0.417000        1.0080           0
   41944 WT2  6818 TIP3 H2   HT     0.417000        1.0080           0
   41945 WT2  6819 TIP3 OH2  OT    -0.834000       15.9994           0
   41946 WT2  6819 TIP3 H1   HT     0.417000        1.0080           0
   41947 WT2  6819 TIP3 H2   HT     0.417000        1.0080           0
   41948 WT2  6820 TIP3 OH2  OT    -0.834000       15.9994           0
   41949 WT2  6820 TIP3 H1   HT     0.417000        1.0080           0
   41950 WT2  6820 TIP3 H2   HT     0.417000        1.0080           0
   41951 WT2  6822 TIP3 OH2  OT    -0.834000       15.9994           0
   41952 WT2  6822 TIP3 H1   HT     0.417000        1.0080           0
   41953 WT2  6822 TIP3 H2   HT     0.417000        1.0080           0
   41954 WT2  6823 TIP3 OH2  OT    -0.834000       15.9994           0
   41955 WT2  6823 TIP3 H1   HT     0.417000        1.0080           0
   41956 WT2  6823 TIP3 H2   HT     0.417000        1.0080           0
   41957 WT2  6824 TIP3 OH2  OT    -0.834000       15.9994           0
   41958 WT2  6824 TIP3 H1   HT     0.417000        1.0080           0
   41959 WT2  6824 TIP3 H2   HT     0.417000        1.0080           0
   41960 WT2  6825 TIP3 OH2  OT    -0.834000       15.9994           0
   41961 WT2  6825 TIP3 H1   HT     0.417000        1.0080           0
   41962 WT2  6825 TIP3 H2   HT     0.417000        1.0080           0
   41963 WT2  6826 TIP3 OH2  OT    -0.834000       15.9994           0
   41964 WT2  6826 TIP3 H1   HT     0.417000        1.0080           0
   41965 WT2  6826 TIP3 H2   HT     0.417000        1.0080           0
   41966 WT2  6827 TIP3 OH2  OT    -0.834000       15.9994           0
   41967 WT2  6827 TIP3 H1   HT     0.417000        1.0080           0
   41968 WT2  6827 TIP3 H2   HT     0.417000        1.0080           0
   41969 WT2  6828 TIP3 OH2  OT    -0.834000       15.9994           0
   41970 WT2  6828 TIP3 H1   HT     0.417000        1.0080           0
   41971 WT2  6828 TIP3 H2   HT     0.417000        1.0080           0
   41972 WT2  6829 TIP3 OH2  OT    -0.834000       15.9994           0
   41973 WT2  6829 TIP3 H1   HT     0.417000        1.0080           0
   41974 WT2  6829 TIP3 H2   HT     0.417000        1.0080           0
   41975 WT2  6830 TIP3 OH2  OT    -0.834000       15.9994           0
   41976 WT2  6830 TIP3 H1   HT     0.417000        1.0080           0
   41977 WT2  6830 TIP3 H2   HT     0.417000        1.0080           0
   41978 WT2  6831 TIP3 OH2  OT    -0.834000       15.9994           0
   41979 WT2  6831 TIP3 H1   HT     0.417000        1.0080           0
   41980 WT2  6831 TIP3 H2   HT     0.417000        1.0080           0
   41981 WT2  6833 TIP3 OH2  OT    -0.834000       15.9994           0
   41982 WT2  6833 TIP3 H1   HT     0.417000        1.0080           0
   41983 WT2  6833 TIP3 H2   HT     0.417000        1.0080           0
   41984 WT2  6834 TIP3 OH2  OT    -0.834000       15.9994           0
   41985 WT2  6834 TIP3 H1   HT     0.417000        1.0080           0
   41986 WT2  6834 TIP3 H2   HT     0.417000        1.0080           0
   41987 WT2  6836 TIP3 OH2  OT    -0.834000       15.9994           0
   41988 WT2  6836 TIP3 H1   HT     0.417000        1.0080           0
   41989 WT2  6836 TIP3 H2   HT     0.417000        1.0080           0
   41990 WT2  6837 TIP3 OH2  OT    -0.834000       15.9994           0
   41991 WT2  6837 TIP3 H1   HT     0.417000        1.0080           0
   41992 WT2  6837 TIP3 H2   HT     0.417000        1.0080           0
   41993 WT2  6838 TIP3 OH2  OT    -0.834000       15.9994           0
   41994 WT2  6838 TIP3 H1   HT     0.417000        1.0080           0
   41995 WT2  6838 TIP3 H2   HT     0.417000        1.0080           0
   41996 WT2  6839 TIP3 OH2  OT    -0.834000       15.9994           0
   41997 WT2  6839 TIP3 H1   HT     0.417000        1.0080           0
   41998 WT2  6839 TIP3 H2   HT     0.417000        1.0080           0
   41999 WT2  6840 TIP3 OH2  OT    -0.834000       15.9994           0
   42000 WT2  6840 TIP3 H1   HT     0.417000        1.0080           0
   42001 WT2  6840 TIP3 H2   HT     0.417000        1.0080           0
   42002 WT2  6841 TIP3 OH2  OT    -0.834000       15.9994           0
   42003 WT2  6841 TIP3 H1   HT     0.417000        1.0080           0
   42004 WT2  6841 TIP3 H2   HT     0.417000        1.0080           0
   42005 WT2  6842 TIP3 OH2  OT    -0.834000       15.9994           0
   42006 WT2  6842 TIP3 H1   HT     0.417000        1.0080           0
   42007 WT2  6842 TIP3 H2   HT     0.417000        1.0080           0
   42008 WT2  6843 TIP3 OH2  OT    -0.834000       15.9994           0
   42009 WT2  6843 TIP3 H1   HT     0.417000        1.0080           0
   42010 WT2  6843 TIP3 H2   HT     0.417000        1.0080           0
   42011 WT2  6845 TIP3 OH2  OT    -0.834000       15.9994           0
   42012 WT2  6845 TIP3 H1   HT     0.417000        1.0080           0
   42013 WT2  6845 TIP3 H2   HT     0.417000        1.0080           0
   42014 WT2  6847 TIP3 OH2  OT    -0.834000       15.9994           0
   42015 WT2  6847 TIP3 H1   HT     0.417000        1.0080           0
   42016 WT2  6847 TIP3 H2   HT     0.417000        1.0080           0
   42017 WT2  6849 TIP3 OH2  OT    -0.834000       15.9994           0
   42018 WT2  6849 TIP3 H1   HT     0.417000        1.0080           0
   42019 WT2  6849 TIP3 H2   HT     0.417000        1.0080           0
   42020 WT2  6850 TIP3 OH2  OT    -0.834000       15.9994           0
   42021 WT2  6850 TIP3 H1   HT     0.417000        1.0080           0
   42022 WT2  6850 TIP3 H2   HT     0.417000        1.0080           0
   42023 WT2  6853 TIP3 OH2  OT    -0.834000       15.9994           0
   42024 WT2  6853 TIP3 H1   HT     0.417000        1.0080           0
   42025 WT2  6853 TIP3 H2   HT     0.417000        1.0080           0
   42026 WT2  6855 TIP3 OH2  OT    -0.834000       15.9994           0
   42027 WT2  6855 TIP3 H1   HT     0.417000        1.0080           0
   42028 WT2  6855 TIP3 H2   HT     0.417000        1.0080           0
   42029 WT2  6856 TIP3 OH2  OT    -0.834000       15.9994           0
   42030 WT2  6856 TIP3 H1   HT     0.417000        1.0080           0
   42031 WT2  6856 TIP3 H2   HT     0.417000        1.0080           0
   42032 WT2  6857 TIP3 OH2  OT    -0.834000       15.9994           0
   42033 WT2  6857 TIP3 H1   HT     0.417000        1.0080           0
   42034 WT2  6857 TIP3 H2   HT     0.417000        1.0080           0
   42035 WT2  6858 TIP3 OH2  OT    -0.834000       15.9994           0
   42036 WT2  6858 TIP3 H1   HT     0.417000        1.0080           0
   42037 WT2  6858 TIP3 H2   HT     0.417000        1.0080           0
   42038 WT2  6860 TIP3 OH2  OT    -0.834000       15.9994           0
   42039 WT2  6860 TIP3 H1   HT     0.417000        1.0080           0
   42040 WT2  6860 TIP3 H2   HT     0.417000        1.0080           0
   42041 WT2  6861 TIP3 OH2  OT    -0.834000       15.9994           0
   42042 WT2  6861 TIP3 H1   HT     0.417000        1.0080           0
   42043 WT2  6861 TIP3 H2   HT     0.417000        1.0080           0
   42044 WT2  6862 TIP3 OH2  OT    -0.834000       15.9994           0
   42045 WT2  6862 TIP3 H1   HT     0.417000        1.0080           0
   42046 WT2  6862 TIP3 H2   HT     0.417000        1.0080           0
   42047 WT2  6863 TIP3 OH2  OT    -0.834000       15.9994           0
   42048 WT2  6863 TIP3 H1   HT     0.417000        1.0080           0
   42049 WT2  6863 TIP3 H2   HT     0.417000        1.0080           0
   42050 WT2  6864 TIP3 OH2  OT    -0.834000       15.9994           0
   42051 WT2  6864 TIP3 H1   HT     0.417000        1.0080           0
   42052 WT2  6864 TIP3 H2   HT     0.417000        1.0080           0
   42053 WT2  6865 TIP3 OH2  OT    -0.834000       15.9994           0
   42054 WT2  6865 TIP3 H1   HT     0.417000        1.0080           0
   42055 WT2  6865 TIP3 H2   HT     0.417000        1.0080           0
   42056 WT2  6866 TIP3 OH2  OT    -0.834000       15.9994           0
   42057 WT2  6866 TIP3 H1   HT     0.417000        1.0080           0
   42058 WT2  6866 TIP3 H2   HT     0.417000        1.0080           0
   42059 WT2  6868 TIP3 OH2  OT    -0.834000       15.9994           0
   42060 WT2  6868 TIP3 H1   HT     0.417000        1.0080           0
   42061 WT2  6868 TIP3 H2   HT     0.417000        1.0080           0
   42062 WT2  6869 TIP3 OH2  OT    -0.834000       15.9994           0
   42063 WT2  6869 TIP3 H1   HT     0.417000        1.0080           0
   42064 WT2  6869 TIP3 H2   HT     0.417000        1.0080           0
   42065 WT2  6870 TIP3 OH2  OT    -0.834000       15.9994           0
   42066 WT2  6870 TIP3 H1   HT     0.417000        1.0080           0
   42067 WT2  6870 TIP3 H2   HT     0.417000        1.0080           0
   42068 WT2  6872 TIP3 OH2  OT    -0.834000       15.9994           0
   42069 WT2  6872 TIP3 H1   HT     0.417000        1.0080           0
   42070 WT2  6872 TIP3 H2   HT     0.417000        1.0080           0
   42071 WT2  6873 TIP3 OH2  OT    -0.834000       15.9994           0
   42072 WT2  6873 TIP3 H1   HT     0.417000        1.0080           0
   42073 WT2  6873 TIP3 H2   HT     0.417000        1.0080           0
   42074 WT2  6874 TIP3 OH2  OT    -0.834000       15.9994           0
   42075 WT2  6874 TIP3 H1   HT     0.417000        1.0080           0
   42076 WT2  6874 TIP3 H2   HT     0.417000        1.0080           0
   42077 WT2  6875 TIP3 OH2  OT    -0.834000       15.9994           0
   42078 WT2  6875 TIP3 H1   HT     0.417000        1.0080           0
   42079 WT2  6875 TIP3 H2   HT     0.417000        1.0080           0
   42080 WT2  6876 TIP3 OH2  OT    -0.834000       15.9994           0
   42081 WT2  6876 TIP3 H1   HT     0.417000        1.0080           0
   42082 WT2  6876 TIP3 H2   HT     0.417000        1.0080           0
   42083 WT2  6878 TIP3 OH2  OT    -0.834000       15.9994           0
   42084 WT2  6878 TIP3 H1   HT     0.417000        1.0080           0
   42085 WT2  6878 TIP3 H2   HT     0.417000        1.0080           0
   42086 WT2  6879 TIP3 OH2  OT    -0.834000       15.9994           0
   42087 WT2  6879 TIP3 H1   HT     0.417000        1.0080           0
   42088 WT2  6879 TIP3 H2   HT     0.417000        1.0080           0
   42089 WT2  6880 TIP3 OH2  OT    -0.834000       15.9994           0
   42090 WT2  6880 TIP3 H1   HT     0.417000        1.0080           0
   42091 WT2  6880 TIP3 H2   HT     0.417000        1.0080           0
   42092 WT2  6881 TIP3 OH2  OT    -0.834000       15.9994           0
   42093 WT2  6881 TIP3 H1   HT     0.417000        1.0080           0
   42094 WT2  6881 TIP3 H2   HT     0.417000        1.0080           0
   42095 WT2  6883 TIP3 OH2  OT    -0.834000       15.9994           0
   42096 WT2  6883 TIP3 H1   HT     0.417000        1.0080           0
   42097 WT2  6883 TIP3 H2   HT     0.417000        1.0080           0
   42098 WT2  6884 TIP3 OH2  OT    -0.834000       15.9994           0
   42099 WT2  6884 TIP3 H1   HT     0.417000        1.0080           0
   42100 WT2  6884 TIP3 H2   HT     0.417000        1.0080           0
   42101 WT2  6886 TIP3 OH2  OT    -0.834000       15.9994           0
   42102 WT2  6886 TIP3 H1   HT     0.417000        1.0080           0
   42103 WT2  6886 TIP3 H2   HT     0.417000        1.0080           0
   42104 WT2  6887 TIP3 OH2  OT    -0.834000       15.9994           0
   42105 WT2  6887 TIP3 H1   HT     0.417000        1.0080           0
   42106 WT2  6887 TIP3 H2   HT     0.417000        1.0080           0
   42107 WT2  6888 TIP3 OH2  OT    -0.834000       15.9994           0
   42108 WT2  6888 TIP3 H1   HT     0.417000        1.0080           0
   42109 WT2  6888 TIP3 H2   HT     0.417000        1.0080           0
   42110 WT2  6889 TIP3 OH2  OT    -0.834000       15.9994           0
   42111 WT2  6889 TIP3 H1   HT     0.417000        1.0080           0
   42112 WT2  6889 TIP3 H2   HT     0.417000        1.0080           0
   42113 WT2  6891 TIP3 OH2  OT    -0.834000       15.9994           0
   42114 WT2  6891 TIP3 H1   HT     0.417000        1.0080           0
   42115 WT2  6891 TIP3 H2   HT     0.417000        1.0080           0
   42116 WT2  6892 TIP3 OH2  OT    -0.834000       15.9994           0
   42117 WT2  6892 TIP3 H1   HT     0.417000        1.0080           0
   42118 WT2  6892 TIP3 H2   HT     0.417000        1.0080           0
   42119 WT2  6893 TIP3 OH2  OT    -0.834000       15.9994           0
   42120 WT2  6893 TIP3 H1   HT     0.417000        1.0080           0
   42121 WT2  6893 TIP3 H2   HT     0.417000        1.0080           0
   42122 WT2  6894 TIP3 OH2  OT    -0.834000       15.9994           0
   42123 WT2  6894 TIP3 H1   HT     0.417000        1.0080           0
   42124 WT2  6894 TIP3 H2   HT     0.417000        1.0080           0
   42125 WT2  6895 TIP3 OH2  OT    -0.834000       15.9994           0
   42126 WT2  6895 TIP3 H1   HT     0.417000        1.0080           0
   42127 WT2  6895 TIP3 H2   HT     0.417000        1.0080           0
   42128 WT2  6896 TIP3 OH2  OT    -0.834000       15.9994           0
   42129 WT2  6896 TIP3 H1   HT     0.417000        1.0080           0
   42130 WT2  6896 TIP3 H2   HT     0.417000        1.0080           0
   42131 WT2  6898 TIP3 OH2  OT    -0.834000       15.9994           0
   42132 WT2  6898 TIP3 H1   HT     0.417000        1.0080           0
   42133 WT2  6898 TIP3 H2   HT     0.417000        1.0080           0
   42134 WT2  6899 TIP3 OH2  OT    -0.834000       15.9994           0
   42135 WT2  6899 TIP3 H1   HT     0.417000        1.0080           0
   42136 WT2  6899 TIP3 H2   HT     0.417000        1.0080           0
   42137 WT2  6900 TIP3 OH2  OT    -0.834000       15.9994           0
   42138 WT2  6900 TIP3 H1   HT     0.417000        1.0080           0
   42139 WT2  6900 TIP3 H2   HT     0.417000        1.0080           0
   42140 WT2  6902 TIP3 OH2  OT    -0.834000       15.9994           0
   42141 WT2  6902 TIP3 H1   HT     0.417000        1.0080           0
   42142 WT2  6902 TIP3 H2   HT     0.417000        1.0080           0
   42143 WT2  6903 TIP3 OH2  OT    -0.834000       15.9994           0
   42144 WT2  6903 TIP3 H1   HT     0.417000        1.0080           0
   42145 WT2  6903 TIP3 H2   HT     0.417000        1.0080           0
   42146 WT2  6906 TIP3 OH2  OT    -0.834000       15.9994           0
   42147 WT2  6906 TIP3 H1   HT     0.417000        1.0080           0
   42148 WT2  6906 TIP3 H2   HT     0.417000        1.0080           0
   42149 WT2  6907 TIP3 OH2  OT    -0.834000       15.9994           0
   42150 WT2  6907 TIP3 H1   HT     0.417000        1.0080           0
   42151 WT2  6907 TIP3 H2   HT     0.417000        1.0080           0
   42152 WT2  6908 TIP3 OH2  OT    -0.834000       15.9994           0
   42153 WT2  6908 TIP3 H1   HT     0.417000        1.0080           0
   42154 WT2  6908 TIP3 H2   HT     0.417000        1.0080           0
   42155 WT2  6910 TIP3 OH2  OT    -0.834000       15.9994           0
   42156 WT2  6910 TIP3 H1   HT     0.417000        1.0080           0
   42157 WT2  6910 TIP3 H2   HT     0.417000        1.0080           0
   42158 WT2  6911 TIP3 OH2  OT    -0.834000       15.9994           0
   42159 WT2  6911 TIP3 H1   HT     0.417000        1.0080           0
   42160 WT2  6911 TIP3 H2   HT     0.417000        1.0080           0
   42161 WT2  6912 TIP3 OH2  OT    -0.834000       15.9994           0
   42162 WT2  6912 TIP3 H1   HT     0.417000        1.0080           0
   42163 WT2  6912 TIP3 H2   HT     0.417000        1.0080           0
   42164 WT2  6913 TIP3 OH2  OT    -0.834000       15.9994           0
   42165 WT2  6913 TIP3 H1   HT     0.417000        1.0080           0
   42166 WT2  6913 TIP3 H2   HT     0.417000        1.0080           0
   42167 WT2  6914 TIP3 OH2  OT    -0.834000       15.9994           0
   42168 WT2  6914 TIP3 H1   HT     0.417000        1.0080           0
   42169 WT2  6914 TIP3 H2   HT     0.417000        1.0080           0
   42170 WT2  6915 TIP3 OH2  OT    -0.834000       15.9994           0
   42171 WT2  6915 TIP3 H1   HT     0.417000        1.0080           0
   42172 WT2  6915 TIP3 H2   HT     0.417000        1.0080           0
   42173 WT2  6916 TIP3 OH2  OT    -0.834000       15.9994           0
   42174 WT2  6916 TIP3 H1   HT     0.417000        1.0080           0
   42175 WT2  6916 TIP3 H2   HT     0.417000        1.0080           0
   42176 WT2  6918 TIP3 OH2  OT    -0.834000       15.9994           0
   42177 WT2  6918 TIP3 H1   HT     0.417000        1.0080           0
   42178 WT2  6918 TIP3 H2   HT     0.417000        1.0080           0
   42179 WT2  6919 TIP3 OH2  OT    -0.834000       15.9994           0
   42180 WT2  6919 TIP3 H1   HT     0.417000        1.0080           0
   42181 WT2  6919 TIP3 H2   HT     0.417000        1.0080           0
   42182 WT2  6920 TIP3 OH2  OT    -0.834000       15.9994           0
   42183 WT2  6920 TIP3 H1   HT     0.417000        1.0080           0
   42184 WT2  6920 TIP3 H2   HT     0.417000        1.0080           0
   42185 WT2  6922 TIP3 OH2  OT    -0.834000       15.9994           0
   42186 WT2  6922 TIP3 H1   HT     0.417000        1.0080           0
   42187 WT2  6922 TIP3 H2   HT     0.417000        1.0080           0
   42188 WT2  6923 TIP3 OH2  OT    -0.834000       15.9994           0
   42189 WT2  6923 TIP3 H1   HT     0.417000        1.0080           0
   42190 WT2  6923 TIP3 H2   HT     0.417000        1.0080           0
   42191 WT2  6924 TIP3 OH2  OT    -0.834000       15.9994           0
   42192 WT2  6924 TIP3 H1   HT     0.417000        1.0080           0
   42193 WT2  6924 TIP3 H2   HT     0.417000        1.0080           0
   42194 WT2  6925 TIP3 OH2  OT    -0.834000       15.9994           0
   42195 WT2  6925 TIP3 H1   HT     0.417000        1.0080           0
   42196 WT2  6925 TIP3 H2   HT     0.417000        1.0080           0
   42197 WT2  6926 TIP3 OH2  OT    -0.834000       15.9994           0
   42198 WT2  6926 TIP3 H1   HT     0.417000        1.0080           0
   42199 WT2  6926 TIP3 H2   HT     0.417000        1.0080           0
   42200 WT2  6927 TIP3 OH2  OT    -0.834000       15.9994           0
   42201 WT2  6927 TIP3 H1   HT     0.417000        1.0080           0
   42202 WT2  6927 TIP3 H2   HT     0.417000        1.0080           0
   42203 WT2  6928 TIP3 OH2  OT    -0.834000       15.9994           0
   42204 WT2  6928 TIP3 H1   HT     0.417000        1.0080           0
   42205 WT2  6928 TIP3 H2   HT     0.417000        1.0080           0
   42206 WT2  6929 TIP3 OH2  OT    -0.834000       15.9994           0
   42207 WT2  6929 TIP3 H1   HT     0.417000        1.0080           0
   42208 WT2  6929 TIP3 H2   HT     0.417000        1.0080           0
   42209 WT2  6930 TIP3 OH2  OT    -0.834000       15.9994           0
   42210 WT2  6930 TIP3 H1   HT     0.417000        1.0080           0
   42211 WT2  6930 TIP3 H2   HT     0.417000        1.0080           0
   42212 WT2  6931 TIP3 OH2  OT    -0.834000       15.9994           0
   42213 WT2  6931 TIP3 H1   HT     0.417000        1.0080           0
   42214 WT2  6931 TIP3 H2   HT     0.417000        1.0080           0
   42215 WT2  6932 TIP3 OH2  OT    -0.834000       15.9994           0
   42216 WT2  6932 TIP3 H1   HT     0.417000        1.0080           0
   42217 WT2  6932 TIP3 H2   HT     0.417000        1.0080           0
   42218 WT2  6933 TIP3 OH2  OT    -0.834000       15.9994           0
   42219 WT2  6933 TIP3 H1   HT     0.417000        1.0080           0
   42220 WT2  6933 TIP3 H2   HT     0.417000        1.0080           0
   42221 WT2  6934 TIP3 OH2  OT    -0.834000       15.9994           0
   42222 WT2  6934 TIP3 H1   HT     0.417000        1.0080           0
   42223 WT2  6934 TIP3 H2   HT     0.417000        1.0080           0
   42224 WT2  6935 TIP3 OH2  OT    -0.834000       15.9994           0
   42225 WT2  6935 TIP3 H1   HT     0.417000        1.0080           0
   42226 WT2  6935 TIP3 H2   HT     0.417000        1.0080           0
   42227 WT2  6937 TIP3 OH2  OT    -0.834000       15.9994           0
   42228 WT2  6937 TIP3 H1   HT     0.417000        1.0080           0
   42229 WT2  6937 TIP3 H2   HT     0.417000        1.0080           0
   42230 WT2  6938 TIP3 OH2  OT    -0.834000       15.9994           0
   42231 WT2  6938 TIP3 H1   HT     0.417000        1.0080           0
   42232 WT2  6938 TIP3 H2   HT     0.417000        1.0080           0
   42233 WT2  6939 TIP3 OH2  OT    -0.834000       15.9994           0
   42234 WT2  6939 TIP3 H1   HT     0.417000        1.0080           0
   42235 WT2  6939 TIP3 H2   HT     0.417000        1.0080           0
   42236 WT2  6940 TIP3 OH2  OT    -0.834000       15.9994           0
   42237 WT2  6940 TIP3 H1   HT     0.417000        1.0080           0
   42238 WT2  6940 TIP3 H2   HT     0.417000        1.0080           0
   42239 WT2  6941 TIP3 OH2  OT    -0.834000       15.9994           0
   42240 WT2  6941 TIP3 H1   HT     0.417000        1.0080           0
   42241 WT2  6941 TIP3 H2   HT     0.417000        1.0080           0
   42242 WT2  6942 TIP3 OH2  OT    -0.834000       15.9994           0
   42243 WT2  6942 TIP3 H1   HT     0.417000        1.0080           0
   42244 WT2  6942 TIP3 H2   HT     0.417000        1.0080           0
   42245 WT2  6943 TIP3 OH2  OT    -0.834000       15.9994           0
   42246 WT2  6943 TIP3 H1   HT     0.417000        1.0080           0
   42247 WT2  6943 TIP3 H2   HT     0.417000        1.0080           0
   42248 WT2  6944 TIP3 OH2  OT    -0.834000       15.9994           0
   42249 WT2  6944 TIP3 H1   HT     0.417000        1.0080           0
   42250 WT2  6944 TIP3 H2   HT     0.417000        1.0080           0
   42251 WT2  6946 TIP3 OH2  OT    -0.834000       15.9994           0
   42252 WT2  6946 TIP3 H1   HT     0.417000        1.0080           0
   42253 WT2  6946 TIP3 H2   HT     0.417000        1.0080           0
   42254 WT2  6947 TIP3 OH2  OT    -0.834000       15.9994           0
   42255 WT2  6947 TIP3 H1   HT     0.417000        1.0080           0
   42256 WT2  6947 TIP3 H2   HT     0.417000        1.0080           0
   42257 WT2  6948 TIP3 OH2  OT    -0.834000       15.9994           0
   42258 WT2  6948 TIP3 H1   HT     0.417000        1.0080           0
   42259 WT2  6948 TIP3 H2   HT     0.417000        1.0080           0
   42260 WT2  6949 TIP3 OH2  OT    -0.834000       15.9994           0
   42261 WT2  6949 TIP3 H1   HT     0.417000        1.0080           0
   42262 WT2  6949 TIP3 H2   HT     0.417000        1.0080           0
   42263 WT2  6950 TIP3 OH2  OT    -0.834000       15.9994           0
   42264 WT2  6950 TIP3 H1   HT     0.417000        1.0080           0
   42265 WT2  6950 TIP3 H2   HT     0.417000        1.0080           0
   42266 WT2  6951 TIP3 OH2  OT    -0.834000       15.9994           0
   42267 WT2  6951 TIP3 H1   HT     0.417000        1.0080           0
   42268 WT2  6951 TIP3 H2   HT     0.417000        1.0080           0
   42269 WT2  6952 TIP3 OH2  OT    -0.834000       15.9994           0
   42270 WT2  6952 TIP3 H1   HT     0.417000        1.0080           0
   42271 WT2  6952 TIP3 H2   HT     0.417000        1.0080           0
   42272 WT2  6953 TIP3 OH2  OT    -0.834000       15.9994           0
   42273 WT2  6953 TIP3 H1   HT     0.417000        1.0080           0
   42274 WT2  6953 TIP3 H2   HT     0.417000        1.0080           0
   42275 WT2  6954 TIP3 OH2  OT    -0.834000       15.9994           0
   42276 WT2  6954 TIP3 H1   HT     0.417000        1.0080           0
   42277 WT2  6954 TIP3 H2   HT     0.417000        1.0080           0
   42278 WT2  6955 TIP3 OH2  OT    -0.834000       15.9994           0
   42279 WT2  6955 TIP3 H1   HT     0.417000        1.0080           0
   42280 WT2  6955 TIP3 H2   HT     0.417000        1.0080           0
   42281 WT2  6956 TIP3 OH2  OT    -0.834000       15.9994           0
   42282 WT2  6956 TIP3 H1   HT     0.417000        1.0080           0
   42283 WT2  6956 TIP3 H2   HT     0.417000        1.0080           0
   42284 WT2  6957 TIP3 OH2  OT    -0.834000       15.9994           0
   42285 WT2  6957 TIP3 H1   HT     0.417000        1.0080           0
   42286 WT2  6957 TIP3 H2   HT     0.417000        1.0080           0
   42287 WT2  6958 TIP3 OH2  OT    -0.834000       15.9994           0
   42288 WT2  6958 TIP3 H1   HT     0.417000        1.0080           0
   42289 WT2  6958 TIP3 H2   HT     0.417000        1.0080           0
   42290 WT2  6959 TIP3 OH2  OT    -0.834000       15.9994           0
   42291 WT2  6959 TIP3 H1   HT     0.417000        1.0080           0
   42292 WT2  6959 TIP3 H2   HT     0.417000        1.0080           0
   42293 WT2  6960 TIP3 OH2  OT    -0.834000       15.9994           0
   42294 WT2  6960 TIP3 H1   HT     0.417000        1.0080           0
   42295 WT2  6960 TIP3 H2   HT     0.417000        1.0080           0
   42296 WT2  6961 TIP3 OH2  OT    -0.834000       15.9994           0
   42297 WT2  6961 TIP3 H1   HT     0.417000        1.0080           0
   42298 WT2  6961 TIP3 H2   HT     0.417000        1.0080           0
   42299 WT2  6962 TIP3 OH2  OT    -0.834000       15.9994           0
   42300 WT2  6962 TIP3 H1   HT     0.417000        1.0080           0
   42301 WT2  6962 TIP3 H2   HT     0.417000        1.0080           0
   42302 WT2  6963 TIP3 OH2  OT    -0.834000       15.9994           0
   42303 WT2  6963 TIP3 H1   HT     0.417000        1.0080           0
   42304 WT2  6963 TIP3 H2   HT     0.417000        1.0080           0
   42305 WT2  6964 TIP3 OH2  OT    -0.834000       15.9994           0
   42306 WT2  6964 TIP3 H1   HT     0.417000        1.0080           0
   42307 WT2  6964 TIP3 H2   HT     0.417000        1.0080           0
   42308 WT2  6965 TIP3 OH2  OT    -0.834000       15.9994           0
   42309 WT2  6965 TIP3 H1   HT     0.417000        1.0080           0
   42310 WT2  6965 TIP3 H2   HT     0.417000        1.0080           0
   42311 WT2  6966 TIP3 OH2  OT    -0.834000       15.9994           0
   42312 WT2  6966 TIP3 H1   HT     0.417000        1.0080           0
   42313 WT2  6966 TIP3 H2   HT     0.417000        1.0080           0
   42314 WT2  6969 TIP3 OH2  OT    -0.834000       15.9994           0
   42315 WT2  6969 TIP3 H1   HT     0.417000        1.0080           0
   42316 WT2  6969 TIP3 H2   HT     0.417000        1.0080           0
   42317 WT2  6970 TIP3 OH2  OT    -0.834000       15.9994           0
   42318 WT2  6970 TIP3 H1   HT     0.417000        1.0080           0
   42319 WT2  6970 TIP3 H2   HT     0.417000        1.0080           0
   42320 WT2  6971 TIP3 OH2  OT    -0.834000       15.9994           0
   42321 WT2  6971 TIP3 H1   HT     0.417000        1.0080           0
   42322 WT2  6971 TIP3 H2   HT     0.417000        1.0080           0
   42323 WT2  6972 TIP3 OH2  OT    -0.834000       15.9994           0
   42324 WT2  6972 TIP3 H1   HT     0.417000        1.0080           0
   42325 WT2  6972 TIP3 H2   HT     0.417000        1.0080           0
   42326 WT2  6973 TIP3 OH2  OT    -0.834000       15.9994           0
   42327 WT2  6973 TIP3 H1   HT     0.417000        1.0080           0
   42328 WT2  6973 TIP3 H2   HT     0.417000        1.0080           0
   42329 WT2  6974 TIP3 OH2  OT    -0.834000       15.9994           0
   42330 WT2  6974 TIP3 H1   HT     0.417000        1.0080           0
   42331 WT2  6974 TIP3 H2   HT     0.417000        1.0080           0
   42332 WT2  6975 TIP3 OH2  OT    -0.834000       15.9994           0
   42333 WT2  6975 TIP3 H1   HT     0.417000        1.0080           0
   42334 WT2  6975 TIP3 H2   HT     0.417000        1.0080           0
   42335 WT2  6976 TIP3 OH2  OT    -0.834000       15.9994           0
   42336 WT2  6976 TIP3 H1   HT     0.417000        1.0080           0
   42337 WT2  6976 TIP3 H2   HT     0.417000        1.0080           0
   42338 WT2  6977 TIP3 OH2  OT    -0.834000       15.9994           0
   42339 WT2  6977 TIP3 H1   HT     0.417000        1.0080           0
   42340 WT2  6977 TIP3 H2   HT     0.417000        1.0080           0
   42341 WT2  6978 TIP3 OH2  OT    -0.834000       15.9994           0
   42342 WT2  6978 TIP3 H1   HT     0.417000        1.0080           0
   42343 WT2  6978 TIP3 H2   HT     0.417000        1.0080           0
   42344 WT2  6980 TIP3 OH2  OT    -0.834000       15.9994           0
   42345 WT2  6980 TIP3 H1   HT     0.417000        1.0080           0
   42346 WT2  6980 TIP3 H2   HT     0.417000        1.0080           0
   42347 WT2  6981 TIP3 OH2  OT    -0.834000       15.9994           0
   42348 WT2  6981 TIP3 H1   HT     0.417000        1.0080           0
   42349 WT2  6981 TIP3 H2   HT     0.417000        1.0080           0
   42350 WT2  6982 TIP3 OH2  OT    -0.834000       15.9994           0
   42351 WT2  6982 TIP3 H1   HT     0.417000        1.0080           0
   42352 WT2  6982 TIP3 H2   HT     0.417000        1.0080           0
   42353 WT2  6984 TIP3 OH2  OT    -0.834000       15.9994           0
   42354 WT2  6984 TIP3 H1   HT     0.417000        1.0080           0
   42355 WT2  6984 TIP3 H2   HT     0.417000        1.0080           0
   42356 WT2  6985 TIP3 OH2  OT    -0.834000       15.9994           0
   42357 WT2  6985 TIP3 H1   HT     0.417000        1.0080           0
   42358 WT2  6985 TIP3 H2   HT     0.417000        1.0080           0
   42359 WT2  6986 TIP3 OH2  OT    -0.834000       15.9994           0
   42360 WT2  6986 TIP3 H1   HT     0.417000        1.0080           0
   42361 WT2  6986 TIP3 H2   HT     0.417000        1.0080           0
   42362 WT2  6988 TIP3 OH2  OT    -0.834000       15.9994           0
   42363 WT2  6988 TIP3 H1   HT     0.417000        1.0080           0
   42364 WT2  6988 TIP3 H2   HT     0.417000        1.0080           0
   42365 WT2  6989 TIP3 OH2  OT    -0.834000       15.9994           0
   42366 WT2  6989 TIP3 H1   HT     0.417000        1.0080           0
   42367 WT2  6989 TIP3 H2   HT     0.417000        1.0080           0
   42368 WT2  6990 TIP3 OH2  OT    -0.834000       15.9994           0
   42369 WT2  6990 TIP3 H1   HT     0.417000        1.0080           0
   42370 WT2  6990 TIP3 H2   HT     0.417000        1.0080           0
   42371 WT2  6991 TIP3 OH2  OT    -0.834000       15.9994           0
   42372 WT2  6991 TIP3 H1   HT     0.417000        1.0080           0
   42373 WT2  6991 TIP3 H2   HT     0.417000        1.0080           0
   42374 WT2  6992 TIP3 OH2  OT    -0.834000       15.9994           0
   42375 WT2  6992 TIP3 H1   HT     0.417000        1.0080           0
   42376 WT2  6992 TIP3 H2   HT     0.417000        1.0080           0
   42377 WT2  6993 TIP3 OH2  OT    -0.834000       15.9994           0
   42378 WT2  6993 TIP3 H1   HT     0.417000        1.0080           0
   42379 WT2  6993 TIP3 H2   HT     0.417000        1.0080           0
   42380 WT2  6994 TIP3 OH2  OT    -0.834000       15.9994           0
   42381 WT2  6994 TIP3 H1   HT     0.417000        1.0080           0
   42382 WT2  6994 TIP3 H2   HT     0.417000        1.0080           0
   42383 WT2  6995 TIP3 OH2  OT    -0.834000       15.9994           0
   42384 WT2  6995 TIP3 H1   HT     0.417000        1.0080           0
   42385 WT2  6995 TIP3 H2   HT     0.417000        1.0080           0
   42386 WT2  6996 TIP3 OH2  OT    -0.834000       15.9994           0
   42387 WT2  6996 TIP3 H1   HT     0.417000        1.0080           0
   42388 WT2  6996 TIP3 H2   HT     0.417000        1.0080           0
   42389 WT2  6997 TIP3 OH2  OT    -0.834000       15.9994           0
   42390 WT2  6997 TIP3 H1   HT     0.417000        1.0080           0
   42391 WT2  6997 TIP3 H2   HT     0.417000        1.0080           0
   42392 WT2  6998 TIP3 OH2  OT    -0.834000       15.9994           0
   42393 WT2  6998 TIP3 H1   HT     0.417000        1.0080           0
   42394 WT2  6998 TIP3 H2   HT     0.417000        1.0080           0
   42395 WT2  6999 TIP3 OH2  OT    -0.834000       15.9994           0
   42396 WT2  6999 TIP3 H1   HT     0.417000        1.0080           0
   42397 WT2  6999 TIP3 H2   HT     0.417000        1.0080           0
   42398 WT2  7000 TIP3 OH2  OT    -0.834000       15.9994           0
   42399 WT2  7000 TIP3 H1   HT     0.417000        1.0080           0
   42400 WT2  7000 TIP3 H2   HT     0.417000        1.0080           0
   42401 WT2  7001 TIP3 OH2  OT    -0.834000       15.9994           0
   42402 WT2  7001 TIP3 H1   HT     0.417000        1.0080           0
   42403 WT2  7001 TIP3 H2   HT     0.417000        1.0080           0
   42404 WT2  7002 TIP3 OH2  OT    -0.834000       15.9994           0
   42405 WT2  7002 TIP3 H1   HT     0.417000        1.0080           0
   42406 WT2  7002 TIP3 H2   HT     0.417000        1.0080           0
   42407 WT2  7003 TIP3 OH2  OT    -0.834000       15.9994           0
   42408 WT2  7003 TIP3 H1   HT     0.417000        1.0080           0
   42409 WT2  7003 TIP3 H2   HT     0.417000        1.0080           0
   42410 WT2  7004 TIP3 OH2  OT    -0.834000       15.9994           0
   42411 WT2  7004 TIP3 H1   HT     0.417000        1.0080           0
   42412 WT2  7004 TIP3 H2   HT     0.417000        1.0080           0
   42413 WT2  7005 TIP3 OH2  OT    -0.834000       15.9994           0
   42414 WT2  7005 TIP3 H1   HT     0.417000        1.0080           0
   42415 WT2  7005 TIP3 H2   HT     0.417000        1.0080           0
   42416 WT2  7006 TIP3 OH2  OT    -0.834000       15.9994           0
   42417 WT2  7006 TIP3 H1   HT     0.417000        1.0080           0
   42418 WT2  7006 TIP3 H2   HT     0.417000        1.0080           0
   42419 WT2  7007 TIP3 OH2  OT    -0.834000       15.9994           0
   42420 WT2  7007 TIP3 H1   HT     0.417000        1.0080           0
   42421 WT2  7007 TIP3 H2   HT     0.417000        1.0080           0
   42422 WT2  7008 TIP3 OH2  OT    -0.834000       15.9994           0
   42423 WT2  7008 TIP3 H1   HT     0.417000        1.0080           0
   42424 WT2  7008 TIP3 H2   HT     0.417000        1.0080           0
   42425 WT2  7009 TIP3 OH2  OT    -0.834000       15.9994           0
   42426 WT2  7009 TIP3 H1   HT     0.417000        1.0080           0
   42427 WT2  7009 TIP3 H2   HT     0.417000        1.0080           0
   42428 WT2  7011 TIP3 OH2  OT    -0.834000       15.9994           0
   42429 WT2  7011 TIP3 H1   HT     0.417000        1.0080           0
   42430 WT2  7011 TIP3 H2   HT     0.417000        1.0080           0
   42431 WT2  7012 TIP3 OH2  OT    -0.834000       15.9994           0
   42432 WT2  7012 TIP3 H1   HT     0.417000        1.0080           0
   42433 WT2  7012 TIP3 H2   HT     0.417000        1.0080           0
   42434 WT2  7013 TIP3 OH2  OT    -0.834000       15.9994           0
   42435 WT2  7013 TIP3 H1   HT     0.417000        1.0080           0
   42436 WT2  7013 TIP3 H2   HT     0.417000        1.0080           0
   42437 WT2  7014 TIP3 OH2  OT    -0.834000       15.9994           0
   42438 WT2  7014 TIP3 H1   HT     0.417000        1.0080           0
   42439 WT2  7014 TIP3 H2   HT     0.417000        1.0080           0
   42440 WT2  7015 TIP3 OH2  OT    -0.834000       15.9994           0
   42441 WT2  7015 TIP3 H1   HT     0.417000        1.0080           0
   42442 WT2  7015 TIP3 H2   HT     0.417000        1.0080           0
   42443 WT2  7016 TIP3 OH2  OT    -0.834000       15.9994           0
   42444 WT2  7016 TIP3 H1   HT     0.417000        1.0080           0
   42445 WT2  7016 TIP3 H2   HT     0.417000        1.0080           0
   42446 WT2  7017 TIP3 OH2  OT    -0.834000       15.9994           0
   42447 WT2  7017 TIP3 H1   HT     0.417000        1.0080           0
   42448 WT2  7017 TIP3 H2   HT     0.417000        1.0080           0
   42449 WT2  7018 TIP3 OH2  OT    -0.834000       15.9994           0
   42450 WT2  7018 TIP3 H1   HT     0.417000        1.0080           0
   42451 WT2  7018 TIP3 H2   HT     0.417000        1.0080           0
   42452 WT2  7021 TIP3 OH2  OT    -0.834000       15.9994           0
   42453 WT2  7021 TIP3 H1   HT     0.417000        1.0080           0
   42454 WT2  7021 TIP3 H2   HT     0.417000        1.0080           0
   42455 WT2  7022 TIP3 OH2  OT    -0.834000       15.9994           0
   42456 WT2  7022 TIP3 H1   HT     0.417000        1.0080           0
   42457 WT2  7022 TIP3 H2   HT     0.417000        1.0080           0
   42458 WT2  7023 TIP3 OH2  OT    -0.834000       15.9994           0
   42459 WT2  7023 TIP3 H1   HT     0.417000        1.0080           0
   42460 WT2  7023 TIP3 H2   HT     0.417000        1.0080           0
   42461 WT2  7025 TIP3 OH2  OT    -0.834000       15.9994           0
   42462 WT2  7025 TIP3 H1   HT     0.417000        1.0080           0
   42463 WT2  7025 TIP3 H2   HT     0.417000        1.0080           0
   42464 WT2  7026 TIP3 OH2  OT    -0.834000       15.9994           0
   42465 WT2  7026 TIP3 H1   HT     0.417000        1.0080           0
   42466 WT2  7026 TIP3 H2   HT     0.417000        1.0080           0
   42467 WT2  7027 TIP3 OH2  OT    -0.834000       15.9994           0
   42468 WT2  7027 TIP3 H1   HT     0.417000        1.0080           0
   42469 WT2  7027 TIP3 H2   HT     0.417000        1.0080           0
   42470 WT2  7028 TIP3 OH2  OT    -0.834000       15.9994           0
   42471 WT2  7028 TIP3 H1   HT     0.417000        1.0080           0
   42472 WT2  7028 TIP3 H2   HT     0.417000        1.0080           0
   42473 WT2  7029 TIP3 OH2  OT    -0.834000       15.9994           0
   42474 WT2  7029 TIP3 H1   HT     0.417000        1.0080           0
   42475 WT2  7029 TIP3 H2   HT     0.417000        1.0080           0
   42476 WT2  7030 TIP3 OH2  OT    -0.834000       15.9994           0
   42477 WT2  7030 TIP3 H1   HT     0.417000        1.0080           0
   42478 WT2  7030 TIP3 H2   HT     0.417000        1.0080           0
   42479 WT2  7031 TIP3 OH2  OT    -0.834000       15.9994           0
   42480 WT2  7031 TIP3 H1   HT     0.417000        1.0080           0
   42481 WT2  7031 TIP3 H2   HT     0.417000        1.0080           0
   42482 WT2  7033 TIP3 OH2  OT    -0.834000       15.9994           0
   42483 WT2  7033 TIP3 H1   HT     0.417000        1.0080           0
   42484 WT2  7033 TIP3 H2   HT     0.417000        1.0080           0
   42485 WT2  7034 TIP3 OH2  OT    -0.834000       15.9994           0
   42486 WT2  7034 TIP3 H1   HT     0.417000        1.0080           0
   42487 WT2  7034 TIP3 H2   HT     0.417000        1.0080           0
   42488 WT2  7035 TIP3 OH2  OT    -0.834000       15.9994           0
   42489 WT2  7035 TIP3 H1   HT     0.417000        1.0080           0
   42490 WT2  7035 TIP3 H2   HT     0.417000        1.0080           0
   42491 WT2  7036 TIP3 OH2  OT    -0.834000       15.9994           0
   42492 WT2  7036 TIP3 H1   HT     0.417000        1.0080           0
   42493 WT2  7036 TIP3 H2   HT     0.417000        1.0080           0
   42494 WT2  7037 TIP3 OH2  OT    -0.834000       15.9994           0
   42495 WT2  7037 TIP3 H1   HT     0.417000        1.0080           0
   42496 WT2  7037 TIP3 H2   HT     0.417000        1.0080           0
   42497 WT2  7038 TIP3 OH2  OT    -0.834000       15.9994           0
   42498 WT2  7038 TIP3 H1   HT     0.417000        1.0080           0
   42499 WT2  7038 TIP3 H2   HT     0.417000        1.0080           0
   42500 WT2  7039 TIP3 OH2  OT    -0.834000       15.9994           0
   42501 WT2  7039 TIP3 H1   HT     0.417000        1.0080           0
   42502 WT2  7039 TIP3 H2   HT     0.417000        1.0080           0
   42503 WT2  7040 TIP3 OH2  OT    -0.834000       15.9994           0
   42504 WT2  7040 TIP3 H1   HT     0.417000        1.0080           0
   42505 WT2  7040 TIP3 H2   HT     0.417000        1.0080           0
   42506 WT2  7041 TIP3 OH2  OT    -0.834000       15.9994           0
   42507 WT2  7041 TIP3 H1   HT     0.417000        1.0080           0
   42508 WT2  7041 TIP3 H2   HT     0.417000        1.0080           0
   42509 WT2  7042 TIP3 OH2  OT    -0.834000       15.9994           0
   42510 WT2  7042 TIP3 H1   HT     0.417000        1.0080           0
   42511 WT2  7042 TIP3 H2   HT     0.417000        1.0080           0
   42512 WT2  7043 TIP3 OH2  OT    -0.834000       15.9994           0
   42513 WT2  7043 TIP3 H1   HT     0.417000        1.0080           0
   42514 WT2  7043 TIP3 H2   HT     0.417000        1.0080           0
   42515 WT2  7044 TIP3 OH2  OT    -0.834000       15.9994           0
   42516 WT2  7044 TIP3 H1   HT     0.417000        1.0080           0
   42517 WT2  7044 TIP3 H2   HT     0.417000        1.0080           0
   42518 WT2  7045 TIP3 OH2  OT    -0.834000       15.9994           0
   42519 WT2  7045 TIP3 H1   HT     0.417000        1.0080           0
   42520 WT2  7045 TIP3 H2   HT     0.417000        1.0080           0
   42521 WT2  7046 TIP3 OH2  OT    -0.834000       15.9994           0
   42522 WT2  7046 TIP3 H1   HT     0.417000        1.0080           0
   42523 WT2  7046 TIP3 H2   HT     0.417000        1.0080           0
   42524 WT2  7047 TIP3 OH2  OT    -0.834000       15.9994           0
   42525 WT2  7047 TIP3 H1   HT     0.417000        1.0080           0
   42526 WT2  7047 TIP3 H2   HT     0.417000        1.0080           0
   42527 WT2  7048 TIP3 OH2  OT    -0.834000       15.9994           0
   42528 WT2  7048 TIP3 H1   HT     0.417000        1.0080           0
   42529 WT2  7048 TIP3 H2   HT     0.417000        1.0080           0
   42530 WT2  7049 TIP3 OH2  OT    -0.834000       15.9994           0
   42531 WT2  7049 TIP3 H1   HT     0.417000        1.0080           0
   42532 WT2  7049 TIP3 H2   HT     0.417000        1.0080           0
   42533 WT2  7051 TIP3 OH2  OT    -0.834000       15.9994           0
   42534 WT2  7051 TIP3 H1   HT     0.417000        1.0080           0
   42535 WT2  7051 TIP3 H2   HT     0.417000        1.0080           0
   42536 WT2  7052 TIP3 OH2  OT    -0.834000       15.9994           0
   42537 WT2  7052 TIP3 H1   HT     0.417000        1.0080           0
   42538 WT2  7052 TIP3 H2   HT     0.417000        1.0080           0
   42539 WT2  7054 TIP3 OH2  OT    -0.834000       15.9994           0
   42540 WT2  7054 TIP3 H1   HT     0.417000        1.0080           0
   42541 WT2  7054 TIP3 H2   HT     0.417000        1.0080           0
   42542 WT2  7055 TIP3 OH2  OT    -0.834000       15.9994           0
   42543 WT2  7055 TIP3 H1   HT     0.417000        1.0080           0
   42544 WT2  7055 TIP3 H2   HT     0.417000        1.0080           0
   42545 WT2  7056 TIP3 OH2  OT    -0.834000       15.9994           0
   42546 WT2  7056 TIP3 H1   HT     0.417000        1.0080           0
   42547 WT2  7056 TIP3 H2   HT     0.417000        1.0080           0
   42548 WT2  7058 TIP3 OH2  OT    -0.834000       15.9994           0
   42549 WT2  7058 TIP3 H1   HT     0.417000        1.0080           0
   42550 WT2  7058 TIP3 H2   HT     0.417000        1.0080           0
   42551 WT2  7059 TIP3 OH2  OT    -0.834000       15.9994           0
   42552 WT2  7059 TIP3 H1   HT     0.417000        1.0080           0
   42553 WT2  7059 TIP3 H2   HT     0.417000        1.0080           0
   42554 WT2  7060 TIP3 OH2  OT    -0.834000       15.9994           0
   42555 WT2  7060 TIP3 H1   HT     0.417000        1.0080           0
   42556 WT2  7060 TIP3 H2   HT     0.417000        1.0080           0
   42557 WT2  7061 TIP3 OH2  OT    -0.834000       15.9994           0
   42558 WT2  7061 TIP3 H1   HT     0.417000        1.0080           0
   42559 WT2  7061 TIP3 H2   HT     0.417000        1.0080           0
   42560 WT2  7062 TIP3 OH2  OT    -0.834000       15.9994           0
   42561 WT2  7062 TIP3 H1   HT     0.417000        1.0080           0
   42562 WT2  7062 TIP3 H2   HT     0.417000        1.0080           0
   42563 WT2  7063 TIP3 OH2  OT    -0.834000       15.9994           0
   42564 WT2  7063 TIP3 H1   HT     0.417000        1.0080           0
   42565 WT2  7063 TIP3 H2   HT     0.417000        1.0080           0
   42566 WT2  7064 TIP3 OH2  OT    -0.834000       15.9994           0
   42567 WT2  7064 TIP3 H1   HT     0.417000        1.0080           0
   42568 WT2  7064 TIP3 H2   HT     0.417000        1.0080           0
   42569 WT2  7065 TIP3 OH2  OT    -0.834000       15.9994           0
   42570 WT2  7065 TIP3 H1   HT     0.417000        1.0080           0
   42571 WT2  7065 TIP3 H2   HT     0.417000        1.0080           0
   42572 WT2  7066 TIP3 OH2  OT    -0.834000       15.9994           0
   42573 WT2  7066 TIP3 H1   HT     0.417000        1.0080           0
   42574 WT2  7066 TIP3 H2   HT     0.417000        1.0080           0
   42575 WT2  7067 TIP3 OH2  OT    -0.834000       15.9994           0
   42576 WT2  7067 TIP3 H1   HT     0.417000        1.0080           0
   42577 WT2  7067 TIP3 H2   HT     0.417000        1.0080           0
   42578 WT2  7068 TIP3 OH2  OT    -0.834000       15.9994           0
   42579 WT2  7068 TIP3 H1   HT     0.417000        1.0080           0
   42580 WT2  7068 TIP3 H2   HT     0.417000        1.0080           0
   42581 WT2  7069 TIP3 OH2  OT    -0.834000       15.9994           0
   42582 WT2  7069 TIP3 H1   HT     0.417000        1.0080           0
   42583 WT2  7069 TIP3 H2   HT     0.417000        1.0080           0
   42584 WT2  7070 TIP3 OH2  OT    -0.834000       15.9994           0
   42585 WT2  7070 TIP3 H1   HT     0.417000        1.0080           0
   42586 WT2  7070 TIP3 H2   HT     0.417000        1.0080           0
   42587 WT2  7071 TIP3 OH2  OT    -0.834000       15.9994           0
   42588 WT2  7071 TIP3 H1   HT     0.417000        1.0080           0
   42589 WT2  7071 TIP3 H2   HT     0.417000        1.0080           0
   42590 WT2  7072 TIP3 OH2  OT    -0.834000       15.9994           0
   42591 WT2  7072 TIP3 H1   HT     0.417000        1.0080           0
   42592 WT2  7072 TIP3 H2   HT     0.417000        1.0080           0
   42593 WT2  7073 TIP3 OH2  OT    -0.834000       15.9994           0
   42594 WT2  7073 TIP3 H1   HT     0.417000        1.0080           0
   42595 WT2  7073 TIP3 H2   HT     0.417000        1.0080           0
   42596 WT2  7074 TIP3 OH2  OT    -0.834000       15.9994           0
   42597 WT2  7074 TIP3 H1   HT     0.417000        1.0080           0
   42598 WT2  7074 TIP3 H2   HT     0.417000        1.0080           0
   42599 WT2  7075 TIP3 OH2  OT    -0.834000       15.9994           0
   42600 WT2  7075 TIP3 H1   HT     0.417000        1.0080           0
   42601 WT2  7075 TIP3 H2   HT     0.417000        1.0080           0
   42602 WT2  7076 TIP3 OH2  OT    -0.834000       15.9994           0
   42603 WT2  7076 TIP3 H1   HT     0.417000        1.0080           0
   42604 WT2  7076 TIP3 H2   HT     0.417000        1.0080           0
   42605 WT2  7077 TIP3 OH2  OT    -0.834000       15.9994           0
   42606 WT2  7077 TIP3 H1   HT     0.417000        1.0080           0
   42607 WT2  7077 TIP3 H2   HT     0.417000        1.0080           0
   42608 WT2  7078 TIP3 OH2  OT    -0.834000       15.9994           0
   42609 WT2  7078 TIP3 H1   HT     0.417000        1.0080           0
   42610 WT2  7078 TIP3 H2   HT     0.417000        1.0080           0
   42611 WT2  7079 TIP3 OH2  OT    -0.834000       15.9994           0
   42612 WT2  7079 TIP3 H1   HT     0.417000        1.0080           0
   42613 WT2  7079 TIP3 H2   HT     0.417000        1.0080           0
   42614 WT2  7080 TIP3 OH2  OT    -0.834000       15.9994           0
   42615 WT2  7080 TIP3 H1   HT     0.417000        1.0080           0
   42616 WT2  7080 TIP3 H2   HT     0.417000        1.0080           0
   42617 WT2  7081 TIP3 OH2  OT    -0.834000       15.9994           0
   42618 WT2  7081 TIP3 H1   HT     0.417000        1.0080           0
   42619 WT2  7081 TIP3 H2   HT     0.417000        1.0080           0
   42620 WT2  7082 TIP3 OH2  OT    -0.834000       15.9994           0
   42621 WT2  7082 TIP3 H1   HT     0.417000        1.0080           0
   42622 WT2  7082 TIP3 H2   HT     0.417000        1.0080           0
   42623 WT2  7083 TIP3 OH2  OT    -0.834000       15.9994           0
   42624 WT2  7083 TIP3 H1   HT     0.417000        1.0080           0
   42625 WT2  7083 TIP3 H2   HT     0.417000        1.0080           0
   42626 WT2  7085 TIP3 OH2  OT    -0.834000       15.9994           0
   42627 WT2  7085 TIP3 H1   HT     0.417000        1.0080           0
   42628 WT2  7085 TIP3 H2   HT     0.417000        1.0080           0
   42629 WT2  7086 TIP3 OH2  OT    -0.834000       15.9994           0
   42630 WT2  7086 TIP3 H1   HT     0.417000        1.0080           0
   42631 WT2  7086 TIP3 H2   HT     0.417000        1.0080           0
   42632 WT2  7087 TIP3 OH2  OT    -0.834000       15.9994           0
   42633 WT2  7087 TIP3 H1   HT     0.417000        1.0080           0
   42634 WT2  7087 TIP3 H2   HT     0.417000        1.0080           0
   42635 WT2  7089 TIP3 OH2  OT    -0.834000       15.9994           0
   42636 WT2  7089 TIP3 H1   HT     0.417000        1.0080           0
   42637 WT2  7089 TIP3 H2   HT     0.417000        1.0080           0
   42638 WT2  7090 TIP3 OH2  OT    -0.834000       15.9994           0
   42639 WT2  7090 TIP3 H1   HT     0.417000        1.0080           0
   42640 WT2  7090 TIP3 H2   HT     0.417000        1.0080           0
   42641 WT2  7092 TIP3 OH2  OT    -0.834000       15.9994           0
   42642 WT2  7092 TIP3 H1   HT     0.417000        1.0080           0
   42643 WT2  7092 TIP3 H2   HT     0.417000        1.0080           0
   42644 WT2  7093 TIP3 OH2  OT    -0.834000       15.9994           0
   42645 WT2  7093 TIP3 H1   HT     0.417000        1.0080           0
   42646 WT2  7093 TIP3 H2   HT     0.417000        1.0080           0
   42647 WT2  7094 TIP3 OH2  OT    -0.834000       15.9994           0
   42648 WT2  7094 TIP3 H1   HT     0.417000        1.0080           0
   42649 WT2  7094 TIP3 H2   HT     0.417000        1.0080           0
   42650 WT2  7095 TIP3 OH2  OT    -0.834000       15.9994           0
   42651 WT2  7095 TIP3 H1   HT     0.417000        1.0080           0
   42652 WT2  7095 TIP3 H2   HT     0.417000        1.0080           0
   42653 WT2  7096 TIP3 OH2  OT    -0.834000       15.9994           0
   42654 WT2  7096 TIP3 H1   HT     0.417000        1.0080           0
   42655 WT2  7096 TIP3 H2   HT     0.417000        1.0080           0
   42656 WT2  7097 TIP3 OH2  OT    -0.834000       15.9994           0
   42657 WT2  7097 TIP3 H1   HT     0.417000        1.0080           0
   42658 WT2  7097 TIP3 H2   HT     0.417000        1.0080           0
   42659 WT2  7098 TIP3 OH2  OT    -0.834000       15.9994           0
   42660 WT2  7098 TIP3 H1   HT     0.417000        1.0080           0
   42661 WT2  7098 TIP3 H2   HT     0.417000        1.0080           0
   42662 WT2  7100 TIP3 OH2  OT    -0.834000       15.9994           0
   42663 WT2  7100 TIP3 H1   HT     0.417000        1.0080           0
   42664 WT2  7100 TIP3 H2   HT     0.417000        1.0080           0
   42665 WT2  7101 TIP3 OH2  OT    -0.834000       15.9994           0
   42666 WT2  7101 TIP3 H1   HT     0.417000        1.0080           0
   42667 WT2  7101 TIP3 H2   HT     0.417000        1.0080           0
   42668 WT2  7102 TIP3 OH2  OT    -0.834000       15.9994           0
   42669 WT2  7102 TIP3 H1   HT     0.417000        1.0080           0
   42670 WT2  7102 TIP3 H2   HT     0.417000        1.0080           0
   42671 WT2  7103 TIP3 OH2  OT    -0.834000       15.9994           0
   42672 WT2  7103 TIP3 H1   HT     0.417000        1.0080           0
   42673 WT2  7103 TIP3 H2   HT     0.417000        1.0080           0
   42674 WT2  7104 TIP3 OH2  OT    -0.834000       15.9994           0
   42675 WT2  7104 TIP3 H1   HT     0.417000        1.0080           0
   42676 WT2  7104 TIP3 H2   HT     0.417000        1.0080           0
   42677 WT2  7105 TIP3 OH2  OT    -0.834000       15.9994           0
   42678 WT2  7105 TIP3 H1   HT     0.417000        1.0080           0
   42679 WT2  7105 TIP3 H2   HT     0.417000        1.0080           0
   42680 WT2  7106 TIP3 OH2  OT    -0.834000       15.9994           0
   42681 WT2  7106 TIP3 H1   HT     0.417000        1.0080           0
   42682 WT2  7106 TIP3 H2   HT     0.417000        1.0080           0
   42683 WT2  7107 TIP3 OH2  OT    -0.834000       15.9994           0
   42684 WT2  7107 TIP3 H1   HT     0.417000        1.0080           0
   42685 WT2  7107 TIP3 H2   HT     0.417000        1.0080           0
   42686 WT2  7108 TIP3 OH2  OT    -0.834000       15.9994           0
   42687 WT2  7108 TIP3 H1   HT     0.417000        1.0080           0
   42688 WT2  7108 TIP3 H2   HT     0.417000        1.0080           0
   42689 WT2  7109 TIP3 OH2  OT    -0.834000       15.9994           0
   42690 WT2  7109 TIP3 H1   HT     0.417000        1.0080           0
   42691 WT2  7109 TIP3 H2   HT     0.417000        1.0080           0
   42692 WT2  7110 TIP3 OH2  OT    -0.834000       15.9994           0
   42693 WT2  7110 TIP3 H1   HT     0.417000        1.0080           0
   42694 WT2  7110 TIP3 H2   HT     0.417000        1.0080           0
   42695 WT2  7111 TIP3 OH2  OT    -0.834000       15.9994           0
   42696 WT2  7111 TIP3 H1   HT     0.417000        1.0080           0
   42697 WT2  7111 TIP3 H2   HT     0.417000        1.0080           0
   42698 WT2  7113 TIP3 OH2  OT    -0.834000       15.9994           0
   42699 WT2  7113 TIP3 H1   HT     0.417000        1.0080           0
   42700 WT2  7113 TIP3 H2   HT     0.417000        1.0080           0
   42701 WT2  7114 TIP3 OH2  OT    -0.834000       15.9994           0
   42702 WT2  7114 TIP3 H1   HT     0.417000        1.0080           0
   42703 WT2  7114 TIP3 H2   HT     0.417000        1.0080           0
   42704 WT2  7115 TIP3 OH2  OT    -0.834000       15.9994           0
   42705 WT2  7115 TIP3 H1   HT     0.417000        1.0080           0
   42706 WT2  7115 TIP3 H2   HT     0.417000        1.0080           0
   42707 WT2  7116 TIP3 OH2  OT    -0.834000       15.9994           0
   42708 WT2  7116 TIP3 H1   HT     0.417000        1.0080           0
   42709 WT2  7116 TIP3 H2   HT     0.417000        1.0080           0
   42710 WT2  7117 TIP3 OH2  OT    -0.834000       15.9994           0
   42711 WT2  7117 TIP3 H1   HT     0.417000        1.0080           0
   42712 WT2  7117 TIP3 H2   HT     0.417000        1.0080           0
   42713 WT2  7118 TIP3 OH2  OT    -0.834000       15.9994           0
   42714 WT2  7118 TIP3 H1   HT     0.417000        1.0080           0
   42715 WT2  7118 TIP3 H2   HT     0.417000        1.0080           0
   42716 WT2  7119 TIP3 OH2  OT    -0.834000       15.9994           0
   42717 WT2  7119 TIP3 H1   HT     0.417000        1.0080           0
   42718 WT2  7119 TIP3 H2   HT     0.417000        1.0080           0
   42719 WT2  7120 TIP3 OH2  OT    -0.834000       15.9994           0
   42720 WT2  7120 TIP3 H1   HT     0.417000        1.0080           0
   42721 WT2  7120 TIP3 H2   HT     0.417000        1.0080           0
   42722 WT2  7121 TIP3 OH2  OT    -0.834000       15.9994           0
   42723 WT2  7121 TIP3 H1   HT     0.417000        1.0080           0
   42724 WT2  7121 TIP3 H2   HT     0.417000        1.0080           0
   42725 WT2  7122 TIP3 OH2  OT    -0.834000       15.9994           0
   42726 WT2  7122 TIP3 H1   HT     0.417000        1.0080           0
   42727 WT2  7122 TIP3 H2   HT     0.417000        1.0080           0
   42728 WT2  7123 TIP3 OH2  OT    -0.834000       15.9994           0
   42729 WT2  7123 TIP3 H1   HT     0.417000        1.0080           0
   42730 WT2  7123 TIP3 H2   HT     0.417000        1.0080           0
   42731 WT2  7124 TIP3 OH2  OT    -0.834000       15.9994           0
   42732 WT2  7124 TIP3 H1   HT     0.417000        1.0080           0
   42733 WT2  7124 TIP3 H2   HT     0.417000        1.0080           0
   42734 WT2  7125 TIP3 OH2  OT    -0.834000       15.9994           0
   42735 WT2  7125 TIP3 H1   HT     0.417000        1.0080           0
   42736 WT2  7125 TIP3 H2   HT     0.417000        1.0080           0
   42737 WT2  7126 TIP3 OH2  OT    -0.834000       15.9994           0
   42738 WT2  7126 TIP3 H1   HT     0.417000        1.0080           0
   42739 WT2  7126 TIP3 H2   HT     0.417000        1.0080           0
   42740 WT2  7130 TIP3 OH2  OT    -0.834000       15.9994           0
   42741 WT2  7130 TIP3 H1   HT     0.417000        1.0080           0
   42742 WT2  7130 TIP3 H2   HT     0.417000        1.0080           0
   42743 WT2  7131 TIP3 OH2  OT    -0.834000       15.9994           0
   42744 WT2  7131 TIP3 H1   HT     0.417000        1.0080           0
   42745 WT2  7131 TIP3 H2   HT     0.417000        1.0080           0
   42746 WT2  7132 TIP3 OH2  OT    -0.834000       15.9994           0
   42747 WT2  7132 TIP3 H1   HT     0.417000        1.0080           0
   42748 WT2  7132 TIP3 H2   HT     0.417000        1.0080           0
   42749 WT2  7133 TIP3 OH2  OT    -0.834000       15.9994           0
   42750 WT2  7133 TIP3 H1   HT     0.417000        1.0080           0
   42751 WT2  7133 TIP3 H2   HT     0.417000        1.0080           0
   42752 WT2  7134 TIP3 OH2  OT    -0.834000       15.9994           0
   42753 WT2  7134 TIP3 H1   HT     0.417000        1.0080           0
   42754 WT2  7134 TIP3 H2   HT     0.417000        1.0080           0
   42755 WT2  7135 TIP3 OH2  OT    -0.834000       15.9994           0
   42756 WT2  7135 TIP3 H1   HT     0.417000        1.0080           0
   42757 WT2  7135 TIP3 H2   HT     0.417000        1.0080           0
   42758 WT2  7136 TIP3 OH2  OT    -0.834000       15.9994           0
   42759 WT2  7136 TIP3 H1   HT     0.417000        1.0080           0
   42760 WT2  7136 TIP3 H2   HT     0.417000        1.0080           0
   42761 WT2  7137 TIP3 OH2  OT    -0.834000       15.9994           0
   42762 WT2  7137 TIP3 H1   HT     0.417000        1.0080           0
   42763 WT2  7137 TIP3 H2   HT     0.417000        1.0080           0
   42764 WT2  7138 TIP3 OH2  OT    -0.834000       15.9994           0
   42765 WT2  7138 TIP3 H1   HT     0.417000        1.0080           0
   42766 WT2  7138 TIP3 H2   HT     0.417000        1.0080           0
   42767 WT2  7139 TIP3 OH2  OT    -0.834000       15.9994           0
   42768 WT2  7139 TIP3 H1   HT     0.417000        1.0080           0
   42769 WT2  7139 TIP3 H2   HT     0.417000        1.0080           0
   42770 WT2  7140 TIP3 OH2  OT    -0.834000       15.9994           0
   42771 WT2  7140 TIP3 H1   HT     0.417000        1.0080           0
   42772 WT2  7140 TIP3 H2   HT     0.417000        1.0080           0
   42773 WT2  7141 TIP3 OH2  OT    -0.834000       15.9994           0
   42774 WT2  7141 TIP3 H1   HT     0.417000        1.0080           0
   42775 WT2  7141 TIP3 H2   HT     0.417000        1.0080           0
   42776 WT2  7142 TIP3 OH2  OT    -0.834000       15.9994           0
   42777 WT2  7142 TIP3 H1   HT     0.417000        1.0080           0
   42778 WT2  7142 TIP3 H2   HT     0.417000        1.0080           0
   42779 WT2  7143 TIP3 OH2  OT    -0.834000       15.9994           0
   42780 WT2  7143 TIP3 H1   HT     0.417000        1.0080           0
   42781 WT2  7143 TIP3 H2   HT     0.417000        1.0080           0
   42782 WT2  7144 TIP3 OH2  OT    -0.834000       15.9994           0
   42783 WT2  7144 TIP3 H1   HT     0.417000        1.0080           0
   42784 WT2  7144 TIP3 H2   HT     0.417000        1.0080           0
   42785 WT2  7145 TIP3 OH2  OT    -0.834000       15.9994           0
   42786 WT2  7145 TIP3 H1   HT     0.417000        1.0080           0
   42787 WT2  7145 TIP3 H2   HT     0.417000        1.0080           0
   42788 WT2  7146 TIP3 OH2  OT    -0.834000       15.9994           0
   42789 WT2  7146 TIP3 H1   HT     0.417000        1.0080           0
   42790 WT2  7146 TIP3 H2   HT     0.417000        1.0080           0
   42791 WT2  7147 TIP3 OH2  OT    -0.834000       15.9994           0
   42792 WT2  7147 TIP3 H1   HT     0.417000        1.0080           0
   42793 WT2  7147 TIP3 H2   HT     0.417000        1.0080           0
   42794 WT2  7148 TIP3 OH2  OT    -0.834000       15.9994           0
   42795 WT2  7148 TIP3 H1   HT     0.417000        1.0080           0
   42796 WT2  7148 TIP3 H2   HT     0.417000        1.0080           0
   42797 WT2  7149 TIP3 OH2  OT    -0.834000       15.9994           0
   42798 WT2  7149 TIP3 H1   HT     0.417000        1.0080           0
   42799 WT2  7149 TIP3 H2   HT     0.417000        1.0080           0
   42800 WT2  7151 TIP3 OH2  OT    -0.834000       15.9994           0
   42801 WT2  7151 TIP3 H1   HT     0.417000        1.0080           0
   42802 WT2  7151 TIP3 H2   HT     0.417000        1.0080           0
   42803 WT2  7152 TIP3 OH2  OT    -0.834000       15.9994           0
   42804 WT2  7152 TIP3 H1   HT     0.417000        1.0080           0
   42805 WT2  7152 TIP3 H2   HT     0.417000        1.0080           0
   42806 WT2  7155 TIP3 OH2  OT    -0.834000       15.9994           0
   42807 WT2  7155 TIP3 H1   HT     0.417000        1.0080           0
   42808 WT2  7155 TIP3 H2   HT     0.417000        1.0080           0
   42809 WT2  7156 TIP3 OH2  OT    -0.834000       15.9994           0
   42810 WT2  7156 TIP3 H1   HT     0.417000        1.0080           0
   42811 WT2  7156 TIP3 H2   HT     0.417000        1.0080           0
   42812 WT2  7157 TIP3 OH2  OT    -0.834000       15.9994           0
   42813 WT2  7157 TIP3 H1   HT     0.417000        1.0080           0
   42814 WT2  7157 TIP3 H2   HT     0.417000        1.0080           0
   42815 WT2  7158 TIP3 OH2  OT    -0.834000       15.9994           0
   42816 WT2  7158 TIP3 H1   HT     0.417000        1.0080           0
   42817 WT2  7158 TIP3 H2   HT     0.417000        1.0080           0
   42818 WT2  7159 TIP3 OH2  OT    -0.834000       15.9994           0
   42819 WT2  7159 TIP3 H1   HT     0.417000        1.0080           0
   42820 WT2  7159 TIP3 H2   HT     0.417000        1.0080           0
   42821 WT2  7160 TIP3 OH2  OT    -0.834000       15.9994           0
   42822 WT2  7160 TIP3 H1   HT     0.417000        1.0080           0
   42823 WT2  7160 TIP3 H2   HT     0.417000        1.0080           0
   42824 WT2  7161 TIP3 OH2  OT    -0.834000       15.9994           0
   42825 WT2  7161 TIP3 H1   HT     0.417000        1.0080           0
   42826 WT2  7161 TIP3 H2   HT     0.417000        1.0080           0
   42827 WT2  7162 TIP3 OH2  OT    -0.834000       15.9994           0
   42828 WT2  7162 TIP3 H1   HT     0.417000        1.0080           0
   42829 WT2  7162 TIP3 H2   HT     0.417000        1.0080           0
   42830 WT2  7164 TIP3 OH2  OT    -0.834000       15.9994           0
   42831 WT2  7164 TIP3 H1   HT     0.417000        1.0080           0
   42832 WT2  7164 TIP3 H2   HT     0.417000        1.0080           0
   42833 WT2  7165 TIP3 OH2  OT    -0.834000       15.9994           0
   42834 WT2  7165 TIP3 H1   HT     0.417000        1.0080           0
   42835 WT2  7165 TIP3 H2   HT     0.417000        1.0080           0
   42836 WT2  7166 TIP3 OH2  OT    -0.834000       15.9994           0
   42837 WT2  7166 TIP3 H1   HT     0.417000        1.0080           0
   42838 WT2  7166 TIP3 H2   HT     0.417000        1.0080           0
   42839 WT2  7167 TIP3 OH2  OT    -0.834000       15.9994           0
   42840 WT2  7167 TIP3 H1   HT     0.417000        1.0080           0
   42841 WT2  7167 TIP3 H2   HT     0.417000        1.0080           0
   42842 WT2  7168 TIP3 OH2  OT    -0.834000       15.9994           0
   42843 WT2  7168 TIP3 H1   HT     0.417000        1.0080           0
   42844 WT2  7168 TIP3 H2   HT     0.417000        1.0080           0
   42845 WT2  7169 TIP3 OH2  OT    -0.834000       15.9994           0
   42846 WT2  7169 TIP3 H1   HT     0.417000        1.0080           0
   42847 WT2  7169 TIP3 H2   HT     0.417000        1.0080           0
   42848 WT2  7170 TIP3 OH2  OT    -0.834000       15.9994           0
   42849 WT2  7170 TIP3 H1   HT     0.417000        1.0080           0
   42850 WT2  7170 TIP3 H2   HT     0.417000        1.0080           0
   42851 WT2  7171 TIP3 OH2  OT    -0.834000       15.9994           0
   42852 WT2  7171 TIP3 H1   HT     0.417000        1.0080           0
   42853 WT2  7171 TIP3 H2   HT     0.417000        1.0080           0
   42854 WT2  7172 TIP3 OH2  OT    -0.834000       15.9994           0
   42855 WT2  7172 TIP3 H1   HT     0.417000        1.0080           0
   42856 WT2  7172 TIP3 H2   HT     0.417000        1.0080           0
   42857 WT2  7173 TIP3 OH2  OT    -0.834000       15.9994           0
   42858 WT2  7173 TIP3 H1   HT     0.417000        1.0080           0
   42859 WT2  7173 TIP3 H2   HT     0.417000        1.0080           0
   42860 WT2  7174 TIP3 OH2  OT    -0.834000       15.9994           0
   42861 WT2  7174 TIP3 H1   HT     0.417000        1.0080           0
   42862 WT2  7174 TIP3 H2   HT     0.417000        1.0080           0
   42863 WT2  7176 TIP3 OH2  OT    -0.834000       15.9994           0
   42864 WT2  7176 TIP3 H1   HT     0.417000        1.0080           0
   42865 WT2  7176 TIP3 H2   HT     0.417000        1.0080           0
   42866 WT2  7177 TIP3 OH2  OT    -0.834000       15.9994           0
   42867 WT2  7177 TIP3 H1   HT     0.417000        1.0080           0
   42868 WT2  7177 TIP3 H2   HT     0.417000        1.0080           0
   42869 WT2  7178 TIP3 OH2  OT    -0.834000       15.9994           0
   42870 WT2  7178 TIP3 H1   HT     0.417000        1.0080           0
   42871 WT2  7178 TIP3 H2   HT     0.417000        1.0080           0
   42872 WT2  7179 TIP3 OH2  OT    -0.834000       15.9994           0
   42873 WT2  7179 TIP3 H1   HT     0.417000        1.0080           0
   42874 WT2  7179 TIP3 H2   HT     0.417000        1.0080           0
   42875 WT2  7180 TIP3 OH2  OT    -0.834000       15.9994           0
   42876 WT2  7180 TIP3 H1   HT     0.417000        1.0080           0
   42877 WT2  7180 TIP3 H2   HT     0.417000        1.0080           0
   42878 WT2  7181 TIP3 OH2  OT    -0.834000       15.9994           0
   42879 WT2  7181 TIP3 H1   HT     0.417000        1.0080           0
   42880 WT2  7181 TIP3 H2   HT     0.417000        1.0080           0
   42881 WT2  7183 TIP3 OH2  OT    -0.834000       15.9994           0
   42882 WT2  7183 TIP3 H1   HT     0.417000        1.0080           0
   42883 WT2  7183 TIP3 H2   HT     0.417000        1.0080           0
   42884 WT2  7184 TIP3 OH2  OT    -0.834000       15.9994           0
   42885 WT2  7184 TIP3 H1   HT     0.417000        1.0080           0
   42886 WT2  7184 TIP3 H2   HT     0.417000        1.0080           0
   42887 WT2  7185 TIP3 OH2  OT    -0.834000       15.9994           0
   42888 WT2  7185 TIP3 H1   HT     0.417000        1.0080           0
   42889 WT2  7185 TIP3 H2   HT     0.417000        1.0080           0
   42890 WT2  7186 TIP3 OH2  OT    -0.834000       15.9994           0
   42891 WT2  7186 TIP3 H1   HT     0.417000        1.0080           0
   42892 WT2  7186 TIP3 H2   HT     0.417000        1.0080           0
   42893 WT2  7188 TIP3 OH2  OT    -0.834000       15.9994           0
   42894 WT2  7188 TIP3 H1   HT     0.417000        1.0080           0
   42895 WT2  7188 TIP3 H2   HT     0.417000        1.0080           0
   42896 WT2  7189 TIP3 OH2  OT    -0.834000       15.9994           0
   42897 WT2  7189 TIP3 H1   HT     0.417000        1.0080           0
   42898 WT2  7189 TIP3 H2   HT     0.417000        1.0080           0
   42899 WT2  7190 TIP3 OH2  OT    -0.834000       15.9994           0
   42900 WT2  7190 TIP3 H1   HT     0.417000        1.0080           0
   42901 WT2  7190 TIP3 H2   HT     0.417000        1.0080           0
   42902 WT2  7191 TIP3 OH2  OT    -0.834000       15.9994           0
   42903 WT2  7191 TIP3 H1   HT     0.417000        1.0080           0
   42904 WT2  7191 TIP3 H2   HT     0.417000        1.0080           0
   42905 WT2  7193 TIP3 OH2  OT    -0.834000       15.9994           0
   42906 WT2  7193 TIP3 H1   HT     0.417000        1.0080           0
   42907 WT2  7193 TIP3 H2   HT     0.417000        1.0080           0
   42908 WT2  7194 TIP3 OH2  OT    -0.834000       15.9994           0
   42909 WT2  7194 TIP3 H1   HT     0.417000        1.0080           0
   42910 WT2  7194 TIP3 H2   HT     0.417000        1.0080           0
   42911 WT2  7195 TIP3 OH2  OT    -0.834000       15.9994           0
   42912 WT2  7195 TIP3 H1   HT     0.417000        1.0080           0
   42913 WT2  7195 TIP3 H2   HT     0.417000        1.0080           0
   42914 WT2  7196 TIP3 OH2  OT    -0.834000       15.9994           0
   42915 WT2  7196 TIP3 H1   HT     0.417000        1.0080           0
   42916 WT2  7196 TIP3 H2   HT     0.417000        1.0080           0
   42917 WT2  7197 TIP3 OH2  OT    -0.834000       15.9994           0
   42918 WT2  7197 TIP3 H1   HT     0.417000        1.0080           0
   42919 WT2  7197 TIP3 H2   HT     0.417000        1.0080           0
   42920 WT2  7199 TIP3 OH2  OT    -0.834000       15.9994           0
   42921 WT2  7199 TIP3 H1   HT     0.417000        1.0080           0
   42922 WT2  7199 TIP3 H2   HT     0.417000        1.0080           0
   42923 WT2  7200 TIP3 OH2  OT    -0.834000       15.9994           0
   42924 WT2  7200 TIP3 H1   HT     0.417000        1.0080           0
   42925 WT2  7200 TIP3 H2   HT     0.417000        1.0080           0
   42926 WT2  7201 TIP3 OH2  OT    -0.834000       15.9994           0
   42927 WT2  7201 TIP3 H1   HT     0.417000        1.0080           0
   42928 WT2  7201 TIP3 H2   HT     0.417000        1.0080           0
   42929 WT2  7202 TIP3 OH2  OT    -0.834000       15.9994           0
   42930 WT2  7202 TIP3 H1   HT     0.417000        1.0080           0
   42931 WT2  7202 TIP3 H2   HT     0.417000        1.0080           0
   42932 WT2  7203 TIP3 OH2  OT    -0.834000       15.9994           0
   42933 WT2  7203 TIP3 H1   HT     0.417000        1.0080           0
   42934 WT2  7203 TIP3 H2   HT     0.417000        1.0080           0
   42935 WT2  7204 TIP3 OH2  OT    -0.834000       15.9994           0
   42936 WT2  7204 TIP3 H1   HT     0.417000        1.0080           0
   42937 WT2  7204 TIP3 H2   HT     0.417000        1.0080           0
   42938 WT2  7205 TIP3 OH2  OT    -0.834000       15.9994           0
   42939 WT2  7205 TIP3 H1   HT     0.417000        1.0080           0
   42940 WT2  7205 TIP3 H2   HT     0.417000        1.0080           0
   42941 WT2  7206 TIP3 OH2  OT    -0.834000       15.9994           0
   42942 WT2  7206 TIP3 H1   HT     0.417000        1.0080           0
   42943 WT2  7206 TIP3 H2   HT     0.417000        1.0080           0
   42944 WT2  7207 TIP3 OH2  OT    -0.834000       15.9994           0
   42945 WT2  7207 TIP3 H1   HT     0.417000        1.0080           0
   42946 WT2  7207 TIP3 H2   HT     0.417000        1.0080           0
   42947 WT2  7208 TIP3 OH2  OT    -0.834000       15.9994           0
   42948 WT2  7208 TIP3 H1   HT     0.417000        1.0080           0
   42949 WT2  7208 TIP3 H2   HT     0.417000        1.0080           0
   42950 WT2  7209 TIP3 OH2  OT    -0.834000       15.9994           0
   42951 WT2  7209 TIP3 H1   HT     0.417000        1.0080           0
   42952 WT2  7209 TIP3 H2   HT     0.417000        1.0080           0
   42953 WT2  7210 TIP3 OH2  OT    -0.834000       15.9994           0
   42954 WT2  7210 TIP3 H1   HT     0.417000        1.0080           0
   42955 WT2  7210 TIP3 H2   HT     0.417000        1.0080           0
   42956 WT2  7211 TIP3 OH2  OT    -0.834000       15.9994           0
   42957 WT2  7211 TIP3 H1   HT     0.417000        1.0080           0
   42958 WT2  7211 TIP3 H2   HT     0.417000        1.0080           0
   42959 WT2  7212 TIP3 OH2  OT    -0.834000       15.9994           0
   42960 WT2  7212 TIP3 H1   HT     0.417000        1.0080           0
   42961 WT2  7212 TIP3 H2   HT     0.417000        1.0080           0
   42962 WT2  7213 TIP3 OH2  OT    -0.834000       15.9994           0
   42963 WT2  7213 TIP3 H1   HT     0.417000        1.0080           0
   42964 WT2  7213 TIP3 H2   HT     0.417000        1.0080           0
   42965 WT2  7215 TIP3 OH2  OT    -0.834000       15.9994           0
   42966 WT2  7215 TIP3 H1   HT     0.417000        1.0080           0
   42967 WT2  7215 TIP3 H2   HT     0.417000        1.0080           0
   42968 WT2  7216 TIP3 OH2  OT    -0.834000       15.9994           0
   42969 WT2  7216 TIP3 H1   HT     0.417000        1.0080           0
   42970 WT2  7216 TIP3 H2   HT     0.417000        1.0080           0
   42971 WT2  7217 TIP3 OH2  OT    -0.834000       15.9994           0
   42972 WT2  7217 TIP3 H1   HT     0.417000        1.0080           0
   42973 WT2  7217 TIP3 H2   HT     0.417000        1.0080           0
   42974 WT2  7218 TIP3 OH2  OT    -0.834000       15.9994           0
   42975 WT2  7218 TIP3 H1   HT     0.417000        1.0080           0
   42976 WT2  7218 TIP3 H2   HT     0.417000        1.0080           0
   42977 WT2  7219 TIP3 OH2  OT    -0.834000       15.9994           0
   42978 WT2  7219 TIP3 H1   HT     0.417000        1.0080           0
   42979 WT2  7219 TIP3 H2   HT     0.417000        1.0080           0
   42980 WT2  7220 TIP3 OH2  OT    -0.834000       15.9994           0
   42981 WT2  7220 TIP3 H1   HT     0.417000        1.0080           0
   42982 WT2  7220 TIP3 H2   HT     0.417000        1.0080           0
   42983 WT2  7221 TIP3 OH2  OT    -0.834000       15.9994           0
   42984 WT2  7221 TIP3 H1   HT     0.417000        1.0080           0
   42985 WT2  7221 TIP3 H2   HT     0.417000        1.0080           0
   42986 WT2  7222 TIP3 OH2  OT    -0.834000       15.9994           0
   42987 WT2  7222 TIP3 H1   HT     0.417000        1.0080           0
   42988 WT2  7222 TIP3 H2   HT     0.417000        1.0080           0
   42989 WT2  7223 TIP3 OH2  OT    -0.834000       15.9994           0
   42990 WT2  7223 TIP3 H1   HT     0.417000        1.0080           0
   42991 WT2  7223 TIP3 H2   HT     0.417000        1.0080           0
   42992 WT2  7225 TIP3 OH2  OT    -0.834000       15.9994           0
   42993 WT2  7225 TIP3 H1   HT     0.417000        1.0080           0
   42994 WT2  7225 TIP3 H2   HT     0.417000        1.0080           0
   42995 WT2  7226 TIP3 OH2  OT    -0.834000       15.9994           0
   42996 WT2  7226 TIP3 H1   HT     0.417000        1.0080           0
   42997 WT2  7226 TIP3 H2   HT     0.417000        1.0080           0
   42998 WT2  7228 TIP3 OH2  OT    -0.834000       15.9994           0
   42999 WT2  7228 TIP3 H1   HT     0.417000        1.0080           0
   43000 WT2  7228 TIP3 H2   HT     0.417000        1.0080           0
   43001 WT2  7229 TIP3 OH2  OT    -0.834000       15.9994           0
   43002 WT2  7229 TIP3 H1   HT     0.417000        1.0080           0
   43003 WT2  7229 TIP3 H2   HT     0.417000        1.0080           0
   43004 WT2  7230 TIP3 OH2  OT    -0.834000       15.9994           0
   43005 WT2  7230 TIP3 H1   HT     0.417000        1.0080           0
   43006 WT2  7230 TIP3 H2   HT     0.417000        1.0080           0
   43007 WT2  7231 TIP3 OH2  OT    -0.834000       15.9994           0
   43008 WT2  7231 TIP3 H1   HT     0.417000        1.0080           0
   43009 WT2  7231 TIP3 H2   HT     0.417000        1.0080           0
   43010 WT2  7232 TIP3 OH2  OT    -0.834000       15.9994           0
   43011 WT2  7232 TIP3 H1   HT     0.417000        1.0080           0
   43012 WT2  7232 TIP3 H2   HT     0.417000        1.0080           0
   43013 WT2  7233 TIP3 OH2  OT    -0.834000       15.9994           0
   43014 WT2  7233 TIP3 H1   HT     0.417000        1.0080           0
   43015 WT2  7233 TIP3 H2   HT     0.417000        1.0080           0
   43016 WT2  7234 TIP3 OH2  OT    -0.834000       15.9994           0
   43017 WT2  7234 TIP3 H1   HT     0.417000        1.0080           0
   43018 WT2  7234 TIP3 H2   HT     0.417000        1.0080           0
   43019 WT2  7235 TIP3 OH2  OT    -0.834000       15.9994           0
   43020 WT2  7235 TIP3 H1   HT     0.417000        1.0080           0
   43021 WT2  7235 TIP3 H2   HT     0.417000        1.0080           0
   43022 WT2  7237 TIP3 OH2  OT    -0.834000       15.9994           0
   43023 WT2  7237 TIP3 H1   HT     0.417000        1.0080           0
   43024 WT2  7237 TIP3 H2   HT     0.417000        1.0080           0
   43025 WT2  7238 TIP3 OH2  OT    -0.834000       15.9994           0
   43026 WT2  7238 TIP3 H1   HT     0.417000        1.0080           0
   43027 WT2  7238 TIP3 H2   HT     0.417000        1.0080           0
   43028 WT2  7239 TIP3 OH2  OT    -0.834000       15.9994           0
   43029 WT2  7239 TIP3 H1   HT     0.417000        1.0080           0
   43030 WT2  7239 TIP3 H2   HT     0.417000        1.0080           0
   43031 WT2  7241 TIP3 OH2  OT    -0.834000       15.9994           0
   43032 WT2  7241 TIP3 H1   HT     0.417000        1.0080           0
   43033 WT2  7241 TIP3 H2   HT     0.417000        1.0080           0
   43034 WT2  7242 TIP3 OH2  OT    -0.834000       15.9994           0
   43035 WT2  7242 TIP3 H1   HT     0.417000        1.0080           0
   43036 WT2  7242 TIP3 H2   HT     0.417000        1.0080           0
   43037 WT2  7243 TIP3 OH2  OT    -0.834000       15.9994           0
   43038 WT2  7243 TIP3 H1   HT     0.417000        1.0080           0
   43039 WT2  7243 TIP3 H2   HT     0.417000        1.0080           0
   43040 WT2  7244 TIP3 OH2  OT    -0.834000       15.9994           0
   43041 WT2  7244 TIP3 H1   HT     0.417000        1.0080           0
   43042 WT2  7244 TIP3 H2   HT     0.417000        1.0080           0
   43043 WT2  7245 TIP3 OH2  OT    -0.834000       15.9994           0
   43044 WT2  7245 TIP3 H1   HT     0.417000        1.0080           0
   43045 WT2  7245 TIP3 H2   HT     0.417000        1.0080           0
   43046 WT2  7246 TIP3 OH2  OT    -0.834000       15.9994           0
   43047 WT2  7246 TIP3 H1   HT     0.417000        1.0080           0
   43048 WT2  7246 TIP3 H2   HT     0.417000        1.0080           0
   43049 WT2  7247 TIP3 OH2  OT    -0.834000       15.9994           0
   43050 WT2  7247 TIP3 H1   HT     0.417000        1.0080           0
   43051 WT2  7247 TIP3 H2   HT     0.417000        1.0080           0
   43052 WT2  7248 TIP3 OH2  OT    -0.834000       15.9994           0
   43053 WT2  7248 TIP3 H1   HT     0.417000        1.0080           0
   43054 WT2  7248 TIP3 H2   HT     0.417000        1.0080           0
   43055 WT2  7249 TIP3 OH2  OT    -0.834000       15.9994           0
   43056 WT2  7249 TIP3 H1   HT     0.417000        1.0080           0
   43057 WT2  7249 TIP3 H2   HT     0.417000        1.0080           0
   43058 WT2  7250 TIP3 OH2  OT    -0.834000       15.9994           0
   43059 WT2  7250 TIP3 H1   HT     0.417000        1.0080           0
   43060 WT2  7250 TIP3 H2   HT     0.417000        1.0080           0
   43061 WT2  7251 TIP3 OH2  OT    -0.834000       15.9994           0
   43062 WT2  7251 TIP3 H1   HT     0.417000        1.0080           0
   43063 WT2  7251 TIP3 H2   HT     0.417000        1.0080           0
   43064 WT2  7252 TIP3 OH2  OT    -0.834000       15.9994           0
   43065 WT2  7252 TIP3 H1   HT     0.417000        1.0080           0
   43066 WT2  7252 TIP3 H2   HT     0.417000        1.0080           0
   43067 WT2  7253 TIP3 OH2  OT    -0.834000       15.9994           0
   43068 WT2  7253 TIP3 H1   HT     0.417000        1.0080           0
   43069 WT2  7253 TIP3 H2   HT     0.417000        1.0080           0
   43070 WT2  7254 TIP3 OH2  OT    -0.834000       15.9994           0
   43071 WT2  7254 TIP3 H1   HT     0.417000        1.0080           0
   43072 WT2  7254 TIP3 H2   HT     0.417000        1.0080           0
   43073 WT2  7255 TIP3 OH2  OT    -0.834000       15.9994           0
   43074 WT2  7255 TIP3 H1   HT     0.417000        1.0080           0
   43075 WT2  7255 TIP3 H2   HT     0.417000        1.0080           0
   43076 WT2  7256 TIP3 OH2  OT    -0.834000       15.9994           0
   43077 WT2  7256 TIP3 H1   HT     0.417000        1.0080           0
   43078 WT2  7256 TIP3 H2   HT     0.417000        1.0080           0
   43079 WT2  7257 TIP3 OH2  OT    -0.834000       15.9994           0
   43080 WT2  7257 TIP3 H1   HT     0.417000        1.0080           0
   43081 WT2  7257 TIP3 H2   HT     0.417000        1.0080           0
   43082 WT2  7258 TIP3 OH2  OT    -0.834000       15.9994           0
   43083 WT2  7258 TIP3 H1   HT     0.417000        1.0080           0
   43084 WT2  7258 TIP3 H2   HT     0.417000        1.0080           0
   43085 WT2  7259 TIP3 OH2  OT    -0.834000       15.9994           0
   43086 WT2  7259 TIP3 H1   HT     0.417000        1.0080           0
   43087 WT2  7259 TIP3 H2   HT     0.417000        1.0080           0
   43088 WT2  7260 TIP3 OH2  OT    -0.834000       15.9994           0
   43089 WT2  7260 TIP3 H1   HT     0.417000        1.0080           0
   43090 WT2  7260 TIP3 H2   HT     0.417000        1.0080           0
   43091 WT2  7261 TIP3 OH2  OT    -0.834000       15.9994           0
   43092 WT2  7261 TIP3 H1   HT     0.417000        1.0080           0
   43093 WT2  7261 TIP3 H2   HT     0.417000        1.0080           0
   43094 WT2  7262 TIP3 OH2  OT    -0.834000       15.9994           0
   43095 WT2  7262 TIP3 H1   HT     0.417000        1.0080           0
   43096 WT2  7262 TIP3 H2   HT     0.417000        1.0080           0
   43097 WT2  7264 TIP3 OH2  OT    -0.834000       15.9994           0
   43098 WT2  7264 TIP3 H1   HT     0.417000        1.0080           0
   43099 WT2  7264 TIP3 H2   HT     0.417000        1.0080           0
   43100 WT2  7265 TIP3 OH2  OT    -0.834000       15.9994           0
   43101 WT2  7265 TIP3 H1   HT     0.417000        1.0080           0
   43102 WT2  7265 TIP3 H2   HT     0.417000        1.0080           0
   43103 WT2  7267 TIP3 OH2  OT    -0.834000       15.9994           0
   43104 WT2  7267 TIP3 H1   HT     0.417000        1.0080           0
   43105 WT2  7267 TIP3 H2   HT     0.417000        1.0080           0
   43106 WT2  7269 TIP3 OH2  OT    -0.834000       15.9994           0
   43107 WT2  7269 TIP3 H1   HT     0.417000        1.0080           0
   43108 WT2  7269 TIP3 H2   HT     0.417000        1.0080           0
   43109 WT2  7270 TIP3 OH2  OT    -0.834000       15.9994           0
   43110 WT2  7270 TIP3 H1   HT     0.417000        1.0080           0
   43111 WT2  7270 TIP3 H2   HT     0.417000        1.0080           0
   43112 WT2  7271 TIP3 OH2  OT    -0.834000       15.9994           0
   43113 WT2  7271 TIP3 H1   HT     0.417000        1.0080           0
   43114 WT2  7271 TIP3 H2   HT     0.417000        1.0080           0
   43115 WT2  7272 TIP3 OH2  OT    -0.834000       15.9994           0
   43116 WT2  7272 TIP3 H1   HT     0.417000        1.0080           0
   43117 WT2  7272 TIP3 H2   HT     0.417000        1.0080           0
   43118 WT2  7273 TIP3 OH2  OT    -0.834000       15.9994           0
   43119 WT2  7273 TIP3 H1   HT     0.417000        1.0080           0
   43120 WT2  7273 TIP3 H2   HT     0.417000        1.0080           0
   43121 WT2  7274 TIP3 OH2  OT    -0.834000       15.9994           0
   43122 WT2  7274 TIP3 H1   HT     0.417000        1.0080           0
   43123 WT2  7274 TIP3 H2   HT     0.417000        1.0080           0
   43124 WT2  7275 TIP3 OH2  OT    -0.834000       15.9994           0
   43125 WT2  7275 TIP3 H1   HT     0.417000        1.0080           0
   43126 WT2  7275 TIP3 H2   HT     0.417000        1.0080           0
   43127 WT2  7276 TIP3 OH2  OT    -0.834000       15.9994           0
   43128 WT2  7276 TIP3 H1   HT     0.417000        1.0080           0
   43129 WT2  7276 TIP3 H2   HT     0.417000        1.0080           0
   43130 WT2  7278 TIP3 OH2  OT    -0.834000       15.9994           0
   43131 WT2  7278 TIP3 H1   HT     0.417000        1.0080           0
   43132 WT2  7278 TIP3 H2   HT     0.417000        1.0080           0
   43133 WT2  7280 TIP3 OH2  OT    -0.834000       15.9994           0
   43134 WT2  7280 TIP3 H1   HT     0.417000        1.0080           0
   43135 WT2  7280 TIP3 H2   HT     0.417000        1.0080           0
   43136 WT2  7281 TIP3 OH2  OT    -0.834000       15.9994           0
   43137 WT2  7281 TIP3 H1   HT     0.417000        1.0080           0
   43138 WT2  7281 TIP3 H2   HT     0.417000        1.0080           0
   43139 WT2  7283 TIP3 OH2  OT    -0.834000       15.9994           0
   43140 WT2  7283 TIP3 H1   HT     0.417000        1.0080           0
   43141 WT2  7283 TIP3 H2   HT     0.417000        1.0080           0
   43142 WT2  7284 TIP3 OH2  OT    -0.834000       15.9994           0
   43143 WT2  7284 TIP3 H1   HT     0.417000        1.0080           0
   43144 WT2  7284 TIP3 H2   HT     0.417000        1.0080           0
   43145 WT2  7286 TIP3 OH2  OT    -0.834000       15.9994           0
   43146 WT2  7286 TIP3 H1   HT     0.417000        1.0080           0
   43147 WT2  7286 TIP3 H2   HT     0.417000        1.0080           0
   43148 WT2  7287 TIP3 OH2  OT    -0.834000       15.9994           0
   43149 WT2  7287 TIP3 H1   HT     0.417000        1.0080           0
   43150 WT2  7287 TIP3 H2   HT     0.417000        1.0080           0
   43151 WT2  7288 TIP3 OH2  OT    -0.834000       15.9994           0
   43152 WT2  7288 TIP3 H1   HT     0.417000        1.0080           0
   43153 WT2  7288 TIP3 H2   HT     0.417000        1.0080           0
   43154 WT2  7289 TIP3 OH2  OT    -0.834000       15.9994           0
   43155 WT2  7289 TIP3 H1   HT     0.417000        1.0080           0
   43156 WT2  7289 TIP3 H2   HT     0.417000        1.0080           0
   43157 WT2  7290 TIP3 OH2  OT    -0.834000       15.9994           0
   43158 WT2  7290 TIP3 H1   HT     0.417000        1.0080           0
   43159 WT2  7290 TIP3 H2   HT     0.417000        1.0080           0
   43160 WT2  7291 TIP3 OH2  OT    -0.834000       15.9994           0
   43161 WT2  7291 TIP3 H1   HT     0.417000        1.0080           0
   43162 WT2  7291 TIP3 H2   HT     0.417000        1.0080           0
   43163 WT2  7292 TIP3 OH2  OT    -0.834000       15.9994           0
   43164 WT2  7292 TIP3 H1   HT     0.417000        1.0080           0
   43165 WT2  7292 TIP3 H2   HT     0.417000        1.0080           0
   43166 WT2  7294 TIP3 OH2  OT    -0.834000       15.9994           0
   43167 WT2  7294 TIP3 H1   HT     0.417000        1.0080           0
   43168 WT2  7294 TIP3 H2   HT     0.417000        1.0080           0
   43169 WT2  7295 TIP3 OH2  OT    -0.834000       15.9994           0
   43170 WT2  7295 TIP3 H1   HT     0.417000        1.0080           0
   43171 WT2  7295 TIP3 H2   HT     0.417000        1.0080           0
   43172 WT2  7296 TIP3 OH2  OT    -0.834000       15.9994           0
   43173 WT2  7296 TIP3 H1   HT     0.417000        1.0080           0
   43174 WT2  7296 TIP3 H2   HT     0.417000        1.0080           0
   43175 WT2  7297 TIP3 OH2  OT    -0.834000       15.9994           0
   43176 WT2  7297 TIP3 H1   HT     0.417000        1.0080           0
   43177 WT2  7297 TIP3 H2   HT     0.417000        1.0080           0
   43178 WT2  7298 TIP3 OH2  OT    -0.834000       15.9994           0
   43179 WT2  7298 TIP3 H1   HT     0.417000        1.0080           0
   43180 WT2  7298 TIP3 H2   HT     0.417000        1.0080           0
   43181 WT2  7299 TIP3 OH2  OT    -0.834000       15.9994           0
   43182 WT2  7299 TIP3 H1   HT     0.417000        1.0080           0
   43183 WT2  7299 TIP3 H2   HT     0.417000        1.0080           0
   43184 WT2  7301 TIP3 OH2  OT    -0.834000       15.9994           0
   43185 WT2  7301 TIP3 H1   HT     0.417000        1.0080           0
   43186 WT2  7301 TIP3 H2   HT     0.417000        1.0080           0
   43187 WT2  7302 TIP3 OH2  OT    -0.834000       15.9994           0
   43188 WT2  7302 TIP3 H1   HT     0.417000        1.0080           0
   43189 WT2  7302 TIP3 H2   HT     0.417000        1.0080           0
   43190 WT2  7303 TIP3 OH2  OT    -0.834000       15.9994           0
   43191 WT2  7303 TIP3 H1   HT     0.417000        1.0080           0
   43192 WT2  7303 TIP3 H2   HT     0.417000        1.0080           0
   43193 WT2  7304 TIP3 OH2  OT    -0.834000       15.9994           0
   43194 WT2  7304 TIP3 H1   HT     0.417000        1.0080           0
   43195 WT2  7304 TIP3 H2   HT     0.417000        1.0080           0
   43196 WT2  7306 TIP3 OH2  OT    -0.834000       15.9994           0
   43197 WT2  7306 TIP3 H1   HT     0.417000        1.0080           0
   43198 WT2  7306 TIP3 H2   HT     0.417000        1.0080           0
   43199 WT2  7307 TIP3 OH2  OT    -0.834000       15.9994           0
   43200 WT2  7307 TIP3 H1   HT     0.417000        1.0080           0
   43201 WT2  7307 TIP3 H2   HT     0.417000        1.0080           0
   43202 WT2  7309 TIP3 OH2  OT    -0.834000       15.9994           0
   43203 WT2  7309 TIP3 H1   HT     0.417000        1.0080           0
   43204 WT2  7309 TIP3 H2   HT     0.417000        1.0080           0
   43205 WT2  7310 TIP3 OH2  OT    -0.834000       15.9994           0
   43206 WT2  7310 TIP3 H1   HT     0.417000        1.0080           0
   43207 WT2  7310 TIP3 H2   HT     0.417000        1.0080           0
   43208 WT2  7311 TIP3 OH2  OT    -0.834000       15.9994           0
   43209 WT2  7311 TIP3 H1   HT     0.417000        1.0080           0
   43210 WT2  7311 TIP3 H2   HT     0.417000        1.0080           0
   43211 WT2  7312 TIP3 OH2  OT    -0.834000       15.9994           0
   43212 WT2  7312 TIP3 H1   HT     0.417000        1.0080           0
   43213 WT2  7312 TIP3 H2   HT     0.417000        1.0080           0
   43214 WT2  7313 TIP3 OH2  OT    -0.834000       15.9994           0
   43215 WT2  7313 TIP3 H1   HT     0.417000        1.0080           0
   43216 WT2  7313 TIP3 H2   HT     0.417000        1.0080           0
   43217 WT2  7315 TIP3 OH2  OT    -0.834000       15.9994           0
   43218 WT2  7315 TIP3 H1   HT     0.417000        1.0080           0
   43219 WT2  7315 TIP3 H2   HT     0.417000        1.0080           0
   43220 WT2  7316 TIP3 OH2  OT    -0.834000       15.9994           0
   43221 WT2  7316 TIP3 H1   HT     0.417000        1.0080           0
   43222 WT2  7316 TIP3 H2   HT     0.417000        1.0080           0
   43223 WT2  7317 TIP3 OH2  OT    -0.834000       15.9994           0
   43224 WT2  7317 TIP3 H1   HT     0.417000        1.0080           0
   43225 WT2  7317 TIP3 H2   HT     0.417000        1.0080           0
   43226 WT2  7318 TIP3 OH2  OT    -0.834000       15.9994           0
   43227 WT2  7318 TIP3 H1   HT     0.417000        1.0080           0
   43228 WT2  7318 TIP3 H2   HT     0.417000        1.0080           0
   43229 WT2  7319 TIP3 OH2  OT    -0.834000       15.9994           0
   43230 WT2  7319 TIP3 H1   HT     0.417000        1.0080           0
   43231 WT2  7319 TIP3 H2   HT     0.417000        1.0080           0
   43232 WT2  7320 TIP3 OH2  OT    -0.834000       15.9994           0
   43233 WT2  7320 TIP3 H1   HT     0.417000        1.0080           0
   43234 WT2  7320 TIP3 H2   HT     0.417000        1.0080           0
   43235 WT2  7321 TIP3 OH2  OT    -0.834000       15.9994           0
   43236 WT2  7321 TIP3 H1   HT     0.417000        1.0080           0
   43237 WT2  7321 TIP3 H2   HT     0.417000        1.0080           0
   43238 WT2  7323 TIP3 OH2  OT    -0.834000       15.9994           0
   43239 WT2  7323 TIP3 H1   HT     0.417000        1.0080           0
   43240 WT2  7323 TIP3 H2   HT     0.417000        1.0080           0
   43241 WT2  7324 TIP3 OH2  OT    -0.834000       15.9994           0
   43242 WT2  7324 TIP3 H1   HT     0.417000        1.0080           0
   43243 WT2  7324 TIP3 H2   HT     0.417000        1.0080           0
   43244 WT2  7325 TIP3 OH2  OT    -0.834000       15.9994           0
   43245 WT2  7325 TIP3 H1   HT     0.417000        1.0080           0
   43246 WT2  7325 TIP3 H2   HT     0.417000        1.0080           0
   43247 WT2  7327 TIP3 OH2  OT    -0.834000       15.9994           0
   43248 WT2  7327 TIP3 H1   HT     0.417000        1.0080           0
   43249 WT2  7327 TIP3 H2   HT     0.417000        1.0080           0
   43250 WT2  7328 TIP3 OH2  OT    -0.834000       15.9994           0
   43251 WT2  7328 TIP3 H1   HT     0.417000        1.0080           0
   43252 WT2  7328 TIP3 H2   HT     0.417000        1.0080           0
   43253 WT2  7329 TIP3 OH2  OT    -0.834000       15.9994           0
   43254 WT2  7329 TIP3 H1   HT     0.417000        1.0080           0
   43255 WT2  7329 TIP3 H2   HT     0.417000        1.0080           0
   43256 WT2  7330 TIP3 OH2  OT    -0.834000       15.9994           0
   43257 WT2  7330 TIP3 H1   HT     0.417000        1.0080           0
   43258 WT2  7330 TIP3 H2   HT     0.417000        1.0080           0
   43259 WT2  7331 TIP3 OH2  OT    -0.834000       15.9994           0
   43260 WT2  7331 TIP3 H1   HT     0.417000        1.0080           0
   43261 WT2  7331 TIP3 H2   HT     0.417000        1.0080           0
   43262 WT2  7332 TIP3 OH2  OT    -0.834000       15.9994           0
   43263 WT2  7332 TIP3 H1   HT     0.417000        1.0080           0
   43264 WT2  7332 TIP3 H2   HT     0.417000        1.0080           0
   43265 WT2  7334 TIP3 OH2  OT    -0.834000       15.9994           0
   43266 WT2  7334 TIP3 H1   HT     0.417000        1.0080           0
   43267 WT2  7334 TIP3 H2   HT     0.417000        1.0080           0
   43268 WT2  7336 TIP3 OH2  OT    -0.834000       15.9994           0
   43269 WT2  7336 TIP3 H1   HT     0.417000        1.0080           0
   43270 WT2  7336 TIP3 H2   HT     0.417000        1.0080           0
   43271 WT2  7337 TIP3 OH2  OT    -0.834000       15.9994           0
   43272 WT2  7337 TIP3 H1   HT     0.417000        1.0080           0
   43273 WT2  7337 TIP3 H2   HT     0.417000        1.0080           0
   43274 WT2  7339 TIP3 OH2  OT    -0.834000       15.9994           0
   43275 WT2  7339 TIP3 H1   HT     0.417000        1.0080           0
   43276 WT2  7339 TIP3 H2   HT     0.417000        1.0080           0
   43277 WT2  7340 TIP3 OH2  OT    -0.834000       15.9994           0
   43278 WT2  7340 TIP3 H1   HT     0.417000        1.0080           0
   43279 WT2  7340 TIP3 H2   HT     0.417000        1.0080           0
   43280 WT2  7341 TIP3 OH2  OT    -0.834000       15.9994           0
   43281 WT2  7341 TIP3 H1   HT     0.417000        1.0080           0
   43282 WT2  7341 TIP3 H2   HT     0.417000        1.0080           0
   43283 WT2  7343 TIP3 OH2  OT    -0.834000       15.9994           0
   43284 WT2  7343 TIP3 H1   HT     0.417000        1.0080           0
   43285 WT2  7343 TIP3 H2   HT     0.417000        1.0080           0
   43286 WT2  7344 TIP3 OH2  OT    -0.834000       15.9994           0
   43287 WT2  7344 TIP3 H1   HT     0.417000        1.0080           0
   43288 WT2  7344 TIP3 H2   HT     0.417000        1.0080           0
   43289 WT2  7345 TIP3 OH2  OT    -0.834000       15.9994           0
   43290 WT2  7345 TIP3 H1   HT     0.417000        1.0080           0
   43291 WT2  7345 TIP3 H2   HT     0.417000        1.0080           0
   43292 WT2  7346 TIP3 OH2  OT    -0.834000       15.9994           0
   43293 WT2  7346 TIP3 H1   HT     0.417000        1.0080           0
   43294 WT2  7346 TIP3 H2   HT     0.417000        1.0080           0
   43295 WT2  7347 TIP3 OH2  OT    -0.834000       15.9994           0
   43296 WT2  7347 TIP3 H1   HT     0.417000        1.0080           0
   43297 WT2  7347 TIP3 H2   HT     0.417000        1.0080           0
   43298 WT2  7348 TIP3 OH2  OT    -0.834000       15.9994           0
   43299 WT2  7348 TIP3 H1   HT     0.417000        1.0080           0
   43300 WT2  7348 TIP3 H2   HT     0.417000        1.0080           0
   43301 WT2  7349 TIP3 OH2  OT    -0.834000       15.9994           0
   43302 WT2  7349 TIP3 H1   HT     0.417000        1.0080           0
   43303 WT2  7349 TIP3 H2   HT     0.417000        1.0080           0
   43304 WT2  7350 TIP3 OH2  OT    -0.834000       15.9994           0
   43305 WT2  7350 TIP3 H1   HT     0.417000        1.0080           0
   43306 WT2  7350 TIP3 H2   HT     0.417000        1.0080           0
   43307 WT2  7351 TIP3 OH2  OT    -0.834000       15.9994           0
   43308 WT2  7351 TIP3 H1   HT     0.417000        1.0080           0
   43309 WT2  7351 TIP3 H2   HT     0.417000        1.0080           0
   43310 WT2  7353 TIP3 OH2  OT    -0.834000       15.9994           0
   43311 WT2  7353 TIP3 H1   HT     0.417000        1.0080           0
   43312 WT2  7353 TIP3 H2   HT     0.417000        1.0080           0
   43313 WT2  7354 TIP3 OH2  OT    -0.834000       15.9994           0
   43314 WT2  7354 TIP3 H1   HT     0.417000        1.0080           0
   43315 WT2  7354 TIP3 H2   HT     0.417000        1.0080           0
   43316 WT2  7355 TIP3 OH2  OT    -0.834000       15.9994           0
   43317 WT2  7355 TIP3 H1   HT     0.417000        1.0080           0
   43318 WT2  7355 TIP3 H2   HT     0.417000        1.0080           0
   43319 WT2  7356 TIP3 OH2  OT    -0.834000       15.9994           0
   43320 WT2  7356 TIP3 H1   HT     0.417000        1.0080           0
   43321 WT2  7356 TIP3 H2   HT     0.417000        1.0080           0
   43322 WT2  7357 TIP3 OH2  OT    -0.834000       15.9994           0
   43323 WT2  7357 TIP3 H1   HT     0.417000        1.0080           0
   43324 WT2  7357 TIP3 H2   HT     0.417000        1.0080           0
   43325 WT2  7358 TIP3 OH2  OT    -0.834000       15.9994           0
   43326 WT2  7358 TIP3 H1   HT     0.417000        1.0080           0
   43327 WT2  7358 TIP3 H2   HT     0.417000        1.0080           0
   43328 WT2  7359 TIP3 OH2  OT    -0.834000       15.9994           0
   43329 WT2  7359 TIP3 H1   HT     0.417000        1.0080           0
   43330 WT2  7359 TIP3 H2   HT     0.417000        1.0080           0
   43331 WT2  7360 TIP3 OH2  OT    -0.834000       15.9994           0
   43332 WT2  7360 TIP3 H1   HT     0.417000        1.0080           0
   43333 WT2  7360 TIP3 H2   HT     0.417000        1.0080           0
   43334 WT2  7361 TIP3 OH2  OT    -0.834000       15.9994           0
   43335 WT2  7361 TIP3 H1   HT     0.417000        1.0080           0
   43336 WT2  7361 TIP3 H2   HT     0.417000        1.0080           0
   43337 WT2  7362 TIP3 OH2  OT    -0.834000       15.9994           0
   43338 WT2  7362 TIP3 H1   HT     0.417000        1.0080           0
   43339 WT2  7362 TIP3 H2   HT     0.417000        1.0080           0
   43340 WT2  7363 TIP3 OH2  OT    -0.834000       15.9994           0
   43341 WT2  7363 TIP3 H1   HT     0.417000        1.0080           0
   43342 WT2  7363 TIP3 H2   HT     0.417000        1.0080           0
   43343 WT2  7364 TIP3 OH2  OT    -0.834000       15.9994           0
   43344 WT2  7364 TIP3 H1   HT     0.417000        1.0080           0
   43345 WT2  7364 TIP3 H2   HT     0.417000        1.0080           0
   43346 WT2  7365 TIP3 OH2  OT    -0.834000       15.9994           0
   43347 WT2  7365 TIP3 H1   HT     0.417000        1.0080           0
   43348 WT2  7365 TIP3 H2   HT     0.417000        1.0080           0
   43349 WT2  7366 TIP3 OH2  OT    -0.834000       15.9994           0
   43350 WT2  7366 TIP3 H1   HT     0.417000        1.0080           0
   43351 WT2  7366 TIP3 H2   HT     0.417000        1.0080           0
   43352 WT2  7367 TIP3 OH2  OT    -0.834000       15.9994           0
   43353 WT2  7367 TIP3 H1   HT     0.417000        1.0080           0
   43354 WT2  7367 TIP3 H2   HT     0.417000        1.0080           0
   43355 WT2  7368 TIP3 OH2  OT    -0.834000       15.9994           0
   43356 WT2  7368 TIP3 H1   HT     0.417000        1.0080           0
   43357 WT2  7368 TIP3 H2   HT     0.417000        1.0080           0
   43358 WT2  7369 TIP3 OH2  OT    -0.834000       15.9994           0
   43359 WT2  7369 TIP3 H1   HT     0.417000        1.0080           0
   43360 WT2  7369 TIP3 H2   HT     0.417000        1.0080           0
   43361 WT2  7370 TIP3 OH2  OT    -0.834000       15.9994           0
   43362 WT2  7370 TIP3 H1   HT     0.417000        1.0080           0
   43363 WT2  7370 TIP3 H2   HT     0.417000        1.0080           0
   43364 WT2  7371 TIP3 OH2  OT    -0.834000       15.9994           0
   43365 WT2  7371 TIP3 H1   HT     0.417000        1.0080           0
   43366 WT2  7371 TIP3 H2   HT     0.417000        1.0080           0
   43367 WT2  7372 TIP3 OH2  OT    -0.834000       15.9994           0
   43368 WT2  7372 TIP3 H1   HT     0.417000        1.0080           0
   43369 WT2  7372 TIP3 H2   HT     0.417000        1.0080           0
   43370 WT2  7373 TIP3 OH2  OT    -0.834000       15.9994           0
   43371 WT2  7373 TIP3 H1   HT     0.417000        1.0080           0
   43372 WT2  7373 TIP3 H2   HT     0.417000        1.0080           0
   43373 WT2  7375 TIP3 OH2  OT    -0.834000       15.9994           0
   43374 WT2  7375 TIP3 H1   HT     0.417000        1.0080           0
   43375 WT2  7375 TIP3 H2   HT     0.417000        1.0080           0
   43376 WT2  7376 TIP3 OH2  OT    -0.834000       15.9994           0
   43377 WT2  7376 TIP3 H1   HT     0.417000        1.0080           0
   43378 WT2  7376 TIP3 H2   HT     0.417000        1.0080           0
   43379 WT2  7377 TIP3 OH2  OT    -0.834000       15.9994           0
   43380 WT2  7377 TIP3 H1   HT     0.417000        1.0080           0
   43381 WT2  7377 TIP3 H2   HT     0.417000        1.0080           0
   43382 WT2  7378 TIP3 OH2  OT    -0.834000       15.9994           0
   43383 WT2  7378 TIP3 H1   HT     0.417000        1.0080           0
   43384 WT2  7378 TIP3 H2   HT     0.417000        1.0080           0
   43385 WT2  7379 TIP3 OH2  OT    -0.834000       15.9994           0
   43386 WT2  7379 TIP3 H1   HT     0.417000        1.0080           0
   43387 WT2  7379 TIP3 H2   HT     0.417000        1.0080           0
   43388 WT2  7381 TIP3 OH2  OT    -0.834000       15.9994           0
   43389 WT2  7381 TIP3 H1   HT     0.417000        1.0080           0
   43390 WT2  7381 TIP3 H2   HT     0.417000        1.0080           0
   43391 WT2  7382 TIP3 OH2  OT    -0.834000       15.9994           0
   43392 WT2  7382 TIP3 H1   HT     0.417000        1.0080           0
   43393 WT2  7382 TIP3 H2   HT     0.417000        1.0080           0
   43394 WT2  7383 TIP3 OH2  OT    -0.834000       15.9994           0
   43395 WT2  7383 TIP3 H1   HT     0.417000        1.0080           0
   43396 WT2  7383 TIP3 H2   HT     0.417000        1.0080           0
   43397 WT2  7384 TIP3 OH2  OT    -0.834000       15.9994           0
   43398 WT2  7384 TIP3 H1   HT     0.417000        1.0080           0
   43399 WT2  7384 TIP3 H2   HT     0.417000        1.0080           0
   43400 WT2  7385 TIP3 OH2  OT    -0.834000       15.9994           0
   43401 WT2  7385 TIP3 H1   HT     0.417000        1.0080           0
   43402 WT2  7385 TIP3 H2   HT     0.417000        1.0080           0
   43403 WT2  7387 TIP3 OH2  OT    -0.834000       15.9994           0
   43404 WT2  7387 TIP3 H1   HT     0.417000        1.0080           0
   43405 WT2  7387 TIP3 H2   HT     0.417000        1.0080           0
   43406 WT2  7388 TIP3 OH2  OT    -0.834000       15.9994           0
   43407 WT2  7388 TIP3 H1   HT     0.417000        1.0080           0
   43408 WT2  7388 TIP3 H2   HT     0.417000        1.0080           0
   43409 WT2  7389 TIP3 OH2  OT    -0.834000       15.9994           0
   43410 WT2  7389 TIP3 H1   HT     0.417000        1.0080           0
   43411 WT2  7389 TIP3 H2   HT     0.417000        1.0080           0
   43412 WT2  7390 TIP3 OH2  OT    -0.834000       15.9994           0
   43413 WT2  7390 TIP3 H1   HT     0.417000        1.0080           0
   43414 WT2  7390 TIP3 H2   HT     0.417000        1.0080           0
   43415 WT2  7391 TIP3 OH2  OT    -0.834000       15.9994           0
   43416 WT2  7391 TIP3 H1   HT     0.417000        1.0080           0
   43417 WT2  7391 TIP3 H2   HT     0.417000        1.0080           0
   43418 WT2  7392 TIP3 OH2  OT    -0.834000       15.9994           0
   43419 WT2  7392 TIP3 H1   HT     0.417000        1.0080           0
   43420 WT2  7392 TIP3 H2   HT     0.417000        1.0080           0
   43421 WT2  7393 TIP3 OH2  OT    -0.834000       15.9994           0
   43422 WT2  7393 TIP3 H1   HT     0.417000        1.0080           0
   43423 WT2  7393 TIP3 H2   HT     0.417000        1.0080           0
   43424 WT2  7394 TIP3 OH2  OT    -0.834000       15.9994           0
   43425 WT2  7394 TIP3 H1   HT     0.417000        1.0080           0
   43426 WT2  7394 TIP3 H2   HT     0.417000        1.0080           0
   43427 WT2  7396 TIP3 OH2  OT    -0.834000       15.9994           0
   43428 WT2  7396 TIP3 H1   HT     0.417000        1.0080           0
   43429 WT2  7396 TIP3 H2   HT     0.417000        1.0080           0
   43430 WT2  7398 TIP3 OH2  OT    -0.834000       15.9994           0
   43431 WT2  7398 TIP3 H1   HT     0.417000        1.0080           0
   43432 WT2  7398 TIP3 H2   HT     0.417000        1.0080           0
   43433 WT2  7399 TIP3 OH2  OT    -0.834000       15.9994           0
   43434 WT2  7399 TIP3 H1   HT     0.417000        1.0080           0
   43435 WT2  7399 TIP3 H2   HT     0.417000        1.0080           0
   43436 WT2  7400 TIP3 OH2  OT    -0.834000       15.9994           0
   43437 WT2  7400 TIP3 H1   HT     0.417000        1.0080           0
   43438 WT2  7400 TIP3 H2   HT     0.417000        1.0080           0
   43439 WT2  7401 TIP3 OH2  OT    -0.834000       15.9994           0
   43440 WT2  7401 TIP3 H1   HT     0.417000        1.0080           0
   43441 WT2  7401 TIP3 H2   HT     0.417000        1.0080           0
   43442 WT2  7402 TIP3 OH2  OT    -0.834000       15.9994           0
   43443 WT2  7402 TIP3 H1   HT     0.417000        1.0080           0
   43444 WT2  7402 TIP3 H2   HT     0.417000        1.0080           0
   43445 WT2  7403 TIP3 OH2  OT    -0.834000       15.9994           0
   43446 WT2  7403 TIP3 H1   HT     0.417000        1.0080           0
   43447 WT2  7403 TIP3 H2   HT     0.417000        1.0080           0
   43448 WT2  7404 TIP3 OH2  OT    -0.834000       15.9994           0
   43449 WT2  7404 TIP3 H1   HT     0.417000        1.0080           0
   43450 WT2  7404 TIP3 H2   HT     0.417000        1.0080           0
   43451 WT2  7405 TIP3 OH2  OT    -0.834000       15.9994           0
   43452 WT2  7405 TIP3 H1   HT     0.417000        1.0080           0
   43453 WT2  7405 TIP3 H2   HT     0.417000        1.0080           0
   43454 WT2  7406 TIP3 OH2  OT    -0.834000       15.9994           0
   43455 WT2  7406 TIP3 H1   HT     0.417000        1.0080           0
   43456 WT2  7406 TIP3 H2   HT     0.417000        1.0080           0
   43457 WT2  7407 TIP3 OH2  OT    -0.834000       15.9994           0
   43458 WT2  7407 TIP3 H1   HT     0.417000        1.0080           0
   43459 WT2  7407 TIP3 H2   HT     0.417000        1.0080           0
   43460 WT2  7408 TIP3 OH2  OT    -0.834000       15.9994           0
   43461 WT2  7408 TIP3 H1   HT     0.417000        1.0080           0
   43462 WT2  7408 TIP3 H2   HT     0.417000        1.0080           0
   43463 WT2  7409 TIP3 OH2  OT    -0.834000       15.9994           0
   43464 WT2  7409 TIP3 H1   HT     0.417000        1.0080           0
   43465 WT2  7409 TIP3 H2   HT     0.417000        1.0080           0
   43466 WT2  7410 TIP3 OH2  OT    -0.834000       15.9994           0
   43467 WT2  7410 TIP3 H1   HT     0.417000        1.0080           0
   43468 WT2  7410 TIP3 H2   HT     0.417000        1.0080           0
   43469 WT2  7411 TIP3 OH2  OT    -0.834000       15.9994           0
   43470 WT2  7411 TIP3 H1   HT     0.417000        1.0080           0
   43471 WT2  7411 TIP3 H2   HT     0.417000        1.0080           0
   43472 WT2  7413 TIP3 OH2  OT    -0.834000       15.9994           0
   43473 WT2  7413 TIP3 H1   HT     0.417000        1.0080           0
   43474 WT2  7413 TIP3 H2   HT     0.417000        1.0080           0
   43475 WT2  7414 TIP3 OH2  OT    -0.834000       15.9994           0
   43476 WT2  7414 TIP3 H1   HT     0.417000        1.0080           0
   43477 WT2  7414 TIP3 H2   HT     0.417000        1.0080           0
   43478 WT2  7415 TIP3 OH2  OT    -0.834000       15.9994           0
   43479 WT2  7415 TIP3 H1   HT     0.417000        1.0080           0
   43480 WT2  7415 TIP3 H2   HT     0.417000        1.0080           0
   43481 WT2  7416 TIP3 OH2  OT    -0.834000       15.9994           0
   43482 WT2  7416 TIP3 H1   HT     0.417000        1.0080           0
   43483 WT2  7416 TIP3 H2   HT     0.417000        1.0080           0
   43484 WT2  7417 TIP3 OH2  OT    -0.834000       15.9994           0
   43485 WT2  7417 TIP3 H1   HT     0.417000        1.0080           0
   43486 WT2  7417 TIP3 H2   HT     0.417000        1.0080           0
   43487 WT2  7418 TIP3 OH2  OT    -0.834000       15.9994           0
   43488 WT2  7418 TIP3 H1   HT     0.417000        1.0080           0
   43489 WT2  7418 TIP3 H2   HT     0.417000        1.0080           0
   43490 WT2  7419 TIP3 OH2  OT    -0.834000       15.9994           0
   43491 WT2  7419 TIP3 H1   HT     0.417000        1.0080           0
   43492 WT2  7419 TIP3 H2   HT     0.417000        1.0080           0
   43493 WT2  7420 TIP3 OH2  OT    -0.834000       15.9994           0
   43494 WT2  7420 TIP3 H1   HT     0.417000        1.0080           0
   43495 WT2  7420 TIP3 H2   HT     0.417000        1.0080           0
   43496 WT2  7423 TIP3 OH2  OT    -0.834000       15.9994           0
   43497 WT2  7423 TIP3 H1   HT     0.417000        1.0080           0
   43498 WT2  7423 TIP3 H2   HT     0.417000        1.0080           0
   43499 WT2  7424 TIP3 OH2  OT    -0.834000       15.9994           0
   43500 WT2  7424 TIP3 H1   HT     0.417000        1.0080           0
   43501 WT2  7424 TIP3 H2   HT     0.417000        1.0080           0
   43502 WT2  7425 TIP3 OH2  OT    -0.834000       15.9994           0
   43503 WT2  7425 TIP3 H1   HT     0.417000        1.0080           0
   43504 WT2  7425 TIP3 H2   HT     0.417000        1.0080           0
   43505 WT2  7426 TIP3 OH2  OT    -0.834000       15.9994           0
   43506 WT2  7426 TIP3 H1   HT     0.417000        1.0080           0
   43507 WT2  7426 TIP3 H2   HT     0.417000        1.0080           0
   43508 WT2  7427 TIP3 OH2  OT    -0.834000       15.9994           0
   43509 WT2  7427 TIP3 H1   HT     0.417000        1.0080           0
   43510 WT2  7427 TIP3 H2   HT     0.417000        1.0080           0
   43511 WT2  7429 TIP3 OH2  OT    -0.834000       15.9994           0
   43512 WT2  7429 TIP3 H1   HT     0.417000        1.0080           0
   43513 WT2  7429 TIP3 H2   HT     0.417000        1.0080           0
   43514 WT2  7430 TIP3 OH2  OT    -0.834000       15.9994           0
   43515 WT2  7430 TIP3 H1   HT     0.417000        1.0080           0
   43516 WT2  7430 TIP3 H2   HT     0.417000        1.0080           0
   43517 WT2  7431 TIP3 OH2  OT    -0.834000       15.9994           0
   43518 WT2  7431 TIP3 H1   HT     0.417000        1.0080           0
   43519 WT2  7431 TIP3 H2   HT     0.417000        1.0080           0
   43520 WT2  7432 TIP3 OH2  OT    -0.834000       15.9994           0
   43521 WT2  7432 TIP3 H1   HT     0.417000        1.0080           0
   43522 WT2  7432 TIP3 H2   HT     0.417000        1.0080           0
   43523 WT2  7433 TIP3 OH2  OT    -0.834000       15.9994           0
   43524 WT2  7433 TIP3 H1   HT     0.417000        1.0080           0
   43525 WT2  7433 TIP3 H2   HT     0.417000        1.0080           0
   43526 WT2  7434 TIP3 OH2  OT    -0.834000       15.9994           0
   43527 WT2  7434 TIP3 H1   HT     0.417000        1.0080           0
   43528 WT2  7434 TIP3 H2   HT     0.417000        1.0080           0
   43529 WT2  7436 TIP3 OH2  OT    -0.834000       15.9994           0
   43530 WT2  7436 TIP3 H1   HT     0.417000        1.0080           0
   43531 WT2  7436 TIP3 H2   HT     0.417000        1.0080           0
   43532 WT2  7437 TIP3 OH2  OT    -0.834000       15.9994           0
   43533 WT2  7437 TIP3 H1   HT     0.417000        1.0080           0
   43534 WT2  7437 TIP3 H2   HT     0.417000        1.0080           0
   43535 WT2  7438 TIP3 OH2  OT    -0.834000       15.9994           0
   43536 WT2  7438 TIP3 H1   HT     0.417000        1.0080           0
   43537 WT2  7438 TIP3 H2   HT     0.417000        1.0080           0
   43538 WT2  7439 TIP3 OH2  OT    -0.834000       15.9994           0
   43539 WT2  7439 TIP3 H1   HT     0.417000        1.0080           0
   43540 WT2  7439 TIP3 H2   HT     0.417000        1.0080           0
   43541 WT2  7440 TIP3 OH2  OT    -0.834000       15.9994           0
   43542 WT2  7440 TIP3 H1   HT     0.417000        1.0080           0
   43543 WT2  7440 TIP3 H2   HT     0.417000        1.0080           0
   43544 WT2  7441 TIP3 OH2  OT    -0.834000       15.9994           0
   43545 WT2  7441 TIP3 H1   HT     0.417000        1.0080           0
   43546 WT2  7441 TIP3 H2   HT     0.417000        1.0080           0
   43547 WT2  7442 TIP3 OH2  OT    -0.834000       15.9994           0
   43548 WT2  7442 TIP3 H1   HT     0.417000        1.0080           0
   43549 WT2  7442 TIP3 H2   HT     0.417000        1.0080           0
   43550 WT2  7444 TIP3 OH2  OT    -0.834000       15.9994           0
   43551 WT2  7444 TIP3 H1   HT     0.417000        1.0080           0
   43552 WT2  7444 TIP3 H2   HT     0.417000        1.0080           0
   43553 WT2  7445 TIP3 OH2  OT    -0.834000       15.9994           0
   43554 WT2  7445 TIP3 H1   HT     0.417000        1.0080           0
   43555 WT2  7445 TIP3 H2   HT     0.417000        1.0080           0
   43556 WT2  7446 TIP3 OH2  OT    -0.834000       15.9994           0
   43557 WT2  7446 TIP3 H1   HT     0.417000        1.0080           0
   43558 WT2  7446 TIP3 H2   HT     0.417000        1.0080           0
   43559 WT2  7447 TIP3 OH2  OT    -0.834000       15.9994           0
   43560 WT2  7447 TIP3 H1   HT     0.417000        1.0080           0
   43561 WT2  7447 TIP3 H2   HT     0.417000        1.0080           0
   43562 WT2  7448 TIP3 OH2  OT    -0.834000       15.9994           0
   43563 WT2  7448 TIP3 H1   HT     0.417000        1.0080           0
   43564 WT2  7448 TIP3 H2   HT     0.417000        1.0080           0
   43565 WT2  7449 TIP3 OH2  OT    -0.834000       15.9994           0
   43566 WT2  7449 TIP3 H1   HT     0.417000        1.0080           0
   43567 WT2  7449 TIP3 H2   HT     0.417000        1.0080           0
   43568 WT2  7450 TIP3 OH2  OT    -0.834000       15.9994           0
   43569 WT2  7450 TIP3 H1   HT     0.417000        1.0080           0
   43570 WT2  7450 TIP3 H2   HT     0.417000        1.0080           0
   43571 WT2  7452 TIP3 OH2  OT    -0.834000       15.9994           0
   43572 WT2  7452 TIP3 H1   HT     0.417000        1.0080           0
   43573 WT2  7452 TIP3 H2   HT     0.417000        1.0080           0
   43574 WT2  7453 TIP3 OH2  OT    -0.834000       15.9994           0
   43575 WT2  7453 TIP3 H1   HT     0.417000        1.0080           0
   43576 WT2  7453 TIP3 H2   HT     0.417000        1.0080           0
   43577 WT2  7454 TIP3 OH2  OT    -0.834000       15.9994           0
   43578 WT2  7454 TIP3 H1   HT     0.417000        1.0080           0
   43579 WT2  7454 TIP3 H2   HT     0.417000        1.0080           0
   43580 WT2  7456 TIP3 OH2  OT    -0.834000       15.9994           0
   43581 WT2  7456 TIP3 H1   HT     0.417000        1.0080           0
   43582 WT2  7456 TIP3 H2   HT     0.417000        1.0080           0
   43583 WT2  7457 TIP3 OH2  OT    -0.834000       15.9994           0
   43584 WT2  7457 TIP3 H1   HT     0.417000        1.0080           0
   43585 WT2  7457 TIP3 H2   HT     0.417000        1.0080           0
   43586 WT2  7458 TIP3 OH2  OT    -0.834000       15.9994           0
   43587 WT2  7458 TIP3 H1   HT     0.417000        1.0080           0
   43588 WT2  7458 TIP3 H2   HT     0.417000        1.0080           0
   43589 WT2  7459 TIP3 OH2  OT    -0.834000       15.9994           0
   43590 WT2  7459 TIP3 H1   HT     0.417000        1.0080           0
   43591 WT2  7459 TIP3 H2   HT     0.417000        1.0080           0
   43592 WT2  7460 TIP3 OH2  OT    -0.834000       15.9994           0
   43593 WT2  7460 TIP3 H1   HT     0.417000        1.0080           0
   43594 WT2  7460 TIP3 H2   HT     0.417000        1.0080           0
   43595 WT2  7461 TIP3 OH2  OT    -0.834000       15.9994           0
   43596 WT2  7461 TIP3 H1   HT     0.417000        1.0080           0
   43597 WT2  7461 TIP3 H2   HT     0.417000        1.0080           0
   43598 WT2  7462 TIP3 OH2  OT    -0.834000       15.9994           0
   43599 WT2  7462 TIP3 H1   HT     0.417000        1.0080           0
   43600 WT2  7462 TIP3 H2   HT     0.417000        1.0080           0
   43601 WT2  7463 TIP3 OH2  OT    -0.834000       15.9994           0
   43602 WT2  7463 TIP3 H1   HT     0.417000        1.0080           0
   43603 WT2  7463 TIP3 H2   HT     0.417000        1.0080           0
   43604 WT2  7464 TIP3 OH2  OT    -0.834000       15.9994           0
   43605 WT2  7464 TIP3 H1   HT     0.417000        1.0080           0
   43606 WT2  7464 TIP3 H2   HT     0.417000        1.0080           0
   43607 WT2  7465 TIP3 OH2  OT    -0.834000       15.9994           0
   43608 WT2  7465 TIP3 H1   HT     0.417000        1.0080           0
   43609 WT2  7465 TIP3 H2   HT     0.417000        1.0080           0
   43610 WT2  7466 TIP3 OH2  OT    -0.834000       15.9994           0
   43611 WT2  7466 TIP3 H1   HT     0.417000        1.0080           0
   43612 WT2  7466 TIP3 H2   HT     0.417000        1.0080           0
   43613 WT2  7467 TIP3 OH2  OT    -0.834000       15.9994           0
   43614 WT2  7467 TIP3 H1   HT     0.417000        1.0080           0
   43615 WT2  7467 TIP3 H2   HT     0.417000        1.0080           0
   43616 WT2  7468 TIP3 OH2  OT    -0.834000       15.9994           0
   43617 WT2  7468 TIP3 H1   HT     0.417000        1.0080           0
   43618 WT2  7468 TIP3 H2   HT     0.417000        1.0080           0
   43619 WT2  7469 TIP3 OH2  OT    -0.834000       15.9994           0
   43620 WT2  7469 TIP3 H1   HT     0.417000        1.0080           0
   43621 WT2  7469 TIP3 H2   HT     0.417000        1.0080           0
   43622 WT2  7470 TIP3 OH2  OT    -0.834000       15.9994           0
   43623 WT2  7470 TIP3 H1   HT     0.417000        1.0080           0
   43624 WT2  7470 TIP3 H2   HT     0.417000        1.0080           0
   43625 WT2  7471 TIP3 OH2  OT    -0.834000       15.9994           0
   43626 WT2  7471 TIP3 H1   HT     0.417000        1.0080           0
   43627 WT2  7471 TIP3 H2   HT     0.417000        1.0080           0
   43628 WT2  7472 TIP3 OH2  OT    -0.834000       15.9994           0
   43629 WT2  7472 TIP3 H1   HT     0.417000        1.0080           0
   43630 WT2  7472 TIP3 H2   HT     0.417000        1.0080           0
   43631 WT2  7473 TIP3 OH2  OT    -0.834000       15.9994           0
   43632 WT2  7473 TIP3 H1   HT     0.417000        1.0080           0
   43633 WT2  7473 TIP3 H2   HT     0.417000        1.0080           0
   43634 WT2  7474 TIP3 OH2  OT    -0.834000       15.9994           0
   43635 WT2  7474 TIP3 H1   HT     0.417000        1.0080           0
   43636 WT2  7474 TIP3 H2   HT     0.417000        1.0080           0
   43637 WT2  7475 TIP3 OH2  OT    -0.834000       15.9994           0
   43638 WT2  7475 TIP3 H1   HT     0.417000        1.0080           0
   43639 WT2  7475 TIP3 H2   HT     0.417000        1.0080           0
   43640 WT2  7476 TIP3 OH2  OT    -0.834000       15.9994           0
   43641 WT2  7476 TIP3 H1   HT     0.417000        1.0080           0
   43642 WT2  7476 TIP3 H2   HT     0.417000        1.0080           0
   43643 WT2  7477 TIP3 OH2  OT    -0.834000       15.9994           0
   43644 WT2  7477 TIP3 H1   HT     0.417000        1.0080           0
   43645 WT2  7477 TIP3 H2   HT     0.417000        1.0080           0
   43646 WT2  7478 TIP3 OH2  OT    -0.834000       15.9994           0
   43647 WT2  7478 TIP3 H1   HT     0.417000        1.0080           0
   43648 WT2  7478 TIP3 H2   HT     0.417000        1.0080           0
   43649 WT2  7479 TIP3 OH2  OT    -0.834000       15.9994           0
   43650 WT2  7479 TIP3 H1   HT     0.417000        1.0080           0
   43651 WT2  7479 TIP3 H2   HT     0.417000        1.0080           0
   43652 WT2  7480 TIP3 OH2  OT    -0.834000       15.9994           0
   43653 WT2  7480 TIP3 H1   HT     0.417000        1.0080           0
   43654 WT2  7480 TIP3 H2   HT     0.417000        1.0080           0
   43655 WT2  7481 TIP3 OH2  OT    -0.834000       15.9994           0
   43656 WT2  7481 TIP3 H1   HT     0.417000        1.0080           0
   43657 WT2  7481 TIP3 H2   HT     0.417000        1.0080           0
   43658 WT2  7482 TIP3 OH2  OT    -0.834000       15.9994           0
   43659 WT2  7482 TIP3 H1   HT     0.417000        1.0080           0
   43660 WT2  7482 TIP3 H2   HT     0.417000        1.0080           0
   43661 WT2  7483 TIP3 OH2  OT    -0.834000       15.9994           0
   43662 WT2  7483 TIP3 H1   HT     0.417000        1.0080           0
   43663 WT2  7483 TIP3 H2   HT     0.417000        1.0080           0
   43664 WT2  7484 TIP3 OH2  OT    -0.834000       15.9994           0
   43665 WT2  7484 TIP3 H1   HT     0.417000        1.0080           0
   43666 WT2  7484 TIP3 H2   HT     0.417000        1.0080           0
   43667 WT2  7485 TIP3 OH2  OT    -0.834000       15.9994           0
   43668 WT2  7485 TIP3 H1   HT     0.417000        1.0080           0
   43669 WT2  7485 TIP3 H2   HT     0.417000        1.0080           0
   43670 WT2  7487 TIP3 OH2  OT    -0.834000       15.9994           0
   43671 WT2  7487 TIP3 H1   HT     0.417000        1.0080           0
   43672 WT2  7487 TIP3 H2   HT     0.417000        1.0080           0
   43673 WT2  7488 TIP3 OH2  OT    -0.834000       15.9994           0
   43674 WT2  7488 TIP3 H1   HT     0.417000        1.0080           0
   43675 WT2  7488 TIP3 H2   HT     0.417000        1.0080           0
   43676 WT2  7489 TIP3 OH2  OT    -0.834000       15.9994           0
   43677 WT2  7489 TIP3 H1   HT     0.417000        1.0080           0
   43678 WT2  7489 TIP3 H2   HT     0.417000        1.0080           0
   43679 WT2  7490 TIP3 OH2  OT    -0.834000       15.9994           0
   43680 WT2  7490 TIP3 H1   HT     0.417000        1.0080           0
   43681 WT2  7490 TIP3 H2   HT     0.417000        1.0080           0
   43682 WT2  7491 TIP3 OH2  OT    -0.834000       15.9994           0
   43683 WT2  7491 TIP3 H1   HT     0.417000        1.0080           0
   43684 WT2  7491 TIP3 H2   HT     0.417000        1.0080           0
   43685 WT2  7492 TIP3 OH2  OT    -0.834000       15.9994           0
   43686 WT2  7492 TIP3 H1   HT     0.417000        1.0080           0
   43687 WT2  7492 TIP3 H2   HT     0.417000        1.0080           0
   43688 WT2  7494 TIP3 OH2  OT    -0.834000       15.9994           0
   43689 WT2  7494 TIP3 H1   HT     0.417000        1.0080           0
   43690 WT2  7494 TIP3 H2   HT     0.417000        1.0080           0
   43691 WT2  7495 TIP3 OH2  OT    -0.834000       15.9994           0
   43692 WT2  7495 TIP3 H1   HT     0.417000        1.0080           0
   43693 WT2  7495 TIP3 H2   HT     0.417000        1.0080           0
   43694 WT2  7496 TIP3 OH2  OT    -0.834000       15.9994           0
   43695 WT2  7496 TIP3 H1   HT     0.417000        1.0080           0
   43696 WT2  7496 TIP3 H2   HT     0.417000        1.0080           0
   43697 WT2  7497 TIP3 OH2  OT    -0.834000       15.9994           0
   43698 WT2  7497 TIP3 H1   HT     0.417000        1.0080           0
   43699 WT2  7497 TIP3 H2   HT     0.417000        1.0080           0
   43700 WT2  7498 TIP3 OH2  OT    -0.834000       15.9994           0
   43701 WT2  7498 TIP3 H1   HT     0.417000        1.0080           0
   43702 WT2  7498 TIP3 H2   HT     0.417000        1.0080           0
   43703 WT2  7499 TIP3 OH2  OT    -0.834000       15.9994           0
   43704 WT2  7499 TIP3 H1   HT     0.417000        1.0080           0
   43705 WT2  7499 TIP3 H2   HT     0.417000        1.0080           0
   43706 WT2  7500 TIP3 OH2  OT    -0.834000       15.9994           0
   43707 WT2  7500 TIP3 H1   HT     0.417000        1.0080           0
   43708 WT2  7500 TIP3 H2   HT     0.417000        1.0080           0
   43709 WT2  7501 TIP3 OH2  OT    -0.834000       15.9994           0
   43710 WT2  7501 TIP3 H1   HT     0.417000        1.0080           0
   43711 WT2  7501 TIP3 H2   HT     0.417000        1.0080           0
   43712 WT2  7502 TIP3 OH2  OT    -0.834000       15.9994           0
   43713 WT2  7502 TIP3 H1   HT     0.417000        1.0080           0
   43714 WT2  7502 TIP3 H2   HT     0.417000        1.0080           0
   43715 WT2  7503 TIP3 OH2  OT    -0.834000       15.9994           0
   43716 WT2  7503 TIP3 H1   HT     0.417000        1.0080           0
   43717 WT2  7503 TIP3 H2   HT     0.417000        1.0080           0
   43718 WT2  7504 TIP3 OH2  OT    -0.834000       15.9994           0
   43719 WT2  7504 TIP3 H1   HT     0.417000        1.0080           0
   43720 WT2  7504 TIP3 H2   HT     0.417000        1.0080           0
   43721 WT2  7505 TIP3 OH2  OT    -0.834000       15.9994           0
   43722 WT2  7505 TIP3 H1   HT     0.417000        1.0080           0
   43723 WT2  7505 TIP3 H2   HT     0.417000        1.0080           0
   43724 WT2  7506 TIP3 OH2  OT    -0.834000       15.9994           0
   43725 WT2  7506 TIP3 H1   HT     0.417000        1.0080           0
   43726 WT2  7506 TIP3 H2   HT     0.417000        1.0080           0
   43727 WT2  7507 TIP3 OH2  OT    -0.834000       15.9994           0
   43728 WT2  7507 TIP3 H1   HT     0.417000        1.0080           0
   43729 WT2  7507 TIP3 H2   HT     0.417000        1.0080           0
   43730 WT2  7508 TIP3 OH2  OT    -0.834000       15.9994           0
   43731 WT2  7508 TIP3 H1   HT     0.417000        1.0080           0
   43732 WT2  7508 TIP3 H2   HT     0.417000        1.0080           0
   43733 WT2  7509 TIP3 OH2  OT    -0.834000       15.9994           0
   43734 WT2  7509 TIP3 H1   HT     0.417000        1.0080           0
   43735 WT2  7509 TIP3 H2   HT     0.417000        1.0080           0
   43736 WT2  7510 TIP3 OH2  OT    -0.834000       15.9994           0
   43737 WT2  7510 TIP3 H1   HT     0.417000        1.0080           0
   43738 WT2  7510 TIP3 H2   HT     0.417000        1.0080           0
   43739 WT2  7511 TIP3 OH2  OT    -0.834000       15.9994           0
   43740 WT2  7511 TIP3 H1   HT     0.417000        1.0080           0
   43741 WT2  7511 TIP3 H2   HT     0.417000        1.0080           0
   43742 WT2  7512 TIP3 OH2  OT    -0.834000       15.9994           0
   43743 WT2  7512 TIP3 H1   HT     0.417000        1.0080           0
   43744 WT2  7512 TIP3 H2   HT     0.417000        1.0080           0
   43745 WT2  7513 TIP3 OH2  OT    -0.834000       15.9994           0
   43746 WT2  7513 TIP3 H1   HT     0.417000        1.0080           0
   43747 WT2  7513 TIP3 H2   HT     0.417000        1.0080           0
   43748 WT2  7514 TIP3 OH2  OT    -0.834000       15.9994           0
   43749 WT2  7514 TIP3 H1   HT     0.417000        1.0080           0
   43750 WT2  7514 TIP3 H2   HT     0.417000        1.0080           0
   43751 WT2  7515 TIP3 OH2  OT    -0.834000       15.9994           0
   43752 WT2  7515 TIP3 H1   HT     0.417000        1.0080           0
   43753 WT2  7515 TIP3 H2   HT     0.417000        1.0080           0
   43754 WT2  7516 TIP3 OH2  OT    -0.834000       15.9994           0
   43755 WT2  7516 TIP3 H1   HT     0.417000        1.0080           0
   43756 WT2  7516 TIP3 H2   HT     0.417000        1.0080           0
   43757 WT2  7517 TIP3 OH2  OT    -0.834000       15.9994           0
   43758 WT2  7517 TIP3 H1   HT     0.417000        1.0080           0
   43759 WT2  7517 TIP3 H2   HT     0.417000        1.0080           0
   43760 WT2  7518 TIP3 OH2  OT    -0.834000       15.9994           0
   43761 WT2  7518 TIP3 H1   HT     0.417000        1.0080           0
   43762 WT2  7518 TIP3 H2   HT     0.417000        1.0080           0
   43763 WT2  7519 TIP3 OH2  OT    -0.834000       15.9994           0
   43764 WT2  7519 TIP3 H1   HT     0.417000        1.0080           0
   43765 WT2  7519 TIP3 H2   HT     0.417000        1.0080           0
   43766 WT2  7520 TIP3 OH2  OT    -0.834000       15.9994           0
   43767 WT2  7520 TIP3 H1   HT     0.417000        1.0080           0
   43768 WT2  7520 TIP3 H2   HT     0.417000        1.0080           0
   43769 WT2  7522 TIP3 OH2  OT    -0.834000       15.9994           0
   43770 WT2  7522 TIP3 H1   HT     0.417000        1.0080           0
   43771 WT2  7522 TIP3 H2   HT     0.417000        1.0080           0
   43772 WT2  7523 TIP3 OH2  OT    -0.834000       15.9994           0
   43773 WT2  7523 TIP3 H1   HT     0.417000        1.0080           0
   43774 WT2  7523 TIP3 H2   HT     0.417000        1.0080           0
   43775 WT2  7526 TIP3 OH2  OT    -0.834000       15.9994           0
   43776 WT2  7526 TIP3 H1   HT     0.417000        1.0080           0
   43777 WT2  7526 TIP3 H2   HT     0.417000        1.0080           0
   43778 WT2  7527 TIP3 OH2  OT    -0.834000       15.9994           0
   43779 WT2  7527 TIP3 H1   HT     0.417000        1.0080           0
   43780 WT2  7527 TIP3 H2   HT     0.417000        1.0080           0
   43781 WT2  7529 TIP3 OH2  OT    -0.834000       15.9994           0
   43782 WT2  7529 TIP3 H1   HT     0.417000        1.0080           0
   43783 WT2  7529 TIP3 H2   HT     0.417000        1.0080           0
   43784 WT2  7530 TIP3 OH2  OT    -0.834000       15.9994           0
   43785 WT2  7530 TIP3 H1   HT     0.417000        1.0080           0
   43786 WT2  7530 TIP3 H2   HT     0.417000        1.0080           0
   43787 WT2  7531 TIP3 OH2  OT    -0.834000       15.9994           0
   43788 WT2  7531 TIP3 H1   HT     0.417000        1.0080           0
   43789 WT2  7531 TIP3 H2   HT     0.417000        1.0080           0
   43790 WT2  7532 TIP3 OH2  OT    -0.834000       15.9994           0
   43791 WT2  7532 TIP3 H1   HT     0.417000        1.0080           0
   43792 WT2  7532 TIP3 H2   HT     0.417000        1.0080           0
   43793 WT2  7534 TIP3 OH2  OT    -0.834000       15.9994           0
   43794 WT2  7534 TIP3 H1   HT     0.417000        1.0080           0
   43795 WT2  7534 TIP3 H2   HT     0.417000        1.0080           0
   43796 WT2  7536 TIP3 OH2  OT    -0.834000       15.9994           0
   43797 WT2  7536 TIP3 H1   HT     0.417000        1.0080           0
   43798 WT2  7536 TIP3 H2   HT     0.417000        1.0080           0
   43799 WT2  7537 TIP3 OH2  OT    -0.834000       15.9994           0
   43800 WT2  7537 TIP3 H1   HT     0.417000        1.0080           0
   43801 WT2  7537 TIP3 H2   HT     0.417000        1.0080           0
   43802 WT2  7538 TIP3 OH2  OT    -0.834000       15.9994           0
   43803 WT2  7538 TIP3 H1   HT     0.417000        1.0080           0
   43804 WT2  7538 TIP3 H2   HT     0.417000        1.0080           0
   43805 WT2  7539 TIP3 OH2  OT    -0.834000       15.9994           0
   43806 WT2  7539 TIP3 H1   HT     0.417000        1.0080           0
   43807 WT2  7539 TIP3 H2   HT     0.417000        1.0080           0
   43808 WT2  7540 TIP3 OH2  OT    -0.834000       15.9994           0
   43809 WT2  7540 TIP3 H1   HT     0.417000        1.0080           0
   43810 WT2  7540 TIP3 H2   HT     0.417000        1.0080           0
   43811 WT2  7541 TIP3 OH2  OT    -0.834000       15.9994           0
   43812 WT2  7541 TIP3 H1   HT     0.417000        1.0080           0
   43813 WT2  7541 TIP3 H2   HT     0.417000        1.0080           0
   43814 WT2  7542 TIP3 OH2  OT    -0.834000       15.9994           0
   43815 WT2  7542 TIP3 H1   HT     0.417000        1.0080           0
   43816 WT2  7542 TIP3 H2   HT     0.417000        1.0080           0
   43817 WT2  7544 TIP3 OH2  OT    -0.834000       15.9994           0
   43818 WT2  7544 TIP3 H1   HT     0.417000        1.0080           0
   43819 WT2  7544 TIP3 H2   HT     0.417000        1.0080           0
   43820 WT2  7545 TIP3 OH2  OT    -0.834000       15.9994           0
   43821 WT2  7545 TIP3 H1   HT     0.417000        1.0080           0
   43822 WT2  7545 TIP3 H2   HT     0.417000        1.0080           0
   43823 WT2  7546 TIP3 OH2  OT    -0.834000       15.9994           0
   43824 WT2  7546 TIP3 H1   HT     0.417000        1.0080           0
   43825 WT2  7546 TIP3 H2   HT     0.417000        1.0080           0
   43826 WT2  7547 TIP3 OH2  OT    -0.834000       15.9994           0
   43827 WT2  7547 TIP3 H1   HT     0.417000        1.0080           0
   43828 WT2  7547 TIP3 H2   HT     0.417000        1.0080           0
   43829 WT2  7548 TIP3 OH2  OT    -0.834000       15.9994           0
   43830 WT2  7548 TIP3 H1   HT     0.417000        1.0080           0
   43831 WT2  7548 TIP3 H2   HT     0.417000        1.0080           0
   43832 WT2  7550 TIP3 OH2  OT    -0.834000       15.9994           0
   43833 WT2  7550 TIP3 H1   HT     0.417000        1.0080           0
   43834 WT2  7550 TIP3 H2   HT     0.417000        1.0080           0
   43835 WT2  7551 TIP3 OH2  OT    -0.834000       15.9994           0
   43836 WT2  7551 TIP3 H1   HT     0.417000        1.0080           0
   43837 WT2  7551 TIP3 H2   HT     0.417000        1.0080           0
   43838 WT2  7552 TIP3 OH2  OT    -0.834000       15.9994           0
   43839 WT2  7552 TIP3 H1   HT     0.417000        1.0080           0
   43840 WT2  7552 TIP3 H2   HT     0.417000        1.0080           0
   43841 WT2  7553 TIP3 OH2  OT    -0.834000       15.9994           0
   43842 WT2  7553 TIP3 H1   HT     0.417000        1.0080           0
   43843 WT2  7553 TIP3 H2   HT     0.417000        1.0080           0
   43844 WT2  7554 TIP3 OH2  OT    -0.834000       15.9994           0
   43845 WT2  7554 TIP3 H1   HT     0.417000        1.0080           0
   43846 WT2  7554 TIP3 H2   HT     0.417000        1.0080           0
   43847 WT2  7555 TIP3 OH2  OT    -0.834000       15.9994           0
   43848 WT2  7555 TIP3 H1   HT     0.417000        1.0080           0
   43849 WT2  7555 TIP3 H2   HT     0.417000        1.0080           0
   43850 WT2  7556 TIP3 OH2  OT    -0.834000       15.9994           0
   43851 WT2  7556 TIP3 H1   HT     0.417000        1.0080           0
   43852 WT2  7556 TIP3 H2   HT     0.417000        1.0080           0
   43853 WT2  7557 TIP3 OH2  OT    -0.834000       15.9994           0
   43854 WT2  7557 TIP3 H1   HT     0.417000        1.0080           0
   43855 WT2  7557 TIP3 H2   HT     0.417000        1.0080           0
   43856 WT2  7558 TIP3 OH2  OT    -0.834000       15.9994           0
   43857 WT2  7558 TIP3 H1   HT     0.417000        1.0080           0
   43858 WT2  7558 TIP3 H2   HT     0.417000        1.0080           0
   43859 WT2  7559 TIP3 OH2  OT    -0.834000       15.9994           0
   43860 WT2  7559 TIP3 H1   HT     0.417000        1.0080           0
   43861 WT2  7559 TIP3 H2   HT     0.417000        1.0080           0
   43862 WT2  7560 TIP3 OH2  OT    -0.834000       15.9994           0
   43863 WT2  7560 TIP3 H1   HT     0.417000        1.0080           0
   43864 WT2  7560 TIP3 H2   HT     0.417000        1.0080           0
   43865 WT2  7561 TIP3 OH2  OT    -0.834000       15.9994           0
   43866 WT2  7561 TIP3 H1   HT     0.417000        1.0080           0
   43867 WT2  7561 TIP3 H2   HT     0.417000        1.0080           0
   43868 WT2  7562 TIP3 OH2  OT    -0.834000       15.9994           0
   43869 WT2  7562 TIP3 H1   HT     0.417000        1.0080           0
   43870 WT2  7562 TIP3 H2   HT     0.417000        1.0080           0
   43871 WT2  7563 TIP3 OH2  OT    -0.834000       15.9994           0
   43872 WT2  7563 TIP3 H1   HT     0.417000        1.0080           0
   43873 WT2  7563 TIP3 H2   HT     0.417000        1.0080           0
   43874 WT2  7565 TIP3 OH2  OT    -0.834000       15.9994           0
   43875 WT2  7565 TIP3 H1   HT     0.417000        1.0080           0
   43876 WT2  7565 TIP3 H2   HT     0.417000        1.0080           0
   43877 WT2  7566 TIP3 OH2  OT    -0.834000       15.9994           0
   43878 WT2  7566 TIP3 H1   HT     0.417000        1.0080           0
   43879 WT2  7566 TIP3 H2   HT     0.417000        1.0080           0
   43880 WT2  7567 TIP3 OH2  OT    -0.834000       15.9994           0
   43881 WT2  7567 TIP3 H1   HT     0.417000        1.0080           0
   43882 WT2  7567 TIP3 H2   HT     0.417000        1.0080           0
   43883 WT2  7568 TIP3 OH2  OT    -0.834000       15.9994           0
   43884 WT2  7568 TIP3 H1   HT     0.417000        1.0080           0
   43885 WT2  7568 TIP3 H2   HT     0.417000        1.0080           0
   43886 WT2  7569 TIP3 OH2  OT    -0.834000       15.9994           0
   43887 WT2  7569 TIP3 H1   HT     0.417000        1.0080           0
   43888 WT2  7569 TIP3 H2   HT     0.417000        1.0080           0
   43889 WT2  7570 TIP3 OH2  OT    -0.834000       15.9994           0
   43890 WT2  7570 TIP3 H1   HT     0.417000        1.0080           0
   43891 WT2  7570 TIP3 H2   HT     0.417000        1.0080           0
   43892 WT2  7571 TIP3 OH2  OT    -0.834000       15.9994           0
   43893 WT2  7571 TIP3 H1   HT     0.417000        1.0080           0
   43894 WT2  7571 TIP3 H2   HT     0.417000        1.0080           0
   43895 WT2  7572 TIP3 OH2  OT    -0.834000       15.9994           0
   43896 WT2  7572 TIP3 H1   HT     0.417000        1.0080           0
   43897 WT2  7572 TIP3 H2   HT     0.417000        1.0080           0
   43898 WT2  7573 TIP3 OH2  OT    -0.834000       15.9994           0
   43899 WT2  7573 TIP3 H1   HT     0.417000        1.0080           0
   43900 WT2  7573 TIP3 H2   HT     0.417000        1.0080           0
   43901 WT2  7574 TIP3 OH2  OT    -0.834000       15.9994           0
   43902 WT2  7574 TIP3 H1   HT     0.417000        1.0080           0
   43903 WT2  7574 TIP3 H2   HT     0.417000        1.0080           0
   43904 WT2  7575 TIP3 OH2  OT    -0.834000       15.9994           0
   43905 WT2  7575 TIP3 H1   HT     0.417000        1.0080           0
   43906 WT2  7575 TIP3 H2   HT     0.417000        1.0080           0
   43907 WT2  7576 TIP3 OH2  OT    -0.834000       15.9994           0
   43908 WT2  7576 TIP3 H1   HT     0.417000        1.0080           0
   43909 WT2  7576 TIP3 H2   HT     0.417000        1.0080           0
   43910 WT2  7577 TIP3 OH2  OT    -0.834000       15.9994           0
   43911 WT2  7577 TIP3 H1   HT     0.417000        1.0080           0
   43912 WT2  7577 TIP3 H2   HT     0.417000        1.0080           0
   43913 WT2  7578 TIP3 OH2  OT    -0.834000       15.9994           0
   43914 WT2  7578 TIP3 H1   HT     0.417000        1.0080           0
   43915 WT2  7578 TIP3 H2   HT     0.417000        1.0080           0
   43916 WT2  7579 TIP3 OH2  OT    -0.834000       15.9994           0
   43917 WT2  7579 TIP3 H1   HT     0.417000        1.0080           0
   43918 WT2  7579 TIP3 H2   HT     0.417000        1.0080           0
   43919 WT2  7580 TIP3 OH2  OT    -0.834000       15.9994           0
   43920 WT2  7580 TIP3 H1   HT     0.417000        1.0080           0
   43921 WT2  7580 TIP3 H2   HT     0.417000        1.0080           0
   43922 WT2  7581 TIP3 OH2  OT    -0.834000       15.9994           0
   43923 WT2  7581 TIP3 H1   HT     0.417000        1.0080           0
   43924 WT2  7581 TIP3 H2   HT     0.417000        1.0080           0
   43925 WT2  7584 TIP3 OH2  OT    -0.834000       15.9994           0
   43926 WT2  7584 TIP3 H1   HT     0.417000        1.0080           0
   43927 WT2  7584 TIP3 H2   HT     0.417000        1.0080           0
   43928 WT2  7585 TIP3 OH2  OT    -0.834000       15.9994           0
   43929 WT2  7585 TIP3 H1   HT     0.417000        1.0080           0
   43930 WT2  7585 TIP3 H2   HT     0.417000        1.0080           0
   43931 WT2  7586 TIP3 OH2  OT    -0.834000       15.9994           0
   43932 WT2  7586 TIP3 H1   HT     0.417000        1.0080           0
   43933 WT2  7586 TIP3 H2   HT     0.417000        1.0080           0
   43934 WT2  7587 TIP3 OH2  OT    -0.834000       15.9994           0
   43935 WT2  7587 TIP3 H1   HT     0.417000        1.0080           0
   43936 WT2  7587 TIP3 H2   HT     0.417000        1.0080           0
   43937 WT2  7588 TIP3 OH2  OT    -0.834000       15.9994           0
   43938 WT2  7588 TIP3 H1   HT     0.417000        1.0080           0
   43939 WT2  7588 TIP3 H2   HT     0.417000        1.0080           0
   43940 WT2  7589 TIP3 OH2  OT    -0.834000       15.9994           0
   43941 WT2  7589 TIP3 H1   HT     0.417000        1.0080           0
   43942 WT2  7589 TIP3 H2   HT     0.417000        1.0080           0
   43943 WT2  7590 TIP3 OH2  OT    -0.834000       15.9994           0
   43944 WT2  7590 TIP3 H1   HT     0.417000        1.0080           0
   43945 WT2  7590 TIP3 H2   HT     0.417000        1.0080           0
   43946 WT2  7591 TIP3 OH2  OT    -0.834000       15.9994           0
   43947 WT2  7591 TIP3 H1   HT     0.417000        1.0080           0
   43948 WT2  7591 TIP3 H2   HT     0.417000        1.0080           0
   43949 WT2  7592 TIP3 OH2  OT    -0.834000       15.9994           0
   43950 WT2  7592 TIP3 H1   HT     0.417000        1.0080           0
   43951 WT2  7592 TIP3 H2   HT     0.417000        1.0080           0
   43952 WT2  7593 TIP3 OH2  OT    -0.834000       15.9994           0
   43953 WT2  7593 TIP3 H1   HT     0.417000        1.0080           0
   43954 WT2  7593 TIP3 H2   HT     0.417000        1.0080           0
   43955 WT2  7594 TIP3 OH2  OT    -0.834000       15.9994           0
   43956 WT2  7594 TIP3 H1   HT     0.417000        1.0080           0
   43957 WT2  7594 TIP3 H2   HT     0.417000        1.0080           0
   43958 WT2  7595 TIP3 OH2  OT    -0.834000       15.9994           0
   43959 WT2  7595 TIP3 H1   HT     0.417000        1.0080           0
   43960 WT2  7595 TIP3 H2   HT     0.417000        1.0080           0
   43961 WT2  7596 TIP3 OH2  OT    -0.834000       15.9994           0
   43962 WT2  7596 TIP3 H1   HT     0.417000        1.0080           0
   43963 WT2  7596 TIP3 H2   HT     0.417000        1.0080           0
   43964 WT2  7597 TIP3 OH2  OT    -0.834000       15.9994           0
   43965 WT2  7597 TIP3 H1   HT     0.417000        1.0080           0
   43966 WT2  7597 TIP3 H2   HT     0.417000        1.0080           0
   43967 WT2  7598 TIP3 OH2  OT    -0.834000       15.9994           0
   43968 WT2  7598 TIP3 H1   HT     0.417000        1.0080           0
   43969 WT2  7598 TIP3 H2   HT     0.417000        1.0080           0
   43970 WT2  7599 TIP3 OH2  OT    -0.834000       15.9994           0
   43971 WT2  7599 TIP3 H1   HT     0.417000        1.0080           0
   43972 WT2  7599 TIP3 H2   HT     0.417000        1.0080           0
   43973 WT2  7600 TIP3 OH2  OT    -0.834000       15.9994           0
   43974 WT2  7600 TIP3 H1   HT     0.417000        1.0080           0
   43975 WT2  7600 TIP3 H2   HT     0.417000        1.0080           0
   43976 WT2  7601 TIP3 OH2  OT    -0.834000       15.9994           0
   43977 WT2  7601 TIP3 H1   HT     0.417000        1.0080           0
   43978 WT2  7601 TIP3 H2   HT     0.417000        1.0080           0
   43979 WT2  7602 TIP3 OH2  OT    -0.834000       15.9994           0
   43980 WT2  7602 TIP3 H1   HT     0.417000        1.0080           0
   43981 WT2  7602 TIP3 H2   HT     0.417000        1.0080           0
   43982 WT2  7605 TIP3 OH2  OT    -0.834000       15.9994           0
   43983 WT2  7605 TIP3 H1   HT     0.417000        1.0080           0
   43984 WT2  7605 TIP3 H2   HT     0.417000        1.0080           0
   43985 WT2  7606 TIP3 OH2  OT    -0.834000       15.9994           0
   43986 WT2  7606 TIP3 H1   HT     0.417000        1.0080           0
   43987 WT2  7606 TIP3 H2   HT     0.417000        1.0080           0
   43988 WT2  7608 TIP3 OH2  OT    -0.834000       15.9994           0
   43989 WT2  7608 TIP3 H1   HT     0.417000        1.0080           0
   43990 WT2  7608 TIP3 H2   HT     0.417000        1.0080           0
   43991 WT2  7609 TIP3 OH2  OT    -0.834000       15.9994           0
   43992 WT2  7609 TIP3 H1   HT     0.417000        1.0080           0
   43993 WT2  7609 TIP3 H2   HT     0.417000        1.0080           0
   43994 WT2  7610 TIP3 OH2  OT    -0.834000       15.9994           0
   43995 WT2  7610 TIP3 H1   HT     0.417000        1.0080           0
   43996 WT2  7610 TIP3 H2   HT     0.417000        1.0080           0
   43997 WT2  7611 TIP3 OH2  OT    -0.834000       15.9994           0
   43998 WT2  7611 TIP3 H1   HT     0.417000        1.0080           0
   43999 WT2  7611 TIP3 H2   HT     0.417000        1.0080           0
   44000 WT2  7612 TIP3 OH2  OT    -0.834000       15.9994           0
   44001 WT2  7612 TIP3 H1   HT     0.417000        1.0080           0
   44002 WT2  7612 TIP3 H2   HT     0.417000        1.0080           0
   44003 WT2  7613 TIP3 OH2  OT    -0.834000       15.9994           0
   44004 WT2  7613 TIP3 H1   HT     0.417000        1.0080           0
   44005 WT2  7613 TIP3 H2   HT     0.417000        1.0080           0
   44006 WT2  7614 TIP3 OH2  OT    -0.834000       15.9994           0
   44007 WT2  7614 TIP3 H1   HT     0.417000        1.0080           0
   44008 WT2  7614 TIP3 H2   HT     0.417000        1.0080           0
   44009 WT2  7615 TIP3 OH2  OT    -0.834000       15.9994           0
   44010 WT2  7615 TIP3 H1   HT     0.417000        1.0080           0
   44011 WT2  7615 TIP3 H2   HT     0.417000        1.0080           0
   44012 WT2  7616 TIP3 OH2  OT    -0.834000       15.9994           0
   44013 WT2  7616 TIP3 H1   HT     0.417000        1.0080           0
   44014 WT2  7616 TIP3 H2   HT     0.417000        1.0080           0
   44015 WT2  7617 TIP3 OH2  OT    -0.834000       15.9994           0
   44016 WT2  7617 TIP3 H1   HT     0.417000        1.0080           0
   44017 WT2  7617 TIP3 H2   HT     0.417000        1.0080           0
   44018 WT2  7618 TIP3 OH2  OT    -0.834000       15.9994           0
   44019 WT2  7618 TIP3 H1   HT     0.417000        1.0080           0
   44020 WT2  7618 TIP3 H2   HT     0.417000        1.0080           0
   44021 WT2  7619 TIP3 OH2  OT    -0.834000       15.9994           0
   44022 WT2  7619 TIP3 H1   HT     0.417000        1.0080           0
   44023 WT2  7619 TIP3 H2   HT     0.417000        1.0080           0
   44024 WT2  7620 TIP3 OH2  OT    -0.834000       15.9994           0
   44025 WT2  7620 TIP3 H1   HT     0.417000        1.0080           0
   44026 WT2  7620 TIP3 H2   HT     0.417000        1.0080           0
   44027 WT2  7621 TIP3 OH2  OT    -0.834000       15.9994           0
   44028 WT2  7621 TIP3 H1   HT     0.417000        1.0080           0
   44029 WT2  7621 TIP3 H2   HT     0.417000        1.0080           0
   44030 WT2  7622 TIP3 OH2  OT    -0.834000       15.9994           0
   44031 WT2  7622 TIP3 H1   HT     0.417000        1.0080           0
   44032 WT2  7622 TIP3 H2   HT     0.417000        1.0080           0
   44033 WT2  7623 TIP3 OH2  OT    -0.834000       15.9994           0
   44034 WT2  7623 TIP3 H1   HT     0.417000        1.0080           0
   44035 WT2  7623 TIP3 H2   HT     0.417000        1.0080           0
   44036 WT2  7624 TIP3 OH2  OT    -0.834000       15.9994           0
   44037 WT2  7624 TIP3 H1   HT     0.417000        1.0080           0
   44038 WT2  7624 TIP3 H2   HT     0.417000        1.0080           0
   44039 WT2  7625 TIP3 OH2  OT    -0.834000       15.9994           0
   44040 WT2  7625 TIP3 H1   HT     0.417000        1.0080           0
   44041 WT2  7625 TIP3 H2   HT     0.417000        1.0080           0
   44042 WT2  7626 TIP3 OH2  OT    -0.834000       15.9994           0
   44043 WT2  7626 TIP3 H1   HT     0.417000        1.0080           0
   44044 WT2  7626 TIP3 H2   HT     0.417000        1.0080           0
   44045 WT2  7627 TIP3 OH2  OT    -0.834000       15.9994           0
   44046 WT2  7627 TIP3 H1   HT     0.417000        1.0080           0
   44047 WT2  7627 TIP3 H2   HT     0.417000        1.0080           0
   44048 WT2  7631 TIP3 OH2  OT    -0.834000       15.9994           0
   44049 WT2  7631 TIP3 H1   HT     0.417000        1.0080           0
   44050 WT2  7631 TIP3 H2   HT     0.417000        1.0080           0
   44051 WT2  7632 TIP3 OH2  OT    -0.834000       15.9994           0
   44052 WT2  7632 TIP3 H1   HT     0.417000        1.0080           0
   44053 WT2  7632 TIP3 H2   HT     0.417000        1.0080           0
   44054 WT2  7633 TIP3 OH2  OT    -0.834000       15.9994           0
   44055 WT2  7633 TIP3 H1   HT     0.417000        1.0080           0
   44056 WT2  7633 TIP3 H2   HT     0.417000        1.0080           0
   44057 WT2  7634 TIP3 OH2  OT    -0.834000       15.9994           0
   44058 WT2  7634 TIP3 H1   HT     0.417000        1.0080           0
   44059 WT2  7634 TIP3 H2   HT     0.417000        1.0080           0
   44060 WT2  7635 TIP3 OH2  OT    -0.834000       15.9994           0
   44061 WT2  7635 TIP3 H1   HT     0.417000        1.0080           0
   44062 WT2  7635 TIP3 H2   HT     0.417000        1.0080           0
   44063 WT2  7636 TIP3 OH2  OT    -0.834000       15.9994           0
   44064 WT2  7636 TIP3 H1   HT     0.417000        1.0080           0
   44065 WT2  7636 TIP3 H2   HT     0.417000        1.0080           0
   44066 WT2  7637 TIP3 OH2  OT    -0.834000       15.9994           0
   44067 WT2  7637 TIP3 H1   HT     0.417000        1.0080           0
   44068 WT2  7637 TIP3 H2   HT     0.417000        1.0080           0
   44069 WT2  7638 TIP3 OH2  OT    -0.834000       15.9994           0
   44070 WT2  7638 TIP3 H1   HT     0.417000        1.0080           0
   44071 WT2  7638 TIP3 H2   HT     0.417000        1.0080           0
   44072 WT2  7639 TIP3 OH2  OT    -0.834000       15.9994           0
   44073 WT2  7639 TIP3 H1   HT     0.417000        1.0080           0
   44074 WT2  7639 TIP3 H2   HT     0.417000        1.0080           0
   44075 WT2  7641 TIP3 OH2  OT    -0.834000       15.9994           0
   44076 WT2  7641 TIP3 H1   HT     0.417000        1.0080           0
   44077 WT2  7641 TIP3 H2   HT     0.417000        1.0080           0
   44078 WT2  7642 TIP3 OH2  OT    -0.834000       15.9994           0
   44079 WT2  7642 TIP3 H1   HT     0.417000        1.0080           0
   44080 WT2  7642 TIP3 H2   HT     0.417000        1.0080           0
   44081 WT2  7643 TIP3 OH2  OT    -0.834000       15.9994           0
   44082 WT2  7643 TIP3 H1   HT     0.417000        1.0080           0
   44083 WT2  7643 TIP3 H2   HT     0.417000        1.0080           0
   44084 WT2  7644 TIP3 OH2  OT    -0.834000       15.9994           0
   44085 WT2  7644 TIP3 H1   HT     0.417000        1.0080           0
   44086 WT2  7644 TIP3 H2   HT     0.417000        1.0080           0
   44087 WT2  7645 TIP3 OH2  OT    -0.834000       15.9994           0
   44088 WT2  7645 TIP3 H1   HT     0.417000        1.0080           0
   44089 WT2  7645 TIP3 H2   HT     0.417000        1.0080           0
   44090 WT2  7646 TIP3 OH2  OT    -0.834000       15.9994           0
   44091 WT2  7646 TIP3 H1   HT     0.417000        1.0080           0
   44092 WT2  7646 TIP3 H2   HT     0.417000        1.0080           0
   44093 WT2  7647 TIP3 OH2  OT    -0.834000       15.9994           0
   44094 WT2  7647 TIP3 H1   HT     0.417000        1.0080           0
   44095 WT2  7647 TIP3 H2   HT     0.417000        1.0080           0
   44096 WT2  7648 TIP3 OH2  OT    -0.834000       15.9994           0
   44097 WT2  7648 TIP3 H1   HT     0.417000        1.0080           0
   44098 WT2  7648 TIP3 H2   HT     0.417000        1.0080           0
   44099 WT2  7649 TIP3 OH2  OT    -0.834000       15.9994           0
   44100 WT2  7649 TIP3 H1   HT     0.417000        1.0080           0
   44101 WT2  7649 TIP3 H2   HT     0.417000        1.0080           0
   44102 WT2  7650 TIP3 OH2  OT    -0.834000       15.9994           0
   44103 WT2  7650 TIP3 H1   HT     0.417000        1.0080           0
   44104 WT2  7650 TIP3 H2   HT     0.417000        1.0080           0
   44105 WT2  7651 TIP3 OH2  OT    -0.834000       15.9994           0
   44106 WT2  7651 TIP3 H1   HT     0.417000        1.0080           0
   44107 WT2  7651 TIP3 H2   HT     0.417000        1.0080           0
   44108 WT2  7652 TIP3 OH2  OT    -0.834000       15.9994           0
   44109 WT2  7652 TIP3 H1   HT     0.417000        1.0080           0
   44110 WT2  7652 TIP3 H2   HT     0.417000        1.0080           0
   44111 WT2  7653 TIP3 OH2  OT    -0.834000       15.9994           0
   44112 WT2  7653 TIP3 H1   HT     0.417000        1.0080           0
   44113 WT2  7653 TIP3 H2   HT     0.417000        1.0080           0
   44114 WT2  7654 TIP3 OH2  OT    -0.834000       15.9994           0
   44115 WT2  7654 TIP3 H1   HT     0.417000        1.0080           0
   44116 WT2  7654 TIP3 H2   HT     0.417000        1.0080           0
   44117 WT2  7655 TIP3 OH2  OT    -0.834000       15.9994           0
   44118 WT2  7655 TIP3 H1   HT     0.417000        1.0080           0
   44119 WT2  7655 TIP3 H2   HT     0.417000        1.0080           0
   44120 WT2  7656 TIP3 OH2  OT    -0.834000       15.9994           0
   44121 WT2  7656 TIP3 H1   HT     0.417000        1.0080           0
   44122 WT2  7656 TIP3 H2   HT     0.417000        1.0080           0
   44123 WT2  7657 TIP3 OH2  OT    -0.834000       15.9994           0
   44124 WT2  7657 TIP3 H1   HT     0.417000        1.0080           0
   44125 WT2  7657 TIP3 H2   HT     0.417000        1.0080           0
   44126 WT2  7658 TIP3 OH2  OT    -0.834000       15.9994           0
   44127 WT2  7658 TIP3 H1   HT     0.417000        1.0080           0
   44128 WT2  7658 TIP3 H2   HT     0.417000        1.0080           0
   44129 WT2  7659 TIP3 OH2  OT    -0.834000       15.9994           0
   44130 WT2  7659 TIP3 H1   HT     0.417000        1.0080           0
   44131 WT2  7659 TIP3 H2   HT     0.417000        1.0080           0
   44132 WT2  7660 TIP3 OH2  OT    -0.834000       15.9994           0
   44133 WT2  7660 TIP3 H1   HT     0.417000        1.0080           0
   44134 WT2  7660 TIP3 H2   HT     0.417000        1.0080           0
   44135 WT2  7661 TIP3 OH2  OT    -0.834000       15.9994           0
   44136 WT2  7661 TIP3 H1   HT     0.417000        1.0080           0
   44137 WT2  7661 TIP3 H2   HT     0.417000        1.0080           0
   44138 WT2  7662 TIP3 OH2  OT    -0.834000       15.9994           0
   44139 WT2  7662 TIP3 H1   HT     0.417000        1.0080           0
   44140 WT2  7662 TIP3 H2   HT     0.417000        1.0080           0
   44141 WT2  7663 TIP3 OH2  OT    -0.834000       15.9994           0
   44142 WT2  7663 TIP3 H1   HT     0.417000        1.0080           0
   44143 WT2  7663 TIP3 H2   HT     0.417000        1.0080           0
   44144 WT2  7664 TIP3 OH2  OT    -0.834000       15.9994           0
   44145 WT2  7664 TIP3 H1   HT     0.417000        1.0080           0
   44146 WT2  7664 TIP3 H2   HT     0.417000        1.0080           0
   44147 WT2  7665 TIP3 OH2  OT    -0.834000       15.9994           0
   44148 WT2  7665 TIP3 H1   HT     0.417000        1.0080           0
   44149 WT2  7665 TIP3 H2   HT     0.417000        1.0080           0
   44150 WT2  7666 TIP3 OH2  OT    -0.834000       15.9994           0
   44151 WT2  7666 TIP3 H1   HT     0.417000        1.0080           0
   44152 WT2  7666 TIP3 H2   HT     0.417000        1.0080           0
   44153 WT2  7668 TIP3 OH2  OT    -0.834000       15.9994           0
   44154 WT2  7668 TIP3 H1   HT     0.417000        1.0080           0
   44155 WT2  7668 TIP3 H2   HT     0.417000        1.0080           0
   44156 WT2  7669 TIP3 OH2  OT    -0.834000       15.9994           0
   44157 WT2  7669 TIP3 H1   HT     0.417000        1.0080           0
   44158 WT2  7669 TIP3 H2   HT     0.417000        1.0080           0
   44159 WT2  7670 TIP3 OH2  OT    -0.834000       15.9994           0
   44160 WT2  7670 TIP3 H1   HT     0.417000        1.0080           0
   44161 WT2  7670 TIP3 H2   HT     0.417000        1.0080           0
   44162 WT2  7671 TIP3 OH2  OT    -0.834000       15.9994           0
   44163 WT2  7671 TIP3 H1   HT     0.417000        1.0080           0
   44164 WT2  7671 TIP3 H2   HT     0.417000        1.0080           0
   44165 WT2  7672 TIP3 OH2  OT    -0.834000       15.9994           0
   44166 WT2  7672 TIP3 H1   HT     0.417000        1.0080           0
   44167 WT2  7672 TIP3 H2   HT     0.417000        1.0080           0
   44168 WT2  7673 TIP3 OH2  OT    -0.834000       15.9994           0
   44169 WT2  7673 TIP3 H1   HT     0.417000        1.0080           0
   44170 WT2  7673 TIP3 H2   HT     0.417000        1.0080           0
   44171 WT2  7674 TIP3 OH2  OT    -0.834000       15.9994           0
   44172 WT2  7674 TIP3 H1   HT     0.417000        1.0080           0
   44173 WT2  7674 TIP3 H2   HT     0.417000        1.0080           0
   44174 WT2  7675 TIP3 OH2  OT    -0.834000       15.9994           0
   44175 WT2  7675 TIP3 H1   HT     0.417000        1.0080           0
   44176 WT2  7675 TIP3 H2   HT     0.417000        1.0080           0
   44177 WT2  7676 TIP3 OH2  OT    -0.834000       15.9994           0
   44178 WT2  7676 TIP3 H1   HT     0.417000        1.0080           0
   44179 WT2  7676 TIP3 H2   HT     0.417000        1.0080           0
   44180 WT2  7677 TIP3 OH2  OT    -0.834000       15.9994           0
   44181 WT2  7677 TIP3 H1   HT     0.417000        1.0080           0
   44182 WT2  7677 TIP3 H2   HT     0.417000        1.0080           0
   44183 WT2  7678 TIP3 OH2  OT    -0.834000       15.9994           0
   44184 WT2  7678 TIP3 H1   HT     0.417000        1.0080           0
   44185 WT2  7678 TIP3 H2   HT     0.417000        1.0080           0
   44186 WT2  7680 TIP3 OH2  OT    -0.834000       15.9994           0
   44187 WT2  7680 TIP3 H1   HT     0.417000        1.0080           0
   44188 WT2  7680 TIP3 H2   HT     0.417000        1.0080           0
   44189 WT2  7681 TIP3 OH2  OT    -0.834000       15.9994           0
   44190 WT2  7681 TIP3 H1   HT     0.417000        1.0080           0
   44191 WT2  7681 TIP3 H2   HT     0.417000        1.0080           0
   44192 WT2  7682 TIP3 OH2  OT    -0.834000       15.9994           0
   44193 WT2  7682 TIP3 H1   HT     0.417000        1.0080           0
   44194 WT2  7682 TIP3 H2   HT     0.417000        1.0080           0
   44195 WT2  7683 TIP3 OH2  OT    -0.834000       15.9994           0
   44196 WT2  7683 TIP3 H1   HT     0.417000        1.0080           0
   44197 WT2  7683 TIP3 H2   HT     0.417000        1.0080           0
   44198 WT2  7684 TIP3 OH2  OT    -0.834000       15.9994           0
   44199 WT2  7684 TIP3 H1   HT     0.417000        1.0080           0
   44200 WT2  7684 TIP3 H2   HT     0.417000        1.0080           0
   44201 WT2  7685 TIP3 OH2  OT    -0.834000       15.9994           0
   44202 WT2  7685 TIP3 H1   HT     0.417000        1.0080           0
   44203 WT2  7685 TIP3 H2   HT     0.417000        1.0080           0
   44204 WT2  7686 TIP3 OH2  OT    -0.834000       15.9994           0
   44205 WT2  7686 TIP3 H1   HT     0.417000        1.0080           0
   44206 WT2  7686 TIP3 H2   HT     0.417000        1.0080           0
   44207 WT2  7687 TIP3 OH2  OT    -0.834000       15.9994           0
   44208 WT2  7687 TIP3 H1   HT     0.417000        1.0080           0
   44209 WT2  7687 TIP3 H2   HT     0.417000        1.0080           0
   44210 WT2  7688 TIP3 OH2  OT    -0.834000       15.9994           0
   44211 WT2  7688 TIP3 H1   HT     0.417000        1.0080           0
   44212 WT2  7688 TIP3 H2   HT     0.417000        1.0080           0
   44213 WT2  7691 TIP3 OH2  OT    -0.834000       15.9994           0
   44214 WT2  7691 TIP3 H1   HT     0.417000        1.0080           0
   44215 WT2  7691 TIP3 H2   HT     0.417000        1.0080           0
   44216 WT2  7693 TIP3 OH2  OT    -0.834000       15.9994           0
   44217 WT2  7693 TIP3 H1   HT     0.417000        1.0080           0
   44218 WT2  7693 TIP3 H2   HT     0.417000        1.0080           0
   44219 WT2  7694 TIP3 OH2  OT    -0.834000       15.9994           0
   44220 WT2  7694 TIP3 H1   HT     0.417000        1.0080           0
   44221 WT2  7694 TIP3 H2   HT     0.417000        1.0080           0
   44222 WT2  7695 TIP3 OH2  OT    -0.834000       15.9994           0
   44223 WT2  7695 TIP3 H1   HT     0.417000        1.0080           0
   44224 WT2  7695 TIP3 H2   HT     0.417000        1.0080           0
   44225 WT2  7696 TIP3 OH2  OT    -0.834000       15.9994           0
   44226 WT2  7696 TIP3 H1   HT     0.417000        1.0080           0
   44227 WT2  7696 TIP3 H2   HT     0.417000        1.0080           0
   44228 WT2  7698 TIP3 OH2  OT    -0.834000       15.9994           0
   44229 WT2  7698 TIP3 H1   HT     0.417000        1.0080           0
   44230 WT2  7698 TIP3 H2   HT     0.417000        1.0080           0
   44231 WT2  7699 TIP3 OH2  OT    -0.834000       15.9994           0
   44232 WT2  7699 TIP3 H1   HT     0.417000        1.0080           0
   44233 WT2  7699 TIP3 H2   HT     0.417000        1.0080           0
   44234 WT2  7701 TIP3 OH2  OT    -0.834000       15.9994           0
   44235 WT2  7701 TIP3 H1   HT     0.417000        1.0080           0
   44236 WT2  7701 TIP3 H2   HT     0.417000        1.0080           0
   44237 WT2  7702 TIP3 OH2  OT    -0.834000       15.9994           0
   44238 WT2  7702 TIP3 H1   HT     0.417000        1.0080           0
   44239 WT2  7702 TIP3 H2   HT     0.417000        1.0080           0
   44240 WT2  7703 TIP3 OH2  OT    -0.834000       15.9994           0
   44241 WT2  7703 TIP3 H1   HT     0.417000        1.0080           0
   44242 WT2  7703 TIP3 H2   HT     0.417000        1.0080           0
   44243 WT2  7704 TIP3 OH2  OT    -0.834000       15.9994           0
   44244 WT2  7704 TIP3 H1   HT     0.417000        1.0080           0
   44245 WT2  7704 TIP3 H2   HT     0.417000        1.0080           0
   44246 WT2  7705 TIP3 OH2  OT    -0.834000       15.9994           0
   44247 WT2  7705 TIP3 H1   HT     0.417000        1.0080           0
   44248 WT2  7705 TIP3 H2   HT     0.417000        1.0080           0
   44249 WT2  7706 TIP3 OH2  OT    -0.834000       15.9994           0
   44250 WT2  7706 TIP3 H1   HT     0.417000        1.0080           0
   44251 WT2  7706 TIP3 H2   HT     0.417000        1.0080           0
   44252 WT2  7707 TIP3 OH2  OT    -0.834000       15.9994           0
   44253 WT2  7707 TIP3 H1   HT     0.417000        1.0080           0
   44254 WT2  7707 TIP3 H2   HT     0.417000        1.0080           0
   44255 WT2  7708 TIP3 OH2  OT    -0.834000       15.9994           0
   44256 WT2  7708 TIP3 H1   HT     0.417000        1.0080           0
   44257 WT2  7708 TIP3 H2   HT     0.417000        1.0080           0
   44258 WT2  7709 TIP3 OH2  OT    -0.834000       15.9994           0
   44259 WT2  7709 TIP3 H1   HT     0.417000        1.0080           0
   44260 WT2  7709 TIP3 H2   HT     0.417000        1.0080           0
   44261 WT2  7710 TIP3 OH2  OT    -0.834000       15.9994           0
   44262 WT2  7710 TIP3 H1   HT     0.417000        1.0080           0
   44263 WT2  7710 TIP3 H2   HT     0.417000        1.0080           0
   44264 WT2  7712 TIP3 OH2  OT    -0.834000       15.9994           0
   44265 WT2  7712 TIP3 H1   HT     0.417000        1.0080           0
   44266 WT2  7712 TIP3 H2   HT     0.417000        1.0080           0
   44267 WT2  7713 TIP3 OH2  OT    -0.834000       15.9994           0
   44268 WT2  7713 TIP3 H1   HT     0.417000        1.0080           0
   44269 WT2  7713 TIP3 H2   HT     0.417000        1.0080           0
   44270 WT2  7714 TIP3 OH2  OT    -0.834000       15.9994           0
   44271 WT2  7714 TIP3 H1   HT     0.417000        1.0080           0
   44272 WT2  7714 TIP3 H2   HT     0.417000        1.0080           0
   44273 WT2  7716 TIP3 OH2  OT    -0.834000       15.9994           0
   44274 WT2  7716 TIP3 H1   HT     0.417000        1.0080           0
   44275 WT2  7716 TIP3 H2   HT     0.417000        1.0080           0
   44276 WT2  7717 TIP3 OH2  OT    -0.834000       15.9994           0
   44277 WT2  7717 TIP3 H1   HT     0.417000        1.0080           0
   44278 WT2  7717 TIP3 H2   HT     0.417000        1.0080           0
   44279 WT2  7718 TIP3 OH2  OT    -0.834000       15.9994           0
   44280 WT2  7718 TIP3 H1   HT     0.417000        1.0080           0
   44281 WT2  7718 TIP3 H2   HT     0.417000        1.0080           0
   44282 WT2  7719 TIP3 OH2  OT    -0.834000       15.9994           0
   44283 WT2  7719 TIP3 H1   HT     0.417000        1.0080           0
   44284 WT2  7719 TIP3 H2   HT     0.417000        1.0080           0
   44285 WT2  7720 TIP3 OH2  OT    -0.834000       15.9994           0
   44286 WT2  7720 TIP3 H1   HT     0.417000        1.0080           0
   44287 WT2  7720 TIP3 H2   HT     0.417000        1.0080           0
   44288 WT2  7721 TIP3 OH2  OT    -0.834000       15.9994           0
   44289 WT2  7721 TIP3 H1   HT     0.417000        1.0080           0
   44290 WT2  7721 TIP3 H2   HT     0.417000        1.0080           0
   44291 WT2  7722 TIP3 OH2  OT    -0.834000       15.9994           0
   44292 WT2  7722 TIP3 H1   HT     0.417000        1.0080           0
   44293 WT2  7722 TIP3 H2   HT     0.417000        1.0080           0
   44294 WT2  7723 TIP3 OH2  OT    -0.834000       15.9994           0
   44295 WT2  7723 TIP3 H1   HT     0.417000        1.0080           0
   44296 WT2  7723 TIP3 H2   HT     0.417000        1.0080           0
   44297 WT2  7724 TIP3 OH2  OT    -0.834000       15.9994           0
   44298 WT2  7724 TIP3 H1   HT     0.417000        1.0080           0
   44299 WT2  7724 TIP3 H2   HT     0.417000        1.0080           0
   44300 WT2  7726 TIP3 OH2  OT    -0.834000       15.9994           0
   44301 WT2  7726 TIP3 H1   HT     0.417000        1.0080           0
   44302 WT2  7726 TIP3 H2   HT     0.417000        1.0080           0
   44303 WT2  7727 TIP3 OH2  OT    -0.834000       15.9994           0
   44304 WT2  7727 TIP3 H1   HT     0.417000        1.0080           0
   44305 WT2  7727 TIP3 H2   HT     0.417000        1.0080           0
   44306 WT2  7728 TIP3 OH2  OT    -0.834000       15.9994           0
   44307 WT2  7728 TIP3 H1   HT     0.417000        1.0080           0
   44308 WT2  7728 TIP3 H2   HT     0.417000        1.0080           0
   44309 WT2  7729 TIP3 OH2  OT    -0.834000       15.9994           0
   44310 WT2  7729 TIP3 H1   HT     0.417000        1.0080           0
   44311 WT2  7729 TIP3 H2   HT     0.417000        1.0080           0
   44312 WT2  7731 TIP3 OH2  OT    -0.834000       15.9994           0
   44313 WT2  7731 TIP3 H1   HT     0.417000        1.0080           0
   44314 WT2  7731 TIP3 H2   HT     0.417000        1.0080           0
   44315 WT2  7732 TIP3 OH2  OT    -0.834000       15.9994           0
   44316 WT2  7732 TIP3 H1   HT     0.417000        1.0080           0
   44317 WT2  7732 TIP3 H2   HT     0.417000        1.0080           0
   44318 WT2  7733 TIP3 OH2  OT    -0.834000       15.9994           0
   44319 WT2  7733 TIP3 H1   HT     0.417000        1.0080           0
   44320 WT2  7733 TIP3 H2   HT     0.417000        1.0080           0
   44321 WT2  7734 TIP3 OH2  OT    -0.834000       15.9994           0
   44322 WT2  7734 TIP3 H1   HT     0.417000        1.0080           0
   44323 WT2  7734 TIP3 H2   HT     0.417000        1.0080           0
   44324 WT2  7735 TIP3 OH2  OT    -0.834000       15.9994           0
   44325 WT2  7735 TIP3 H1   HT     0.417000        1.0080           0
   44326 WT2  7735 TIP3 H2   HT     0.417000        1.0080           0
   44327 WT2  7736 TIP3 OH2  OT    -0.834000       15.9994           0
   44328 WT2  7736 TIP3 H1   HT     0.417000        1.0080           0
   44329 WT2  7736 TIP3 H2   HT     0.417000        1.0080           0
   44330 WT2  7738 TIP3 OH2  OT    -0.834000       15.9994           0
   44331 WT2  7738 TIP3 H1   HT     0.417000        1.0080           0
   44332 WT2  7738 TIP3 H2   HT     0.417000        1.0080           0
   44333 WT2  7739 TIP3 OH2  OT    -0.834000       15.9994           0
   44334 WT2  7739 TIP3 H1   HT     0.417000        1.0080           0
   44335 WT2  7739 TIP3 H2   HT     0.417000        1.0080           0
   44336 WT2  7740 TIP3 OH2  OT    -0.834000       15.9994           0
   44337 WT2  7740 TIP3 H1   HT     0.417000        1.0080           0
   44338 WT2  7740 TIP3 H2   HT     0.417000        1.0080           0
   44339 WT2  7741 TIP3 OH2  OT    -0.834000       15.9994           0
   44340 WT2  7741 TIP3 H1   HT     0.417000        1.0080           0
   44341 WT2  7741 TIP3 H2   HT     0.417000        1.0080           0
   44342 WT2  7742 TIP3 OH2  OT    -0.834000       15.9994           0
   44343 WT2  7742 TIP3 H1   HT     0.417000        1.0080           0
   44344 WT2  7742 TIP3 H2   HT     0.417000        1.0080           0
   44345 WT2  7743 TIP3 OH2  OT    -0.834000       15.9994           0
   44346 WT2  7743 TIP3 H1   HT     0.417000        1.0080           0
   44347 WT2  7743 TIP3 H2   HT     0.417000        1.0080           0
   44348 WT2  7744 TIP3 OH2  OT    -0.834000       15.9994           0
   44349 WT2  7744 TIP3 H1   HT     0.417000        1.0080           0
   44350 WT2  7744 TIP3 H2   HT     0.417000        1.0080           0
   44351 WT2  7745 TIP3 OH2  OT    -0.834000       15.9994           0
   44352 WT2  7745 TIP3 H1   HT     0.417000        1.0080           0
   44353 WT2  7745 TIP3 H2   HT     0.417000        1.0080           0
   44354 WT2  7746 TIP3 OH2  OT    -0.834000       15.9994           0
   44355 WT2  7746 TIP3 H1   HT     0.417000        1.0080           0
   44356 WT2  7746 TIP3 H2   HT     0.417000        1.0080           0
   44357 WT2  7747 TIP3 OH2  OT    -0.834000       15.9994           0
   44358 WT2  7747 TIP3 H1   HT     0.417000        1.0080           0
   44359 WT2  7747 TIP3 H2   HT     0.417000        1.0080           0
   44360 WT2  7748 TIP3 OH2  OT    -0.834000       15.9994           0
   44361 WT2  7748 TIP3 H1   HT     0.417000        1.0080           0
   44362 WT2  7748 TIP3 H2   HT     0.417000        1.0080           0
   44363 WT2  7749 TIP3 OH2  OT    -0.834000       15.9994           0
   44364 WT2  7749 TIP3 H1   HT     0.417000        1.0080           0
   44365 WT2  7749 TIP3 H2   HT     0.417000        1.0080           0
   44366 WT2  7750 TIP3 OH2  OT    -0.834000       15.9994           0
   44367 WT2  7750 TIP3 H1   HT     0.417000        1.0080           0
   44368 WT2  7750 TIP3 H2   HT     0.417000        1.0080           0
   44369 WT2  7751 TIP3 OH2  OT    -0.834000       15.9994           0
   44370 WT2  7751 TIP3 H1   HT     0.417000        1.0080           0
   44371 WT2  7751 TIP3 H2   HT     0.417000        1.0080           0
   44372 WT2  7752 TIP3 OH2  OT    -0.834000       15.9994           0
   44373 WT2  7752 TIP3 H1   HT     0.417000        1.0080           0
   44374 WT2  7752 TIP3 H2   HT     0.417000        1.0080           0
   44375 WT2  7753 TIP3 OH2  OT    -0.834000       15.9994           0
   44376 WT2  7753 TIP3 H1   HT     0.417000        1.0080           0
   44377 WT2  7753 TIP3 H2   HT     0.417000        1.0080           0
   44378 WT2  7755 TIP3 OH2  OT    -0.834000       15.9994           0
   44379 WT2  7755 TIP3 H1   HT     0.417000        1.0080           0
   44380 WT2  7755 TIP3 H2   HT     0.417000        1.0080           0
   44381 WT2  7756 TIP3 OH2  OT    -0.834000       15.9994           0
   44382 WT2  7756 TIP3 H1   HT     0.417000        1.0080           0
   44383 WT2  7756 TIP3 H2   HT     0.417000        1.0080           0
   44384 WT2  7757 TIP3 OH2  OT    -0.834000       15.9994           0
   44385 WT2  7757 TIP3 H1   HT     0.417000        1.0080           0
   44386 WT2  7757 TIP3 H2   HT     0.417000        1.0080           0
   44387 WT2  7758 TIP3 OH2  OT    -0.834000       15.9994           0
   44388 WT2  7758 TIP3 H1   HT     0.417000        1.0080           0
   44389 WT2  7758 TIP3 H2   HT     0.417000        1.0080           0
   44390 WT2  7759 TIP3 OH2  OT    -0.834000       15.9994           0
   44391 WT2  7759 TIP3 H1   HT     0.417000        1.0080           0
   44392 WT2  7759 TIP3 H2   HT     0.417000        1.0080           0
   44393 WT2  7760 TIP3 OH2  OT    -0.834000       15.9994           0
   44394 WT2  7760 TIP3 H1   HT     0.417000        1.0080           0
   44395 WT2  7760 TIP3 H2   HT     0.417000        1.0080           0
   44396 WT2  7761 TIP3 OH2  OT    -0.834000       15.9994           0
   44397 WT2  7761 TIP3 H1   HT     0.417000        1.0080           0
   44398 WT2  7761 TIP3 H2   HT     0.417000        1.0080           0
   44399 WT2  7762 TIP3 OH2  OT    -0.834000       15.9994           0
   44400 WT2  7762 TIP3 H1   HT     0.417000        1.0080           0
   44401 WT2  7762 TIP3 H2   HT     0.417000        1.0080           0
   44402 WT2  7763 TIP3 OH2  OT    -0.834000       15.9994           0
   44403 WT2  7763 TIP3 H1   HT     0.417000        1.0080           0
   44404 WT2  7763 TIP3 H2   HT     0.417000        1.0080           0
   44405 WT2  7764 TIP3 OH2  OT    -0.834000       15.9994           0
   44406 WT2  7764 TIP3 H1   HT     0.417000        1.0080           0
   44407 WT2  7764 TIP3 H2   HT     0.417000        1.0080           0
   44408 WT2  7765 TIP3 OH2  OT    -0.834000       15.9994           0
   44409 WT2  7765 TIP3 H1   HT     0.417000        1.0080           0
   44410 WT2  7765 TIP3 H2   HT     0.417000        1.0080           0
   44411 WT2  7766 TIP3 OH2  OT    -0.834000       15.9994           0
   44412 WT2  7766 TIP3 H1   HT     0.417000        1.0080           0
   44413 WT2  7766 TIP3 H2   HT     0.417000        1.0080           0
   44414 WT2  7767 TIP3 OH2  OT    -0.834000       15.9994           0
   44415 WT2  7767 TIP3 H1   HT     0.417000        1.0080           0
   44416 WT2  7767 TIP3 H2   HT     0.417000        1.0080           0
   44417 WT2  7768 TIP3 OH2  OT    -0.834000       15.9994           0
   44418 WT2  7768 TIP3 H1   HT     0.417000        1.0080           0
   44419 WT2  7768 TIP3 H2   HT     0.417000        1.0080           0
   44420 WT2  7769 TIP3 OH2  OT    -0.834000       15.9994           0
   44421 WT2  7769 TIP3 H1   HT     0.417000        1.0080           0
   44422 WT2  7769 TIP3 H2   HT     0.417000        1.0080           0
   44423 WT2  7770 TIP3 OH2  OT    -0.834000       15.9994           0
   44424 WT2  7770 TIP3 H1   HT     0.417000        1.0080           0
   44425 WT2  7770 TIP3 H2   HT     0.417000        1.0080           0
   44426 WT2  7771 TIP3 OH2  OT    -0.834000       15.9994           0
   44427 WT2  7771 TIP3 H1   HT     0.417000        1.0080           0
   44428 WT2  7771 TIP3 H2   HT     0.417000        1.0080           0
   44429 WT2  7772 TIP3 OH2  OT    -0.834000       15.9994           0
   44430 WT2  7772 TIP3 H1   HT     0.417000        1.0080           0
   44431 WT2  7772 TIP3 H2   HT     0.417000        1.0080           0
   44432 WT2  7773 TIP3 OH2  OT    -0.834000       15.9994           0
   44433 WT2  7773 TIP3 H1   HT     0.417000        1.0080           0
   44434 WT2  7773 TIP3 H2   HT     0.417000        1.0080           0
   44435 WT2  7774 TIP3 OH2  OT    -0.834000       15.9994           0
   44436 WT2  7774 TIP3 H1   HT     0.417000        1.0080           0
   44437 WT2  7774 TIP3 H2   HT     0.417000        1.0080           0
   44438 WT2  7775 TIP3 OH2  OT    -0.834000       15.9994           0
   44439 WT2  7775 TIP3 H1   HT     0.417000        1.0080           0
   44440 WT2  7775 TIP3 H2   HT     0.417000        1.0080           0
   44441 WT2  7776 TIP3 OH2  OT    -0.834000       15.9994           0
   44442 WT2  7776 TIP3 H1   HT     0.417000        1.0080           0
   44443 WT2  7776 TIP3 H2   HT     0.417000        1.0080           0
   44444 WT2  7777 TIP3 OH2  OT    -0.834000       15.9994           0
   44445 WT2  7777 TIP3 H1   HT     0.417000        1.0080           0
   44446 WT2  7777 TIP3 H2   HT     0.417000        1.0080           0
   44447 WT2  7778 TIP3 OH2  OT    -0.834000       15.9994           0
   44448 WT2  7778 TIP3 H1   HT     0.417000        1.0080           0
   44449 WT2  7778 TIP3 H2   HT     0.417000        1.0080           0
   44450 WT2  7779 TIP3 OH2  OT    -0.834000       15.9994           0
   44451 WT2  7779 TIP3 H1   HT     0.417000        1.0080           0
   44452 WT2  7779 TIP3 H2   HT     0.417000        1.0080           0
   44453 WT2  7780 TIP3 OH2  OT    -0.834000       15.9994           0
   44454 WT2  7780 TIP3 H1   HT     0.417000        1.0080           0
   44455 WT2  7780 TIP3 H2   HT     0.417000        1.0080           0
   44456 WT2  7781 TIP3 OH2  OT    -0.834000       15.9994           0
   44457 WT2  7781 TIP3 H1   HT     0.417000        1.0080           0
   44458 WT2  7781 TIP3 H2   HT     0.417000        1.0080           0
   44459 WT2  7782 TIP3 OH2  OT    -0.834000       15.9994           0
   44460 WT2  7782 TIP3 H1   HT     0.417000        1.0080           0
   44461 WT2  7782 TIP3 H2   HT     0.417000        1.0080           0
   44462 WT2  7783 TIP3 OH2  OT    -0.834000       15.9994           0
   44463 WT2  7783 TIP3 H1   HT     0.417000        1.0080           0
   44464 WT2  7783 TIP3 H2   HT     0.417000        1.0080           0
   44465 WT2  7784 TIP3 OH2  OT    -0.834000       15.9994           0
   44466 WT2  7784 TIP3 H1   HT     0.417000        1.0080           0
   44467 WT2  7784 TIP3 H2   HT     0.417000        1.0080           0
   44468 WT2  7785 TIP3 OH2  OT    -0.834000       15.9994           0
   44469 WT2  7785 TIP3 H1   HT     0.417000        1.0080           0
   44470 WT2  7785 TIP3 H2   HT     0.417000        1.0080           0
   44471 WT2  7786 TIP3 OH2  OT    -0.834000       15.9994           0
   44472 WT2  7786 TIP3 H1   HT     0.417000        1.0080           0
   44473 WT2  7786 TIP3 H2   HT     0.417000        1.0080           0
   44474 WT2  7787 TIP3 OH2  OT    -0.834000       15.9994           0
   44475 WT2  7787 TIP3 H1   HT     0.417000        1.0080           0
   44476 WT2  7787 TIP3 H2   HT     0.417000        1.0080           0
   44477 WT2  7788 TIP3 OH2  OT    -0.834000       15.9994           0
   44478 WT2  7788 TIP3 H1   HT     0.417000        1.0080           0
   44479 WT2  7788 TIP3 H2   HT     0.417000        1.0080           0
   44480 WT2  7789 TIP3 OH2  OT    -0.834000       15.9994           0
   44481 WT2  7789 TIP3 H1   HT     0.417000        1.0080           0
   44482 WT2  7789 TIP3 H2   HT     0.417000        1.0080           0
   44483 WT2  7790 TIP3 OH2  OT    -0.834000       15.9994           0
   44484 WT2  7790 TIP3 H1   HT     0.417000        1.0080           0
   44485 WT2  7790 TIP3 H2   HT     0.417000        1.0080           0
   44486 WT2  7791 TIP3 OH2  OT    -0.834000       15.9994           0
   44487 WT2  7791 TIP3 H1   HT     0.417000        1.0080           0
   44488 WT2  7791 TIP3 H2   HT     0.417000        1.0080           0
   44489 WT2  7792 TIP3 OH2  OT    -0.834000       15.9994           0
   44490 WT2  7792 TIP3 H1   HT     0.417000        1.0080           0
   44491 WT2  7792 TIP3 H2   HT     0.417000        1.0080           0
   44492 WT2  7793 TIP3 OH2  OT    -0.834000       15.9994           0
   44493 WT2  7793 TIP3 H1   HT     0.417000        1.0080           0
   44494 WT2  7793 TIP3 H2   HT     0.417000        1.0080           0
   44495 WT2  7794 TIP3 OH2  OT    -0.834000       15.9994           0
   44496 WT2  7794 TIP3 H1   HT     0.417000        1.0080           0
   44497 WT2  7794 TIP3 H2   HT     0.417000        1.0080           0
   44498 WT2  7795 TIP3 OH2  OT    -0.834000       15.9994           0
   44499 WT2  7795 TIP3 H1   HT     0.417000        1.0080           0
   44500 WT2  7795 TIP3 H2   HT     0.417000        1.0080           0
   44501 WT2  7796 TIP3 OH2  OT    -0.834000       15.9994           0
   44502 WT2  7796 TIP3 H1   HT     0.417000        1.0080           0
   44503 WT2  7796 TIP3 H2   HT     0.417000        1.0080           0
   44504 WT2  7797 TIP3 OH2  OT    -0.834000       15.9994           0
   44505 WT2  7797 TIP3 H1   HT     0.417000        1.0080           0
   44506 WT2  7797 TIP3 H2   HT     0.417000        1.0080           0
   44507 WT2  7798 TIP3 OH2  OT    -0.834000       15.9994           0
   44508 WT2  7798 TIP3 H1   HT     0.417000        1.0080           0
   44509 WT2  7798 TIP3 H2   HT     0.417000        1.0080           0
   44510 WT2  7799 TIP3 OH2  OT    -0.834000       15.9994           0
   44511 WT2  7799 TIP3 H1   HT     0.417000        1.0080           0
   44512 WT2  7799 TIP3 H2   HT     0.417000        1.0080           0
   44513 WT2  7801 TIP3 OH2  OT    -0.834000       15.9994           0
   44514 WT2  7801 TIP3 H1   HT     0.417000        1.0080           0
   44515 WT2  7801 TIP3 H2   HT     0.417000        1.0080           0
   44516 WT2  7802 TIP3 OH2  OT    -0.834000       15.9994           0
   44517 WT2  7802 TIP3 H1   HT     0.417000        1.0080           0
   44518 WT2  7802 TIP3 H2   HT     0.417000        1.0080           0
   44519 WT2  7803 TIP3 OH2  OT    -0.834000       15.9994           0
   44520 WT2  7803 TIP3 H1   HT     0.417000        1.0080           0
   44521 WT2  7803 TIP3 H2   HT     0.417000        1.0080           0
   44522 WT2  7804 TIP3 OH2  OT    -0.834000       15.9994           0
   44523 WT2  7804 TIP3 H1   HT     0.417000        1.0080           0
   44524 WT2  7804 TIP3 H2   HT     0.417000        1.0080           0
   44525 WT2  7805 TIP3 OH2  OT    -0.834000       15.9994           0
   44526 WT2  7805 TIP3 H1   HT     0.417000        1.0080           0
   44527 WT2  7805 TIP3 H2   HT     0.417000        1.0080           0
   44528 WT2  7806 TIP3 OH2  OT    -0.834000       15.9994           0
   44529 WT2  7806 TIP3 H1   HT     0.417000        1.0080           0
   44530 WT2  7806 TIP3 H2   HT     0.417000        1.0080           0
   44531 WT2  7807 TIP3 OH2  OT    -0.834000       15.9994           0
   44532 WT2  7807 TIP3 H1   HT     0.417000        1.0080           0
   44533 WT2  7807 TIP3 H2   HT     0.417000        1.0080           0
   44534 WT2  7808 TIP3 OH2  OT    -0.834000       15.9994           0
   44535 WT2  7808 TIP3 H1   HT     0.417000        1.0080           0
   44536 WT2  7808 TIP3 H2   HT     0.417000        1.0080           0
   44537 WT2  7809 TIP3 OH2  OT    -0.834000       15.9994           0
   44538 WT2  7809 TIP3 H1   HT     0.417000        1.0080           0
   44539 WT2  7809 TIP3 H2   HT     0.417000        1.0080           0
   44540 WT2  7810 TIP3 OH2  OT    -0.834000       15.9994           0
   44541 WT2  7810 TIP3 H1   HT     0.417000        1.0080           0
   44542 WT2  7810 TIP3 H2   HT     0.417000        1.0080           0
   44543 WT2  7811 TIP3 OH2  OT    -0.834000       15.9994           0
   44544 WT2  7811 TIP3 H1   HT     0.417000        1.0080           0
   44545 WT2  7811 TIP3 H2   HT     0.417000        1.0080           0
   44546 WT2  7812 TIP3 OH2  OT    -0.834000       15.9994           0
   44547 WT2  7812 TIP3 H1   HT     0.417000        1.0080           0
   44548 WT2  7812 TIP3 H2   HT     0.417000        1.0080           0
   44549 WT2  7813 TIP3 OH2  OT    -0.834000       15.9994           0
   44550 WT2  7813 TIP3 H1   HT     0.417000        1.0080           0
   44551 WT2  7813 TIP3 H2   HT     0.417000        1.0080           0
   44552 WT2  7814 TIP3 OH2  OT    -0.834000       15.9994           0
   44553 WT2  7814 TIP3 H1   HT     0.417000        1.0080           0
   44554 WT2  7814 TIP3 H2   HT     0.417000        1.0080           0
   44555 WT2  7815 TIP3 OH2  OT    -0.834000       15.9994           0
   44556 WT2  7815 TIP3 H1   HT     0.417000        1.0080           0
   44557 WT2  7815 TIP3 H2   HT     0.417000        1.0080           0
   44558 WT2  7816 TIP3 OH2  OT    -0.834000       15.9994           0
   44559 WT2  7816 TIP3 H1   HT     0.417000        1.0080           0
   44560 WT2  7816 TIP3 H2   HT     0.417000        1.0080           0
   44561 WT2  7818 TIP3 OH2  OT    -0.834000       15.9994           0
   44562 WT2  7818 TIP3 H1   HT     0.417000        1.0080           0
   44563 WT2  7818 TIP3 H2   HT     0.417000        1.0080           0
   44564 WT2  7819 TIP3 OH2  OT    -0.834000       15.9994           0
   44565 WT2  7819 TIP3 H1   HT     0.417000        1.0080           0
   44566 WT2  7819 TIP3 H2   HT     0.417000        1.0080           0
   44567 WT2  7820 TIP3 OH2  OT    -0.834000       15.9994           0
   44568 WT2  7820 TIP3 H1   HT     0.417000        1.0080           0
   44569 WT2  7820 TIP3 H2   HT     0.417000        1.0080           0
   44570 WT2  7821 TIP3 OH2  OT    -0.834000       15.9994           0
   44571 WT2  7821 TIP3 H1   HT     0.417000        1.0080           0
   44572 WT2  7821 TIP3 H2   HT     0.417000        1.0080           0
   44573 WT2  7822 TIP3 OH2  OT    -0.834000       15.9994           0
   44574 WT2  7822 TIP3 H1   HT     0.417000        1.0080           0
   44575 WT2  7822 TIP3 H2   HT     0.417000        1.0080           0
   44576 WT2  7823 TIP3 OH2  OT    -0.834000       15.9994           0
   44577 WT2  7823 TIP3 H1   HT     0.417000        1.0080           0
   44578 WT2  7823 TIP3 H2   HT     0.417000        1.0080           0
   44579 WT2  7824 TIP3 OH2  OT    -0.834000       15.9994           0
   44580 WT2  7824 TIP3 H1   HT     0.417000        1.0080           0
   44581 WT2  7824 TIP3 H2   HT     0.417000        1.0080           0
   44582 WT2  7825 TIP3 OH2  OT    -0.834000       15.9994           0
   44583 WT2  7825 TIP3 H1   HT     0.417000        1.0080           0
   44584 WT2  7825 TIP3 H2   HT     0.417000        1.0080           0
   44585 WT2  7826 TIP3 OH2  OT    -0.834000       15.9994           0
   44586 WT2  7826 TIP3 H1   HT     0.417000        1.0080           0
   44587 WT2  7826 TIP3 H2   HT     0.417000        1.0080           0
   44588 WT2  7827 TIP3 OH2  OT    -0.834000       15.9994           0
   44589 WT2  7827 TIP3 H1   HT     0.417000        1.0080           0
   44590 WT2  7827 TIP3 H2   HT     0.417000        1.0080           0
   44591 WT2  7828 TIP3 OH2  OT    -0.834000       15.9994           0
   44592 WT2  7828 TIP3 H1   HT     0.417000        1.0080           0
   44593 WT2  7828 TIP3 H2   HT     0.417000        1.0080           0
   44594 WT2  7829 TIP3 OH2  OT    -0.834000       15.9994           0
   44595 WT2  7829 TIP3 H1   HT     0.417000        1.0080           0
   44596 WT2  7829 TIP3 H2   HT     0.417000        1.0080           0
   44597 WT2  7831 TIP3 OH2  OT    -0.834000       15.9994           0
   44598 WT2  7831 TIP3 H1   HT     0.417000        1.0080           0
   44599 WT2  7831 TIP3 H2   HT     0.417000        1.0080           0
   44600 WT2  7833 TIP3 OH2  OT    -0.834000       15.9994           0
   44601 WT2  7833 TIP3 H1   HT     0.417000        1.0080           0
   44602 WT2  7833 TIP3 H2   HT     0.417000        1.0080           0
   44603 WT2  7834 TIP3 OH2  OT    -0.834000       15.9994           0
   44604 WT2  7834 TIP3 H1   HT     0.417000        1.0080           0
   44605 WT2  7834 TIP3 H2   HT     0.417000        1.0080           0
   44606 WT2  7835 TIP3 OH2  OT    -0.834000       15.9994           0
   44607 WT2  7835 TIP3 H1   HT     0.417000        1.0080           0
   44608 WT2  7835 TIP3 H2   HT     0.417000        1.0080           0
   44609 WT2  7836 TIP3 OH2  OT    -0.834000       15.9994           0
   44610 WT2  7836 TIP3 H1   HT     0.417000        1.0080           0
   44611 WT2  7836 TIP3 H2   HT     0.417000        1.0080           0
   44612 WT2  7837 TIP3 OH2  OT    -0.834000       15.9994           0
   44613 WT2  7837 TIP3 H1   HT     0.417000        1.0080           0
   44614 WT2  7837 TIP3 H2   HT     0.417000        1.0080           0
   44615 WT2  7838 TIP3 OH2  OT    -0.834000       15.9994           0
   44616 WT2  7838 TIP3 H1   HT     0.417000        1.0080           0
   44617 WT2  7838 TIP3 H2   HT     0.417000        1.0080           0
   44618 WT2  7839 TIP3 OH2  OT    -0.834000       15.9994           0
   44619 WT2  7839 TIP3 H1   HT     0.417000        1.0080           0
   44620 WT2  7839 TIP3 H2   HT     0.417000        1.0080           0
   44621 WT2  7840 TIP3 OH2  OT    -0.834000       15.9994           0
   44622 WT2  7840 TIP3 H1   HT     0.417000        1.0080           0
   44623 WT2  7840 TIP3 H2   HT     0.417000        1.0080           0
   44624 WT2  7841 TIP3 OH2  OT    -0.834000       15.9994           0
   44625 WT2  7841 TIP3 H1   HT     0.417000        1.0080           0
   44626 WT2  7841 TIP3 H2   HT     0.417000        1.0080           0
   44627 WT2  7842 TIP3 OH2  OT    -0.834000       15.9994           0
   44628 WT2  7842 TIP3 H1   HT     0.417000        1.0080           0
   44629 WT2  7842 TIP3 H2   HT     0.417000        1.0080           0
   44630 WT2  7843 TIP3 OH2  OT    -0.834000       15.9994           0
   44631 WT2  7843 TIP3 H1   HT     0.417000        1.0080           0
   44632 WT2  7843 TIP3 H2   HT     0.417000        1.0080           0
   44633 WT2  7845 TIP3 OH2  OT    -0.834000       15.9994           0
   44634 WT2  7845 TIP3 H1   HT     0.417000        1.0080           0
   44635 WT2  7845 TIP3 H2   HT     0.417000        1.0080           0
   44636 WT2  7846 TIP3 OH2  OT    -0.834000       15.9994           0
   44637 WT2  7846 TIP3 H1   HT     0.417000        1.0080           0
   44638 WT2  7846 TIP3 H2   HT     0.417000        1.0080           0
   44639 WT2  7847 TIP3 OH2  OT    -0.834000       15.9994           0
   44640 WT2  7847 TIP3 H1   HT     0.417000        1.0080           0
   44641 WT2  7847 TIP3 H2   HT     0.417000        1.0080           0
   44642 WT2  7848 TIP3 OH2  OT    -0.834000       15.9994           0
   44643 WT2  7848 TIP3 H1   HT     0.417000        1.0080           0
   44644 WT2  7848 TIP3 H2   HT     0.417000        1.0080           0
   44645 WT2  7849 TIP3 OH2  OT    -0.834000       15.9994           0
   44646 WT2  7849 TIP3 H1   HT     0.417000        1.0080           0
   44647 WT2  7849 TIP3 H2   HT     0.417000        1.0080           0
   44648 WT2  7850 TIP3 OH2  OT    -0.834000       15.9994           0
   44649 WT2  7850 TIP3 H1   HT     0.417000        1.0080           0
   44650 WT2  7850 TIP3 H2   HT     0.417000        1.0080           0
   44651 WT2  7851 TIP3 OH2  OT    -0.834000       15.9994           0
   44652 WT2  7851 TIP3 H1   HT     0.417000        1.0080           0
   44653 WT2  7851 TIP3 H2   HT     0.417000        1.0080           0
   44654 WT2  7852 TIP3 OH2  OT    -0.834000       15.9994           0
   44655 WT2  7852 TIP3 H1   HT     0.417000        1.0080           0
   44656 WT2  7852 TIP3 H2   HT     0.417000        1.0080           0
   44657 WT2  7853 TIP3 OH2  OT    -0.834000       15.9994           0
   44658 WT2  7853 TIP3 H1   HT     0.417000        1.0080           0
   44659 WT2  7853 TIP3 H2   HT     0.417000        1.0080           0
   44660 WT2  7854 TIP3 OH2  OT    -0.834000       15.9994           0
   44661 WT2  7854 TIP3 H1   HT     0.417000        1.0080           0
   44662 WT2  7854 TIP3 H2   HT     0.417000        1.0080           0
   44663 WT2  7856 TIP3 OH2  OT    -0.834000       15.9994           0
   44664 WT2  7856 TIP3 H1   HT     0.417000        1.0080           0
   44665 WT2  7856 TIP3 H2   HT     0.417000        1.0080           0
   44666 WT2  7858 TIP3 OH2  OT    -0.834000       15.9994           0
   44667 WT2  7858 TIP3 H1   HT     0.417000        1.0080           0
   44668 WT2  7858 TIP3 H2   HT     0.417000        1.0080           0
   44669 WT2  7859 TIP3 OH2  OT    -0.834000       15.9994           0
   44670 WT2  7859 TIP3 H1   HT     0.417000        1.0080           0
   44671 WT2  7859 TIP3 H2   HT     0.417000        1.0080           0
   44672 WT2  7860 TIP3 OH2  OT    -0.834000       15.9994           0
   44673 WT2  7860 TIP3 H1   HT     0.417000        1.0080           0
   44674 WT2  7860 TIP3 H2   HT     0.417000        1.0080           0
   44675 WT2  7861 TIP3 OH2  OT    -0.834000       15.9994           0
   44676 WT2  7861 TIP3 H1   HT     0.417000        1.0080           0
   44677 WT2  7861 TIP3 H2   HT     0.417000        1.0080           0
   44678 WT2  7862 TIP3 OH2  OT    -0.834000       15.9994           0
   44679 WT2  7862 TIP3 H1   HT     0.417000        1.0080           0
   44680 WT2  7862 TIP3 H2   HT     0.417000        1.0080           0
   44681 WT2  7863 TIP3 OH2  OT    -0.834000       15.9994           0
   44682 WT2  7863 TIP3 H1   HT     0.417000        1.0080           0
   44683 WT2  7863 TIP3 H2   HT     0.417000        1.0080           0
   44684 WT2  7864 TIP3 OH2  OT    -0.834000       15.9994           0
   44685 WT2  7864 TIP3 H1   HT     0.417000        1.0080           0
   44686 WT2  7864 TIP3 H2   HT     0.417000        1.0080           0
   44687 WT2  7866 TIP3 OH2  OT    -0.834000       15.9994           0
   44688 WT2  7866 TIP3 H1   HT     0.417000        1.0080           0
   44689 WT2  7866 TIP3 H2   HT     0.417000        1.0080           0
   44690 WT2  7867 TIP3 OH2  OT    -0.834000       15.9994           0
   44691 WT2  7867 TIP3 H1   HT     0.417000        1.0080           0
   44692 WT2  7867 TIP3 H2   HT     0.417000        1.0080           0
   44693 WT2  7868 TIP3 OH2  OT    -0.834000       15.9994           0
   44694 WT2  7868 TIP3 H1   HT     0.417000        1.0080           0
   44695 WT2  7868 TIP3 H2   HT     0.417000        1.0080           0
   44696 WT2  7869 TIP3 OH2  OT    -0.834000       15.9994           0
   44697 WT2  7869 TIP3 H1   HT     0.417000        1.0080           0
   44698 WT2  7869 TIP3 H2   HT     0.417000        1.0080           0
   44699 WT2  7870 TIP3 OH2  OT    -0.834000       15.9994           0
   44700 WT2  7870 TIP3 H1   HT     0.417000        1.0080           0
   44701 WT2  7870 TIP3 H2   HT     0.417000        1.0080           0
   44702 WT2  7871 TIP3 OH2  OT    -0.834000       15.9994           0
   44703 WT2  7871 TIP3 H1   HT     0.417000        1.0080           0
   44704 WT2  7871 TIP3 H2   HT     0.417000        1.0080           0
   44705 WT2  7872 TIP3 OH2  OT    -0.834000       15.9994           0
   44706 WT2  7872 TIP3 H1   HT     0.417000        1.0080           0
   44707 WT2  7872 TIP3 H2   HT     0.417000        1.0080           0
   44708 WT2  7873 TIP3 OH2  OT    -0.834000       15.9994           0
   44709 WT2  7873 TIP3 H1   HT     0.417000        1.0080           0
   44710 WT2  7873 TIP3 H2   HT     0.417000        1.0080           0
   44711 WT2  7874 TIP3 OH2  OT    -0.834000       15.9994           0
   44712 WT2  7874 TIP3 H1   HT     0.417000        1.0080           0
   44713 WT2  7874 TIP3 H2   HT     0.417000        1.0080           0
   44714 WT2  7875 TIP3 OH2  OT    -0.834000       15.9994           0
   44715 WT2  7875 TIP3 H1   HT     0.417000        1.0080           0
   44716 WT2  7875 TIP3 H2   HT     0.417000        1.0080           0
   44717 WT2  7878 TIP3 OH2  OT    -0.834000       15.9994           0
   44718 WT2  7878 TIP3 H1   HT     0.417000        1.0080           0
   44719 WT2  7878 TIP3 H2   HT     0.417000        1.0080           0
   44720 WT2  7879 TIP3 OH2  OT    -0.834000       15.9994           0
   44721 WT2  7879 TIP3 H1   HT     0.417000        1.0080           0
   44722 WT2  7879 TIP3 H2   HT     0.417000        1.0080           0
   44723 WT2  7880 TIP3 OH2  OT    -0.834000       15.9994           0
   44724 WT2  7880 TIP3 H1   HT     0.417000        1.0080           0
   44725 WT2  7880 TIP3 H2   HT     0.417000        1.0080           0
   44726 WT2  7881 TIP3 OH2  OT    -0.834000       15.9994           0
   44727 WT2  7881 TIP3 H1   HT     0.417000        1.0080           0
   44728 WT2  7881 TIP3 H2   HT     0.417000        1.0080           0
   44729 WT2  7882 TIP3 OH2  OT    -0.834000       15.9994           0
   44730 WT2  7882 TIP3 H1   HT     0.417000        1.0080           0
   44731 WT2  7882 TIP3 H2   HT     0.417000        1.0080           0
   44732 WT2  7883 TIP3 OH2  OT    -0.834000       15.9994           0
   44733 WT2  7883 TIP3 H1   HT     0.417000        1.0080           0
   44734 WT2  7883 TIP3 H2   HT     0.417000        1.0080           0
   44735 WT2  7884 TIP3 OH2  OT    -0.834000       15.9994           0
   44736 WT2  7884 TIP3 H1   HT     0.417000        1.0080           0
   44737 WT2  7884 TIP3 H2   HT     0.417000        1.0080           0
   44738 WT2  7885 TIP3 OH2  OT    -0.834000       15.9994           0
   44739 WT2  7885 TIP3 H1   HT     0.417000        1.0080           0
   44740 WT2  7885 TIP3 H2   HT     0.417000        1.0080           0
   44741 WT2  7886 TIP3 OH2  OT    -0.834000       15.9994           0
   44742 WT2  7886 TIP3 H1   HT     0.417000        1.0080           0
   44743 WT2  7886 TIP3 H2   HT     0.417000        1.0080           0
   44744 WT2  7887 TIP3 OH2  OT    -0.834000       15.9994           0
   44745 WT2  7887 TIP3 H1   HT     0.417000        1.0080           0
   44746 WT2  7887 TIP3 H2   HT     0.417000        1.0080           0
   44747 WT2  7888 TIP3 OH2  OT    -0.834000       15.9994           0
   44748 WT2  7888 TIP3 H1   HT     0.417000        1.0080           0
   44749 WT2  7888 TIP3 H2   HT     0.417000        1.0080           0
   44750 WT2  7889 TIP3 OH2  OT    -0.834000       15.9994           0
   44751 WT2  7889 TIP3 H1   HT     0.417000        1.0080           0
   44752 WT2  7889 TIP3 H2   HT     0.417000        1.0080           0
   44753 WT2  7890 TIP3 OH2  OT    -0.834000       15.9994           0
   44754 WT2  7890 TIP3 H1   HT     0.417000        1.0080           0
   44755 WT2  7890 TIP3 H2   HT     0.417000        1.0080           0
   44756 WT2  7891 TIP3 OH2  OT    -0.834000       15.9994           0
   44757 WT2  7891 TIP3 H1   HT     0.417000        1.0080           0
   44758 WT2  7891 TIP3 H2   HT     0.417000        1.0080           0
   44759 WT2  7892 TIP3 OH2  OT    -0.834000       15.9994           0
   44760 WT2  7892 TIP3 H1   HT     0.417000        1.0080           0
   44761 WT2  7892 TIP3 H2   HT     0.417000        1.0080           0
   44762 WT2  7893 TIP3 OH2  OT    -0.834000       15.9994           0
   44763 WT2  7893 TIP3 H1   HT     0.417000        1.0080           0
   44764 WT2  7893 TIP3 H2   HT     0.417000        1.0080           0
   44765 WT2  7895 TIP3 OH2  OT    -0.834000       15.9994           0
   44766 WT2  7895 TIP3 H1   HT     0.417000        1.0080           0
   44767 WT2  7895 TIP3 H2   HT     0.417000        1.0080           0
   44768 WT2  7896 TIP3 OH2  OT    -0.834000       15.9994           0
   44769 WT2  7896 TIP3 H1   HT     0.417000        1.0080           0
   44770 WT2  7896 TIP3 H2   HT     0.417000        1.0080           0
   44771 WT2  7897 TIP3 OH2  OT    -0.834000       15.9994           0
   44772 WT2  7897 TIP3 H1   HT     0.417000        1.0080           0
   44773 WT2  7897 TIP3 H2   HT     0.417000        1.0080           0
   44774 WT2  7899 TIP3 OH2  OT    -0.834000       15.9994           0
   44775 WT2  7899 TIP3 H1   HT     0.417000        1.0080           0
   44776 WT2  7899 TIP3 H2   HT     0.417000        1.0080           0
   44777 WT2  7900 TIP3 OH2  OT    -0.834000       15.9994           0
   44778 WT2  7900 TIP3 H1   HT     0.417000        1.0080           0
   44779 WT2  7900 TIP3 H2   HT     0.417000        1.0080           0
   44780 WT2  7901 TIP3 OH2  OT    -0.834000       15.9994           0
   44781 WT2  7901 TIP3 H1   HT     0.417000        1.0080           0
   44782 WT2  7901 TIP3 H2   HT     0.417000        1.0080           0
   44783 WT2  7902 TIP3 OH2  OT    -0.834000       15.9994           0
   44784 WT2  7902 TIP3 H1   HT     0.417000        1.0080           0
   44785 WT2  7902 TIP3 H2   HT     0.417000        1.0080           0
   44786 WT2  7903 TIP3 OH2  OT    -0.834000       15.9994           0
   44787 WT2  7903 TIP3 H1   HT     0.417000        1.0080           0
   44788 WT2  7903 TIP3 H2   HT     0.417000        1.0080           0
   44789 WT2  7904 TIP3 OH2  OT    -0.834000       15.9994           0
   44790 WT2  7904 TIP3 H1   HT     0.417000        1.0080           0
   44791 WT2  7904 TIP3 H2   HT     0.417000        1.0080           0
   44792 WT2  7905 TIP3 OH2  OT    -0.834000       15.9994           0
   44793 WT2  7905 TIP3 H1   HT     0.417000        1.0080           0
   44794 WT2  7905 TIP3 H2   HT     0.417000        1.0080           0
   44795 WT2  7906 TIP3 OH2  OT    -0.834000       15.9994           0
   44796 WT2  7906 TIP3 H1   HT     0.417000        1.0080           0
   44797 WT2  7906 TIP3 H2   HT     0.417000        1.0080           0
   44798 WT2  7907 TIP3 OH2  OT    -0.834000       15.9994           0
   44799 WT2  7907 TIP3 H1   HT     0.417000        1.0080           0
   44800 WT2  7907 TIP3 H2   HT     0.417000        1.0080           0
   44801 WT2  7908 TIP3 OH2  OT    -0.834000       15.9994           0
   44802 WT2  7908 TIP3 H1   HT     0.417000        1.0080           0
   44803 WT2  7908 TIP3 H2   HT     0.417000        1.0080           0
   44804 WT2  7909 TIP3 OH2  OT    -0.834000       15.9994           0
   44805 WT2  7909 TIP3 H1   HT     0.417000        1.0080           0
   44806 WT2  7909 TIP3 H2   HT     0.417000        1.0080           0
   44807 WT2  7910 TIP3 OH2  OT    -0.834000       15.9994           0
   44808 WT2  7910 TIP3 H1   HT     0.417000        1.0080           0
   44809 WT2  7910 TIP3 H2   HT     0.417000        1.0080           0
   44810 WT2  7912 TIP3 OH2  OT    -0.834000       15.9994           0
   44811 WT2  7912 TIP3 H1   HT     0.417000        1.0080           0
   44812 WT2  7912 TIP3 H2   HT     0.417000        1.0080           0
   44813 WT2  7913 TIP3 OH2  OT    -0.834000       15.9994           0
   44814 WT2  7913 TIP3 H1   HT     0.417000        1.0080           0
   44815 WT2  7913 TIP3 H2   HT     0.417000        1.0080           0
   44816 WT2  7914 TIP3 OH2  OT    -0.834000       15.9994           0
   44817 WT2  7914 TIP3 H1   HT     0.417000        1.0080           0
   44818 WT2  7914 TIP3 H2   HT     0.417000        1.0080           0
   44819 WT2  7915 TIP3 OH2  OT    -0.834000       15.9994           0
   44820 WT2  7915 TIP3 H1   HT     0.417000        1.0080           0
   44821 WT2  7915 TIP3 H2   HT     0.417000        1.0080           0
   44822 WT2  7916 TIP3 OH2  OT    -0.834000       15.9994           0
   44823 WT2  7916 TIP3 H1   HT     0.417000        1.0080           0
   44824 WT2  7916 TIP3 H2   HT     0.417000        1.0080           0
   44825 WT2  7917 TIP3 OH2  OT    -0.834000       15.9994           0
   44826 WT2  7917 TIP3 H1   HT     0.417000        1.0080           0
   44827 WT2  7917 TIP3 H2   HT     0.417000        1.0080           0
   44828 WT2  7919 TIP3 OH2  OT    -0.834000       15.9994           0
   44829 WT2  7919 TIP3 H1   HT     0.417000        1.0080           0
   44830 WT2  7919 TIP3 H2   HT     0.417000        1.0080           0
   44831 WT2  7920 TIP3 OH2  OT    -0.834000       15.9994           0
   44832 WT2  7920 TIP3 H1   HT     0.417000        1.0080           0
   44833 WT2  7920 TIP3 H2   HT     0.417000        1.0080           0
   44834 WT2  7921 TIP3 OH2  OT    -0.834000       15.9994           0
   44835 WT2  7921 TIP3 H1   HT     0.417000        1.0080           0
   44836 WT2  7921 TIP3 H2   HT     0.417000        1.0080           0
   44837 WT2  7922 TIP3 OH2  OT    -0.834000       15.9994           0
   44838 WT2  7922 TIP3 H1   HT     0.417000        1.0080           0
   44839 WT2  7922 TIP3 H2   HT     0.417000        1.0080           0
   44840 WT2  7923 TIP3 OH2  OT    -0.834000       15.9994           0
   44841 WT2  7923 TIP3 H1   HT     0.417000        1.0080           0
   44842 WT2  7923 TIP3 H2   HT     0.417000        1.0080           0
   44843 WT2  7924 TIP3 OH2  OT    -0.834000       15.9994           0
   44844 WT2  7924 TIP3 H1   HT     0.417000        1.0080           0
   44845 WT2  7924 TIP3 H2   HT     0.417000        1.0080           0
   44846 WT2  7925 TIP3 OH2  OT    -0.834000       15.9994           0
   44847 WT2  7925 TIP3 H1   HT     0.417000        1.0080           0
   44848 WT2  7925 TIP3 H2   HT     0.417000        1.0080           0
   44849 WT2  7926 TIP3 OH2  OT    -0.834000       15.9994           0
   44850 WT2  7926 TIP3 H1   HT     0.417000        1.0080           0
   44851 WT2  7926 TIP3 H2   HT     0.417000        1.0080           0
   44852 WT2  7927 TIP3 OH2  OT    -0.834000       15.9994           0
   44853 WT2  7927 TIP3 H1   HT     0.417000        1.0080           0
   44854 WT2  7927 TIP3 H2   HT     0.417000        1.0080           0
   44855 WT2  7928 TIP3 OH2  OT    -0.834000       15.9994           0
   44856 WT2  7928 TIP3 H1   HT     0.417000        1.0080           0
   44857 WT2  7928 TIP3 H2   HT     0.417000        1.0080           0
   44858 WT2  7929 TIP3 OH2  OT    -0.834000       15.9994           0
   44859 WT2  7929 TIP3 H1   HT     0.417000        1.0080           0
   44860 WT2  7929 TIP3 H2   HT     0.417000        1.0080           0
   44861 WT2  7930 TIP3 OH2  OT    -0.834000       15.9994           0
   44862 WT2  7930 TIP3 H1   HT     0.417000        1.0080           0
   44863 WT2  7930 TIP3 H2   HT     0.417000        1.0080           0
   44864 WT2  7932 TIP3 OH2  OT    -0.834000       15.9994           0
   44865 WT2  7932 TIP3 H1   HT     0.417000        1.0080           0
   44866 WT2  7932 TIP3 H2   HT     0.417000        1.0080           0
   44867 WT2  7933 TIP3 OH2  OT    -0.834000       15.9994           0
   44868 WT2  7933 TIP3 H1   HT     0.417000        1.0080           0
   44869 WT2  7933 TIP3 H2   HT     0.417000        1.0080           0
   44870 WT2  7934 TIP3 OH2  OT    -0.834000       15.9994           0
   44871 WT2  7934 TIP3 H1   HT     0.417000        1.0080           0
   44872 WT2  7934 TIP3 H2   HT     0.417000        1.0080           0
   44873 WT2  7935 TIP3 OH2  OT    -0.834000       15.9994           0
   44874 WT2  7935 TIP3 H1   HT     0.417000        1.0080           0
   44875 WT2  7935 TIP3 H2   HT     0.417000        1.0080           0
   44876 WT2  7936 TIP3 OH2  OT    -0.834000       15.9994           0
   44877 WT2  7936 TIP3 H1   HT     0.417000        1.0080           0
   44878 WT2  7936 TIP3 H2   HT     0.417000        1.0080           0
   44879 WT2  7937 TIP3 OH2  OT    -0.834000       15.9994           0
   44880 WT2  7937 TIP3 H1   HT     0.417000        1.0080           0
   44881 WT2  7937 TIP3 H2   HT     0.417000        1.0080           0
   44882 WT2  7938 TIP3 OH2  OT    -0.834000       15.9994           0
   44883 WT2  7938 TIP3 H1   HT     0.417000        1.0080           0
   44884 WT2  7938 TIP3 H2   HT     0.417000        1.0080           0
   44885 WT2  7939 TIP3 OH2  OT    -0.834000       15.9994           0
   44886 WT2  7939 TIP3 H1   HT     0.417000        1.0080           0
   44887 WT2  7939 TIP3 H2   HT     0.417000        1.0080           0
   44888 WT2  7940 TIP3 OH2  OT    -0.834000       15.9994           0
   44889 WT2  7940 TIP3 H1   HT     0.417000        1.0080           0
   44890 WT2  7940 TIP3 H2   HT     0.417000        1.0080           0
   44891 WT2  7941 TIP3 OH2  OT    -0.834000       15.9994           0
   44892 WT2  7941 TIP3 H1   HT     0.417000        1.0080           0
   44893 WT2  7941 TIP3 H2   HT     0.417000        1.0080           0
   44894 WT2  7942 TIP3 OH2  OT    -0.834000       15.9994           0
   44895 WT2  7942 TIP3 H1   HT     0.417000        1.0080           0
   44896 WT2  7942 TIP3 H2   HT     0.417000        1.0080           0
   44897 WT2  7943 TIP3 OH2  OT    -0.834000       15.9994           0
   44898 WT2  7943 TIP3 H1   HT     0.417000        1.0080           0
   44899 WT2  7943 TIP3 H2   HT     0.417000        1.0080           0
   44900 WT2  7945 TIP3 OH2  OT    -0.834000       15.9994           0
   44901 WT2  7945 TIP3 H1   HT     0.417000        1.0080           0
   44902 WT2  7945 TIP3 H2   HT     0.417000        1.0080           0
   44903 WT2  7946 TIP3 OH2  OT    -0.834000       15.9994           0
   44904 WT2  7946 TIP3 H1   HT     0.417000        1.0080           0
   44905 WT2  7946 TIP3 H2   HT     0.417000        1.0080           0
   44906 WT2  7947 TIP3 OH2  OT    -0.834000       15.9994           0
   44907 WT2  7947 TIP3 H1   HT     0.417000        1.0080           0
   44908 WT2  7947 TIP3 H2   HT     0.417000        1.0080           0
   44909 WT2  7948 TIP3 OH2  OT    -0.834000       15.9994           0
   44910 WT2  7948 TIP3 H1   HT     0.417000        1.0080           0
   44911 WT2  7948 TIP3 H2   HT     0.417000        1.0080           0
   44912 WT2  7949 TIP3 OH2  OT    -0.834000       15.9994           0
   44913 WT2  7949 TIP3 H1   HT     0.417000        1.0080           0
   44914 WT2  7949 TIP3 H2   HT     0.417000        1.0080           0
   44915 WT2  7950 TIP3 OH2  OT    -0.834000       15.9994           0
   44916 WT2  7950 TIP3 H1   HT     0.417000        1.0080           0
   44917 WT2  7950 TIP3 H2   HT     0.417000        1.0080           0
   44918 WT2  7951 TIP3 OH2  OT    -0.834000       15.9994           0
   44919 WT2  7951 TIP3 H1   HT     0.417000        1.0080           0
   44920 WT2  7951 TIP3 H2   HT     0.417000        1.0080           0
   44921 WT2  7952 TIP3 OH2  OT    -0.834000       15.9994           0
   44922 WT2  7952 TIP3 H1   HT     0.417000        1.0080           0
   44923 WT2  7952 TIP3 H2   HT     0.417000        1.0080           0
   44924 WT2  7953 TIP3 OH2  OT    -0.834000       15.9994           0
   44925 WT2  7953 TIP3 H1   HT     0.417000        1.0080           0
   44926 WT2  7953 TIP3 H2   HT     0.417000        1.0080           0
   44927 WT2  7954 TIP3 OH2  OT    -0.834000       15.9994           0
   44928 WT2  7954 TIP3 H1   HT     0.417000        1.0080           0
   44929 WT2  7954 TIP3 H2   HT     0.417000        1.0080           0
   44930 WT2  7955 TIP3 OH2  OT    -0.834000       15.9994           0
   44931 WT2  7955 TIP3 H1   HT     0.417000        1.0080           0
   44932 WT2  7955 TIP3 H2   HT     0.417000        1.0080           0
   44933 WT2  7956 TIP3 OH2  OT    -0.834000       15.9994           0
   44934 WT2  7956 TIP3 H1   HT     0.417000        1.0080           0
   44935 WT2  7956 TIP3 H2   HT     0.417000        1.0080           0
   44936 WT2  7957 TIP3 OH2  OT    -0.834000       15.9994           0
   44937 WT2  7957 TIP3 H1   HT     0.417000        1.0080           0
   44938 WT2  7957 TIP3 H2   HT     0.417000        1.0080           0
   44939 WT2  7958 TIP3 OH2  OT    -0.834000       15.9994           0
   44940 WT2  7958 TIP3 H1   HT     0.417000        1.0080           0
   44941 WT2  7958 TIP3 H2   HT     0.417000        1.0080           0
   44942 WT2  7959 TIP3 OH2  OT    -0.834000       15.9994           0
   44943 WT2  7959 TIP3 H1   HT     0.417000        1.0080           0
   44944 WT2  7959 TIP3 H2   HT     0.417000        1.0080           0
   44945 WT2  7960 TIP3 OH2  OT    -0.834000       15.9994           0
   44946 WT2  7960 TIP3 H1   HT     0.417000        1.0080           0
   44947 WT2  7960 TIP3 H2   HT     0.417000        1.0080           0
   44948 WT2  7962 TIP3 OH2  OT    -0.834000       15.9994           0
   44949 WT2  7962 TIP3 H1   HT     0.417000        1.0080           0
   44950 WT2  7962 TIP3 H2   HT     0.417000        1.0080           0
   44951 WT2  7963 TIP3 OH2  OT    -0.834000       15.9994           0
   44952 WT2  7963 TIP3 H1   HT     0.417000        1.0080           0
   44953 WT2  7963 TIP3 H2   HT     0.417000        1.0080           0
   44954 WT2  7964 TIP3 OH2  OT    -0.834000       15.9994           0
   44955 WT2  7964 TIP3 H1   HT     0.417000        1.0080           0
   44956 WT2  7964 TIP3 H2   HT     0.417000        1.0080           0
   44957 WT2  7966 TIP3 OH2  OT    -0.834000       15.9994           0
   44958 WT2  7966 TIP3 H1   HT     0.417000        1.0080           0
   44959 WT2  7966 TIP3 H2   HT     0.417000        1.0080           0
   44960 WT2  7967 TIP3 OH2  OT    -0.834000       15.9994           0
   44961 WT2  7967 TIP3 H1   HT     0.417000        1.0080           0
   44962 WT2  7967 TIP3 H2   HT     0.417000        1.0080           0
   44963 WT2  7968 TIP3 OH2  OT    -0.834000       15.9994           0
   44964 WT2  7968 TIP3 H1   HT     0.417000        1.0080           0
   44965 WT2  7968 TIP3 H2   HT     0.417000        1.0080           0
   44966 WT2  7969 TIP3 OH2  OT    -0.834000       15.9994           0
   44967 WT2  7969 TIP3 H1   HT     0.417000        1.0080           0
   44968 WT2  7969 TIP3 H2   HT     0.417000        1.0080           0
   44969 WT2  7970 TIP3 OH2  OT    -0.834000       15.9994           0
   44970 WT2  7970 TIP3 H1   HT     0.417000        1.0080           0
   44971 WT2  7970 TIP3 H2   HT     0.417000        1.0080           0
   44972 WT2  7971 TIP3 OH2  OT    -0.834000       15.9994           0
   44973 WT2  7971 TIP3 H1   HT     0.417000        1.0080           0
   44974 WT2  7971 TIP3 H2   HT     0.417000        1.0080           0
   44975 WT2  7972 TIP3 OH2  OT    -0.834000       15.9994           0
   44976 WT2  7972 TIP3 H1   HT     0.417000        1.0080           0
   44977 WT2  7972 TIP3 H2   HT     0.417000        1.0080           0
   44978 WT2  7973 TIP3 OH2  OT    -0.834000       15.9994           0
   44979 WT2  7973 TIP3 H1   HT     0.417000        1.0080           0
   44980 WT2  7973 TIP3 H2   HT     0.417000        1.0080           0
   44981 WT2  7975 TIP3 OH2  OT    -0.834000       15.9994           0
   44982 WT2  7975 TIP3 H1   HT     0.417000        1.0080           0
   44983 WT2  7975 TIP3 H2   HT     0.417000        1.0080           0
   44984 WT2  7976 TIP3 OH2  OT    -0.834000       15.9994           0
   44985 WT2  7976 TIP3 H1   HT     0.417000        1.0080           0
   44986 WT2  7976 TIP3 H2   HT     0.417000        1.0080           0
   44987 WT2  7977 TIP3 OH2  OT    -0.834000       15.9994           0
   44988 WT2  7977 TIP3 H1   HT     0.417000        1.0080           0
   44989 WT2  7977 TIP3 H2   HT     0.417000        1.0080           0
   44990 WT2  7978 TIP3 OH2  OT    -0.834000       15.9994           0
   44991 WT2  7978 TIP3 H1   HT     0.417000        1.0080           0
   44992 WT2  7978 TIP3 H2   HT     0.417000        1.0080           0
   44993 WT2  7979 TIP3 OH2  OT    -0.834000       15.9994           0
   44994 WT2  7979 TIP3 H1   HT     0.417000        1.0080           0
   44995 WT2  7979 TIP3 H2   HT     0.417000        1.0080           0
   44996 WT2  7980 TIP3 OH2  OT    -0.834000       15.9994           0
   44997 WT2  7980 TIP3 H1   HT     0.417000        1.0080           0
   44998 WT2  7980 TIP3 H2   HT     0.417000        1.0080           0
   44999 WT2  7982 TIP3 OH2  OT    -0.834000       15.9994           0
   45000 WT2  7982 TIP3 H1   HT     0.417000        1.0080           0
   45001 WT2  7982 TIP3 H2   HT     0.417000        1.0080           0
   45002 WT2  7983 TIP3 OH2  OT    -0.834000       15.9994           0
   45003 WT2  7983 TIP3 H1   HT     0.417000        1.0080           0
   45004 WT2  7983 TIP3 H2   HT     0.417000        1.0080           0
   45005 WT2  7984 TIP3 OH2  OT    -0.834000       15.9994           0
   45006 WT2  7984 TIP3 H1   HT     0.417000        1.0080           0
   45007 WT2  7984 TIP3 H2   HT     0.417000        1.0080           0
   45008 WT2  7985 TIP3 OH2  OT    -0.834000       15.9994           0
   45009 WT2  7985 TIP3 H1   HT     0.417000        1.0080           0
   45010 WT2  7985 TIP3 H2   HT     0.417000        1.0080           0
   45011 WT2  7986 TIP3 OH2  OT    -0.834000       15.9994           0
   45012 WT2  7986 TIP3 H1   HT     0.417000        1.0080           0
   45013 WT2  7986 TIP3 H2   HT     0.417000        1.0080           0
   45014 WT2  7987 TIP3 OH2  OT    -0.834000       15.9994           0
   45015 WT2  7987 TIP3 H1   HT     0.417000        1.0080           0
   45016 WT2  7987 TIP3 H2   HT     0.417000        1.0080           0
   45017 WT2  7989 TIP3 OH2  OT    -0.834000       15.9994           0
   45018 WT2  7989 TIP3 H1   HT     0.417000        1.0080           0
   45019 WT2  7989 TIP3 H2   HT     0.417000        1.0080           0
   45020 WT2  7990 TIP3 OH2  OT    -0.834000       15.9994           0
   45021 WT2  7990 TIP3 H1   HT     0.417000        1.0080           0
   45022 WT2  7990 TIP3 H2   HT     0.417000        1.0080           0
   45023 WT2  7991 TIP3 OH2  OT    -0.834000       15.9994           0
   45024 WT2  7991 TIP3 H1   HT     0.417000        1.0080           0
   45025 WT2  7991 TIP3 H2   HT     0.417000        1.0080           0
   45026 WT2  7992 TIP3 OH2  OT    -0.834000       15.9994           0
   45027 WT2  7992 TIP3 H1   HT     0.417000        1.0080           0
   45028 WT2  7992 TIP3 H2   HT     0.417000        1.0080           0
   45029 WT2  7994 TIP3 OH2  OT    -0.834000       15.9994           0
   45030 WT2  7994 TIP3 H1   HT     0.417000        1.0080           0
   45031 WT2  7994 TIP3 H2   HT     0.417000        1.0080           0
   45032 WT2  7997 TIP3 OH2  OT    -0.834000       15.9994           0
   45033 WT2  7997 TIP3 H1   HT     0.417000        1.0080           0
   45034 WT2  7997 TIP3 H2   HT     0.417000        1.0080           0
   45035 WT2  7999 TIP3 OH2  OT    -0.834000       15.9994           0
   45036 WT2  7999 TIP3 H1   HT     0.417000        1.0080           0
   45037 WT2  7999 TIP3 H2   HT     0.417000        1.0080           0
   45038 WT2  8004 TIP3 OH2  OT    -0.834000       15.9994           0
   45039 WT2  8004 TIP3 H1   HT     0.417000        1.0080           0
   45040 WT2  8004 TIP3 H2   HT     0.417000        1.0080           0
   45041 WT2  8005 TIP3 OH2  OT    -0.834000       15.9994           0
   45042 WT2  8005 TIP3 H1   HT     0.417000        1.0080           0
   45043 WT2  8005 TIP3 H2   HT     0.417000        1.0080           0
   45044 WT2  8006 TIP3 OH2  OT    -0.834000       15.9994           0
   45045 WT2  8006 TIP3 H1   HT     0.417000        1.0080           0
   45046 WT2  8006 TIP3 H2   HT     0.417000        1.0080           0
   45047 WT2  8007 TIP3 OH2  OT    -0.834000       15.9994           0
   45048 WT2  8007 TIP3 H1   HT     0.417000        1.0080           0
   45049 WT2  8007 TIP3 H2   HT     0.417000        1.0080           0
   45050 WT2  8008 TIP3 OH2  OT    -0.834000       15.9994           0
   45051 WT2  8008 TIP3 H1   HT     0.417000        1.0080           0
   45052 WT2  8008 TIP3 H2   HT     0.417000        1.0080           0
   45053 WT2  8010 TIP3 OH2  OT    -0.834000       15.9994           0
   45054 WT2  8010 TIP3 H1   HT     0.417000        1.0080           0
   45055 WT2  8010 TIP3 H2   HT     0.417000        1.0080           0
   45056 WT2  8011 TIP3 OH2  OT    -0.834000       15.9994           0
   45057 WT2  8011 TIP3 H1   HT     0.417000        1.0080           0
   45058 WT2  8011 TIP3 H2   HT     0.417000        1.0080           0
   45059 WT2  8012 TIP3 OH2  OT    -0.834000       15.9994           0
   45060 WT2  8012 TIP3 H1   HT     0.417000        1.0080           0
   45061 WT2  8012 TIP3 H2   HT     0.417000        1.0080           0
   45062 WT2  8013 TIP3 OH2  OT    -0.834000       15.9994           0
   45063 WT2  8013 TIP3 H1   HT     0.417000        1.0080           0
   45064 WT2  8013 TIP3 H2   HT     0.417000        1.0080           0
   45065 WT2  8014 TIP3 OH2  OT    -0.834000       15.9994           0
   45066 WT2  8014 TIP3 H1   HT     0.417000        1.0080           0
   45067 WT2  8014 TIP3 H2   HT     0.417000        1.0080           0
   45068 WT2  8015 TIP3 OH2  OT    -0.834000       15.9994           0
   45069 WT2  8015 TIP3 H1   HT     0.417000        1.0080           0
   45070 WT2  8015 TIP3 H2   HT     0.417000        1.0080           0
   45071 WT2  8016 TIP3 OH2  OT    -0.834000       15.9994           0
   45072 WT2  8016 TIP3 H1   HT     0.417000        1.0080           0
   45073 WT2  8016 TIP3 H2   HT     0.417000        1.0080           0
   45074 WT2  8017 TIP3 OH2  OT    -0.834000       15.9994           0
   45075 WT2  8017 TIP3 H1   HT     0.417000        1.0080           0
   45076 WT2  8017 TIP3 H2   HT     0.417000        1.0080           0
   45077 WT2  8018 TIP3 OH2  OT    -0.834000       15.9994           0
   45078 WT2  8018 TIP3 H1   HT     0.417000        1.0080           0
   45079 WT2  8018 TIP3 H2   HT     0.417000        1.0080           0
   45080 WT2  8019 TIP3 OH2  OT    -0.834000       15.9994           0
   45081 WT2  8019 TIP3 H1   HT     0.417000        1.0080           0
   45082 WT2  8019 TIP3 H2   HT     0.417000        1.0080           0
   45083 WT2  8020 TIP3 OH2  OT    -0.834000       15.9994           0
   45084 WT2  8020 TIP3 H1   HT     0.417000        1.0080           0
   45085 WT2  8020 TIP3 H2   HT     0.417000        1.0080           0
   45086 WT2  8022 TIP3 OH2  OT    -0.834000       15.9994           0
   45087 WT2  8022 TIP3 H1   HT     0.417000        1.0080           0
   45088 WT2  8022 TIP3 H2   HT     0.417000        1.0080           0
   45089 WT2  8023 TIP3 OH2  OT    -0.834000       15.9994           0
   45090 WT2  8023 TIP3 H1   HT     0.417000        1.0080           0
   45091 WT2  8023 TIP3 H2   HT     0.417000        1.0080           0
   45092 WT2  8024 TIP3 OH2  OT    -0.834000       15.9994           0
   45093 WT2  8024 TIP3 H1   HT     0.417000        1.0080           0
   45094 WT2  8024 TIP3 H2   HT     0.417000        1.0080           0
   45095 WT2  8025 TIP3 OH2  OT    -0.834000       15.9994           0
   45096 WT2  8025 TIP3 H1   HT     0.417000        1.0080           0
   45097 WT2  8025 TIP3 H2   HT     0.417000        1.0080           0
   45098 WT2  8026 TIP3 OH2  OT    -0.834000       15.9994           0
   45099 WT2  8026 TIP3 H1   HT     0.417000        1.0080           0
   45100 WT2  8026 TIP3 H2   HT     0.417000        1.0080           0
   45101 WT2  8027 TIP3 OH2  OT    -0.834000       15.9994           0
   45102 WT2  8027 TIP3 H1   HT     0.417000        1.0080           0
   45103 WT2  8027 TIP3 H2   HT     0.417000        1.0080           0
   45104 WT2  8028 TIP3 OH2  OT    -0.834000       15.9994           0
   45105 WT2  8028 TIP3 H1   HT     0.417000        1.0080           0
   45106 WT2  8028 TIP3 H2   HT     0.417000        1.0080           0
   45107 WT2  8030 TIP3 OH2  OT    -0.834000       15.9994           0
   45108 WT2  8030 TIP3 H1   HT     0.417000        1.0080           0
   45109 WT2  8030 TIP3 H2   HT     0.417000        1.0080           0
   45110 WT2  8032 TIP3 OH2  OT    -0.834000       15.9994           0
   45111 WT2  8032 TIP3 H1   HT     0.417000        1.0080           0
   45112 WT2  8032 TIP3 H2   HT     0.417000        1.0080           0
   45113 WT2  8033 TIP3 OH2  OT    -0.834000       15.9994           0
   45114 WT2  8033 TIP3 H1   HT     0.417000        1.0080           0
   45115 WT2  8033 TIP3 H2   HT     0.417000        1.0080           0
   45116 WT2  8034 TIP3 OH2  OT    -0.834000       15.9994           0
   45117 WT2  8034 TIP3 H1   HT     0.417000        1.0080           0
   45118 WT2  8034 TIP3 H2   HT     0.417000        1.0080           0
   45119 WT2  8035 TIP3 OH2  OT    -0.834000       15.9994           0
   45120 WT2  8035 TIP3 H1   HT     0.417000        1.0080           0
   45121 WT2  8035 TIP3 H2   HT     0.417000        1.0080           0
   45122 WT2  8036 TIP3 OH2  OT    -0.834000       15.9994           0
   45123 WT2  8036 TIP3 H1   HT     0.417000        1.0080           0
   45124 WT2  8036 TIP3 H2   HT     0.417000        1.0080           0
   45125 WT2  8037 TIP3 OH2  OT    -0.834000       15.9994           0
   45126 WT2  8037 TIP3 H1   HT     0.417000        1.0080           0
   45127 WT2  8037 TIP3 H2   HT     0.417000        1.0080           0
   45128 WT2  8038 TIP3 OH2  OT    -0.834000       15.9994           0
   45129 WT2  8038 TIP3 H1   HT     0.417000        1.0080           0
   45130 WT2  8038 TIP3 H2   HT     0.417000        1.0080           0
   45131 WT2  8039 TIP3 OH2  OT    -0.834000       15.9994           0
   45132 WT2  8039 TIP3 H1   HT     0.417000        1.0080           0
   45133 WT2  8039 TIP3 H2   HT     0.417000        1.0080           0
   45134 WT2  8040 TIP3 OH2  OT    -0.834000       15.9994           0
   45135 WT2  8040 TIP3 H1   HT     0.417000        1.0080           0
   45136 WT2  8040 TIP3 H2   HT     0.417000        1.0080           0
   45137 WT2  8041 TIP3 OH2  OT    -0.834000       15.9994           0
   45138 WT2  8041 TIP3 H1   HT     0.417000        1.0080           0
   45139 WT2  8041 TIP3 H2   HT     0.417000        1.0080           0
   45140 WT2  8042 TIP3 OH2  OT    -0.834000       15.9994           0
   45141 WT2  8042 TIP3 H1   HT     0.417000        1.0080           0
   45142 WT2  8042 TIP3 H2   HT     0.417000        1.0080           0
   45143 WT2  8043 TIP3 OH2  OT    -0.834000       15.9994           0
   45144 WT2  8043 TIP3 H1   HT     0.417000        1.0080           0
   45145 WT2  8043 TIP3 H2   HT     0.417000        1.0080           0
   45146 WT2  8044 TIP3 OH2  OT    -0.834000       15.9994           0
   45147 WT2  8044 TIP3 H1   HT     0.417000        1.0080           0
   45148 WT2  8044 TIP3 H2   HT     0.417000        1.0080           0
   45149 WT2  8045 TIP3 OH2  OT    -0.834000       15.9994           0
   45150 WT2  8045 TIP3 H1   HT     0.417000        1.0080           0
   45151 WT2  8045 TIP3 H2   HT     0.417000        1.0080           0
   45152 WT2  8046 TIP3 OH2  OT    -0.834000       15.9994           0
   45153 WT2  8046 TIP3 H1   HT     0.417000        1.0080           0
   45154 WT2  8046 TIP3 H2   HT     0.417000        1.0080           0
   45155 WT2  8047 TIP3 OH2  OT    -0.834000       15.9994           0
   45156 WT2  8047 TIP3 H1   HT     0.417000        1.0080           0
   45157 WT2  8047 TIP3 H2   HT     0.417000        1.0080           0
   45158 WT2  8048 TIP3 OH2  OT    -0.834000       15.9994           0
   45159 WT2  8048 TIP3 H1   HT     0.417000        1.0080           0
   45160 WT2  8048 TIP3 H2   HT     0.417000        1.0080           0
   45161 WT2  8049 TIP3 OH2  OT    -0.834000       15.9994           0
   45162 WT2  8049 TIP3 H1   HT     0.417000        1.0080           0
   45163 WT2  8049 TIP3 H2   HT     0.417000        1.0080           0
   45164 WT2  8050 TIP3 OH2  OT    -0.834000       15.9994           0
   45165 WT2  8050 TIP3 H1   HT     0.417000        1.0080           0
   45166 WT2  8050 TIP3 H2   HT     0.417000        1.0080           0
   45167 WT2  8052 TIP3 OH2  OT    -0.834000       15.9994           0
   45168 WT2  8052 TIP3 H1   HT     0.417000        1.0080           0
   45169 WT2  8052 TIP3 H2   HT     0.417000        1.0080           0
   45170 WT2  8054 TIP3 OH2  OT    -0.834000       15.9994           0
   45171 WT2  8054 TIP3 H1   HT     0.417000        1.0080           0
   45172 WT2  8054 TIP3 H2   HT     0.417000        1.0080           0
   45173 WT2  8055 TIP3 OH2  OT    -0.834000       15.9994           0
   45174 WT2  8055 TIP3 H1   HT     0.417000        1.0080           0
   45175 WT2  8055 TIP3 H2   HT     0.417000        1.0080           0
   45176 WT2  8056 TIP3 OH2  OT    -0.834000       15.9994           0
   45177 WT2  8056 TIP3 H1   HT     0.417000        1.0080           0
   45178 WT2  8056 TIP3 H2   HT     0.417000        1.0080           0
   45179 WT2  8058 TIP3 OH2  OT    -0.834000       15.9994           0
   45180 WT2  8058 TIP3 H1   HT     0.417000        1.0080           0
   45181 WT2  8058 TIP3 H2   HT     0.417000        1.0080           0
   45182 WT2  8060 TIP3 OH2  OT    -0.834000       15.9994           0
   45183 WT2  8060 TIP3 H1   HT     0.417000        1.0080           0
   45184 WT2  8060 TIP3 H2   HT     0.417000        1.0080           0
   45185 WT2  8061 TIP3 OH2  OT    -0.834000       15.9994           0
   45186 WT2  8061 TIP3 H1   HT     0.417000        1.0080           0
   45187 WT2  8061 TIP3 H2   HT     0.417000        1.0080           0
   45188 WT2  8062 TIP3 OH2  OT    -0.834000       15.9994           0
   45189 WT2  8062 TIP3 H1   HT     0.417000        1.0080           0
   45190 WT2  8062 TIP3 H2   HT     0.417000        1.0080           0
   45191 WT2  8063 TIP3 OH2  OT    -0.834000       15.9994           0
   45192 WT2  8063 TIP3 H1   HT     0.417000        1.0080           0
   45193 WT2  8063 TIP3 H2   HT     0.417000        1.0080           0
   45194 WT2  8064 TIP3 OH2  OT    -0.834000       15.9994           0
   45195 WT2  8064 TIP3 H1   HT     0.417000        1.0080           0
   45196 WT2  8064 TIP3 H2   HT     0.417000        1.0080           0
   45197 WT2  8067 TIP3 OH2  OT    -0.834000       15.9994           0
   45198 WT2  8067 TIP3 H1   HT     0.417000        1.0080           0
   45199 WT2  8067 TIP3 H2   HT     0.417000        1.0080           0
   45200 WT2  8068 TIP3 OH2  OT    -0.834000       15.9994           0
   45201 WT2  8068 TIP3 H1   HT     0.417000        1.0080           0
   45202 WT2  8068 TIP3 H2   HT     0.417000        1.0080           0
   45203 WT2  8069 TIP3 OH2  OT    -0.834000       15.9994           0
   45204 WT2  8069 TIP3 H1   HT     0.417000        1.0080           0
   45205 WT2  8069 TIP3 H2   HT     0.417000        1.0080           0
   45206 WT2  8070 TIP3 OH2  OT    -0.834000       15.9994           0
   45207 WT2  8070 TIP3 H1   HT     0.417000        1.0080           0
   45208 WT2  8070 TIP3 H2   HT     0.417000        1.0080           0
   45209 WT2  8071 TIP3 OH2  OT    -0.834000       15.9994           0
   45210 WT2  8071 TIP3 H1   HT     0.417000        1.0080           0
   45211 WT2  8071 TIP3 H2   HT     0.417000        1.0080           0
   45212 WT2  8072 TIP3 OH2  OT    -0.834000       15.9994           0
   45213 WT2  8072 TIP3 H1   HT     0.417000        1.0080           0
   45214 WT2  8072 TIP3 H2   HT     0.417000        1.0080           0
   45215 WT2  8073 TIP3 OH2  OT    -0.834000       15.9994           0
   45216 WT2  8073 TIP3 H1   HT     0.417000        1.0080           0
   45217 WT2  8073 TIP3 H2   HT     0.417000        1.0080           0
   45218 WT2  8074 TIP3 OH2  OT    -0.834000       15.9994           0
   45219 WT2  8074 TIP3 H1   HT     0.417000        1.0080           0
   45220 WT2  8074 TIP3 H2   HT     0.417000        1.0080           0
   45221 WT2  8075 TIP3 OH2  OT    -0.834000       15.9994           0
   45222 WT2  8075 TIP3 H1   HT     0.417000        1.0080           0
   45223 WT2  8075 TIP3 H2   HT     0.417000        1.0080           0
   45224 WT2  8076 TIP3 OH2  OT    -0.834000       15.9994           0
   45225 WT2  8076 TIP3 H1   HT     0.417000        1.0080           0
   45226 WT2  8076 TIP3 H2   HT     0.417000        1.0080           0
   45227 WT2  8077 TIP3 OH2  OT    -0.834000       15.9994           0
   45228 WT2  8077 TIP3 H1   HT     0.417000        1.0080           0
   45229 WT2  8077 TIP3 H2   HT     0.417000        1.0080           0
   45230 WT2  8079 TIP3 OH2  OT    -0.834000       15.9994           0
   45231 WT2  8079 TIP3 H1   HT     0.417000        1.0080           0
   45232 WT2  8079 TIP3 H2   HT     0.417000        1.0080           0
   45233 WT2  8080 TIP3 OH2  OT    -0.834000       15.9994           0
   45234 WT2  8080 TIP3 H1   HT     0.417000        1.0080           0
   45235 WT2  8080 TIP3 H2   HT     0.417000        1.0080           0
   45236 WT2  8081 TIP3 OH2  OT    -0.834000       15.9994           0
   45237 WT2  8081 TIP3 H1   HT     0.417000        1.0080           0
   45238 WT2  8081 TIP3 H2   HT     0.417000        1.0080           0
   45239 WT2  8083 TIP3 OH2  OT    -0.834000       15.9994           0
   45240 WT2  8083 TIP3 H1   HT     0.417000        1.0080           0
   45241 WT2  8083 TIP3 H2   HT     0.417000        1.0080           0
   45242 WT2  8084 TIP3 OH2  OT    -0.834000       15.9994           0
   45243 WT2  8084 TIP3 H1   HT     0.417000        1.0080           0
   45244 WT2  8084 TIP3 H2   HT     0.417000        1.0080           0
   45245 WT2  8086 TIP3 OH2  OT    -0.834000       15.9994           0
   45246 WT2  8086 TIP3 H1   HT     0.417000        1.0080           0
   45247 WT2  8086 TIP3 H2   HT     0.417000        1.0080           0
   45248 WT2  8087 TIP3 OH2  OT    -0.834000       15.9994           0
   45249 WT2  8087 TIP3 H1   HT     0.417000        1.0080           0
   45250 WT2  8087 TIP3 H2   HT     0.417000        1.0080           0
   45251 WT2  8088 TIP3 OH2  OT    -0.834000       15.9994           0
   45252 WT2  8088 TIP3 H1   HT     0.417000        1.0080           0
   45253 WT2  8088 TIP3 H2   HT     0.417000        1.0080           0
   45254 WT2  8089 TIP3 OH2  OT    -0.834000       15.9994           0
   45255 WT2  8089 TIP3 H1   HT     0.417000        1.0080           0
   45256 WT2  8089 TIP3 H2   HT     0.417000        1.0080           0
   45257 WT2  8090 TIP3 OH2  OT    -0.834000       15.9994           0
   45258 WT2  8090 TIP3 H1   HT     0.417000        1.0080           0
   45259 WT2  8090 TIP3 H2   HT     0.417000        1.0080           0
   45260 WT2  8092 TIP3 OH2  OT    -0.834000       15.9994           0
   45261 WT2  8092 TIP3 H1   HT     0.417000        1.0080           0
   45262 WT2  8092 TIP3 H2   HT     0.417000        1.0080           0
   45263 WT2  8093 TIP3 OH2  OT    -0.834000       15.9994           0
   45264 WT2  8093 TIP3 H1   HT     0.417000        1.0080           0
   45265 WT2  8093 TIP3 H2   HT     0.417000        1.0080           0
   45266 WT2  8094 TIP3 OH2  OT    -0.834000       15.9994           0
   45267 WT2  8094 TIP3 H1   HT     0.417000        1.0080           0
   45268 WT2  8094 TIP3 H2   HT     0.417000        1.0080           0
   45269 WT2  8095 TIP3 OH2  OT    -0.834000       15.9994           0
   45270 WT2  8095 TIP3 H1   HT     0.417000        1.0080           0
   45271 WT2  8095 TIP3 H2   HT     0.417000        1.0080           0
   45272 WT2  8096 TIP3 OH2  OT    -0.834000       15.9994           0
   45273 WT2  8096 TIP3 H1   HT     0.417000        1.0080           0
   45274 WT2  8096 TIP3 H2   HT     0.417000        1.0080           0
   45275 WT2  8097 TIP3 OH2  OT    -0.834000       15.9994           0
   45276 WT2  8097 TIP3 H1   HT     0.417000        1.0080           0
   45277 WT2  8097 TIP3 H2   HT     0.417000        1.0080           0
   45278 WT2  8098 TIP3 OH2  OT    -0.834000       15.9994           0
   45279 WT2  8098 TIP3 H1   HT     0.417000        1.0080           0
   45280 WT2  8098 TIP3 H2   HT     0.417000        1.0080           0
   45281 WT2  8099 TIP3 OH2  OT    -0.834000       15.9994           0
   45282 WT2  8099 TIP3 H1   HT     0.417000        1.0080           0
   45283 WT2  8099 TIP3 H2   HT     0.417000        1.0080           0
   45284 WT2  8100 TIP3 OH2  OT    -0.834000       15.9994           0
   45285 WT2  8100 TIP3 H1   HT     0.417000        1.0080           0
   45286 WT2  8100 TIP3 H2   HT     0.417000        1.0080           0
   45287 WT2  8101 TIP3 OH2  OT    -0.834000       15.9994           0
   45288 WT2  8101 TIP3 H1   HT     0.417000        1.0080           0
   45289 WT2  8101 TIP3 H2   HT     0.417000        1.0080           0
   45290 WT2  8102 TIP3 OH2  OT    -0.834000       15.9994           0
   45291 WT2  8102 TIP3 H1   HT     0.417000        1.0080           0
   45292 WT2  8102 TIP3 H2   HT     0.417000        1.0080           0
   45293 WT2  8104 TIP3 OH2  OT    -0.834000       15.9994           0
   45294 WT2  8104 TIP3 H1   HT     0.417000        1.0080           0
   45295 WT2  8104 TIP3 H2   HT     0.417000        1.0080           0
   45296 WT2  8105 TIP3 OH2  OT    -0.834000       15.9994           0
   45297 WT2  8105 TIP3 H1   HT     0.417000        1.0080           0
   45298 WT2  8105 TIP3 H2   HT     0.417000        1.0080           0
   45299 WT2  8107 TIP3 OH2  OT    -0.834000       15.9994           0
   45300 WT2  8107 TIP3 H1   HT     0.417000        1.0080           0
   45301 WT2  8107 TIP3 H2   HT     0.417000        1.0080           0
   45302 WT2  8108 TIP3 OH2  OT    -0.834000       15.9994           0
   45303 WT2  8108 TIP3 H1   HT     0.417000        1.0080           0
   45304 WT2  8108 TIP3 H2   HT     0.417000        1.0080           0
   45305 WT2  8109 TIP3 OH2  OT    -0.834000       15.9994           0
   45306 WT2  8109 TIP3 H1   HT     0.417000        1.0080           0
   45307 WT2  8109 TIP3 H2   HT     0.417000        1.0080           0
   45308 WT2  8110 TIP3 OH2  OT    -0.834000       15.9994           0
   45309 WT2  8110 TIP3 H1   HT     0.417000        1.0080           0
   45310 WT2  8110 TIP3 H2   HT     0.417000        1.0080           0
   45311 WT2  8111 TIP3 OH2  OT    -0.834000       15.9994           0
   45312 WT2  8111 TIP3 H1   HT     0.417000        1.0080           0
   45313 WT2  8111 TIP3 H2   HT     0.417000        1.0080           0
   45314 WT2  8112 TIP3 OH2  OT    -0.834000       15.9994           0
   45315 WT2  8112 TIP3 H1   HT     0.417000        1.0080           0
   45316 WT2  8112 TIP3 H2   HT     0.417000        1.0080           0
   45317 WT2  8114 TIP3 OH2  OT    -0.834000       15.9994           0
   45318 WT2  8114 TIP3 H1   HT     0.417000        1.0080           0
   45319 WT2  8114 TIP3 H2   HT     0.417000        1.0080           0
   45320 WT2  8115 TIP3 OH2  OT    -0.834000       15.9994           0
   45321 WT2  8115 TIP3 H1   HT     0.417000        1.0080           0
   45322 WT2  8115 TIP3 H2   HT     0.417000        1.0080           0
   45323 WT2  8116 TIP3 OH2  OT    -0.834000       15.9994           0
   45324 WT2  8116 TIP3 H1   HT     0.417000        1.0080           0
   45325 WT2  8116 TIP3 H2   HT     0.417000        1.0080           0
   45326 WT2  8117 TIP3 OH2  OT    -0.834000       15.9994           0
   45327 WT2  8117 TIP3 H1   HT     0.417000        1.0080           0
   45328 WT2  8117 TIP3 H2   HT     0.417000        1.0080           0
   45329 WT2  8118 TIP3 OH2  OT    -0.834000       15.9994           0
   45330 WT2  8118 TIP3 H1   HT     0.417000        1.0080           0
   45331 WT2  8118 TIP3 H2   HT     0.417000        1.0080           0
   45332 WT2  8119 TIP3 OH2  OT    -0.834000       15.9994           0
   45333 WT2  8119 TIP3 H1   HT     0.417000        1.0080           0
   45334 WT2  8119 TIP3 H2   HT     0.417000        1.0080           0
   45335 WT2  8120 TIP3 OH2  OT    -0.834000       15.9994           0
   45336 WT2  8120 TIP3 H1   HT     0.417000        1.0080           0
   45337 WT2  8120 TIP3 H2   HT     0.417000        1.0080           0
   45338 WT2  8121 TIP3 OH2  OT    -0.834000       15.9994           0
   45339 WT2  8121 TIP3 H1   HT     0.417000        1.0080           0
   45340 WT2  8121 TIP3 H2   HT     0.417000        1.0080           0
   45341 WT2  8123 TIP3 OH2  OT    -0.834000       15.9994           0
   45342 WT2  8123 TIP3 H1   HT     0.417000        1.0080           0
   45343 WT2  8123 TIP3 H2   HT     0.417000        1.0080           0
   45344 WT2  8124 TIP3 OH2  OT    -0.834000       15.9994           0
   45345 WT2  8124 TIP3 H1   HT     0.417000        1.0080           0
   45346 WT2  8124 TIP3 H2   HT     0.417000        1.0080           0
   45347 WT2  8125 TIP3 OH2  OT    -0.834000       15.9994           0
   45348 WT2  8125 TIP3 H1   HT     0.417000        1.0080           0
   45349 WT2  8125 TIP3 H2   HT     0.417000        1.0080           0
   45350 WT2  8126 TIP3 OH2  OT    -0.834000       15.9994           0
   45351 WT2  8126 TIP3 H1   HT     0.417000        1.0080           0
   45352 WT2  8126 TIP3 H2   HT     0.417000        1.0080           0
   45353 WT2  8127 TIP3 OH2  OT    -0.834000       15.9994           0
   45354 WT2  8127 TIP3 H1   HT     0.417000        1.0080           0
   45355 WT2  8127 TIP3 H2   HT     0.417000        1.0080           0
   45356 WT2  8129 TIP3 OH2  OT    -0.834000       15.9994           0
   45357 WT2  8129 TIP3 H1   HT     0.417000        1.0080           0
   45358 WT2  8129 TIP3 H2   HT     0.417000        1.0080           0
   45359 WT2  8130 TIP3 OH2  OT    -0.834000       15.9994           0
   45360 WT2  8130 TIP3 H1   HT     0.417000        1.0080           0
   45361 WT2  8130 TIP3 H2   HT     0.417000        1.0080           0
   45362 WT2  8131 TIP3 OH2  OT    -0.834000       15.9994           0
   45363 WT2  8131 TIP3 H1   HT     0.417000        1.0080           0
   45364 WT2  8131 TIP3 H2   HT     0.417000        1.0080           0
   45365 WT2  8132 TIP3 OH2  OT    -0.834000       15.9994           0
   45366 WT2  8132 TIP3 H1   HT     0.417000        1.0080           0
   45367 WT2  8132 TIP3 H2   HT     0.417000        1.0080           0
   45368 WT2  8134 TIP3 OH2  OT    -0.834000       15.9994           0
   45369 WT2  8134 TIP3 H1   HT     0.417000        1.0080           0
   45370 WT2  8134 TIP3 H2   HT     0.417000        1.0080           0
   45371 WT2  8135 TIP3 OH2  OT    -0.834000       15.9994           0
   45372 WT2  8135 TIP3 H1   HT     0.417000        1.0080           0
   45373 WT2  8135 TIP3 H2   HT     0.417000        1.0080           0
   45374 WT2  8137 TIP3 OH2  OT    -0.834000       15.9994           0
   45375 WT2  8137 TIP3 H1   HT     0.417000        1.0080           0
   45376 WT2  8137 TIP3 H2   HT     0.417000        1.0080           0
   45377 WT2  8138 TIP3 OH2  OT    -0.834000       15.9994           0
   45378 WT2  8138 TIP3 H1   HT     0.417000        1.0080           0
   45379 WT2  8138 TIP3 H2   HT     0.417000        1.0080           0
   45380 WT2  8139 TIP3 OH2  OT    -0.834000       15.9994           0
   45381 WT2  8139 TIP3 H1   HT     0.417000        1.0080           0
   45382 WT2  8139 TIP3 H2   HT     0.417000        1.0080           0
   45383 WT2  8140 TIP3 OH2  OT    -0.834000       15.9994           0
   45384 WT2  8140 TIP3 H1   HT     0.417000        1.0080           0
   45385 WT2  8140 TIP3 H2   HT     0.417000        1.0080           0
   45386 WT2  8141 TIP3 OH2  OT    -0.834000       15.9994           0
   45387 WT2  8141 TIP3 H1   HT     0.417000        1.0080           0
   45388 WT2  8141 TIP3 H2   HT     0.417000        1.0080           0
   45389 WT2  8142 TIP3 OH2  OT    -0.834000       15.9994           0
   45390 WT2  8142 TIP3 H1   HT     0.417000        1.0080           0
   45391 WT2  8142 TIP3 H2   HT     0.417000        1.0080           0
   45392 WT2  8143 TIP3 OH2  OT    -0.834000       15.9994           0
   45393 WT2  8143 TIP3 H1   HT     0.417000        1.0080           0
   45394 WT2  8143 TIP3 H2   HT     0.417000        1.0080           0
   45395 WT2  8144 TIP3 OH2  OT    -0.834000       15.9994           0
   45396 WT2  8144 TIP3 H1   HT     0.417000        1.0080           0
   45397 WT2  8144 TIP3 H2   HT     0.417000        1.0080           0
   45398 WT2  8145 TIP3 OH2  OT    -0.834000       15.9994           0
   45399 WT2  8145 TIP3 H1   HT     0.417000        1.0080           0
   45400 WT2  8145 TIP3 H2   HT     0.417000        1.0080           0
   45401 WT2  8146 TIP3 OH2  OT    -0.834000       15.9994           0
   45402 WT2  8146 TIP3 H1   HT     0.417000        1.0080           0
   45403 WT2  8146 TIP3 H2   HT     0.417000        1.0080           0
   45404 WT2  8147 TIP3 OH2  OT    -0.834000       15.9994           0
   45405 WT2  8147 TIP3 H1   HT     0.417000        1.0080           0
   45406 WT2  8147 TIP3 H2   HT     0.417000        1.0080           0
   45407 WT2  8148 TIP3 OH2  OT    -0.834000       15.9994           0
   45408 WT2  8148 TIP3 H1   HT     0.417000        1.0080           0
   45409 WT2  8148 TIP3 H2   HT     0.417000        1.0080           0
   45410 WT2  8149 TIP3 OH2  OT    -0.834000       15.9994           0
   45411 WT2  8149 TIP3 H1   HT     0.417000        1.0080           0
   45412 WT2  8149 TIP3 H2   HT     0.417000        1.0080           0
   45413 WT2  8151 TIP3 OH2  OT    -0.834000       15.9994           0
   45414 WT2  8151 TIP3 H1   HT     0.417000        1.0080           0
   45415 WT2  8151 TIP3 H2   HT     0.417000        1.0080           0
   45416 WT2  8152 TIP3 OH2  OT    -0.834000       15.9994           0
   45417 WT2  8152 TIP3 H1   HT     0.417000        1.0080           0
   45418 WT2  8152 TIP3 H2   HT     0.417000        1.0080           0
   45419 WT2  8154 TIP3 OH2  OT    -0.834000       15.9994           0
   45420 WT2  8154 TIP3 H1   HT     0.417000        1.0080           0
   45421 WT2  8154 TIP3 H2   HT     0.417000        1.0080           0
   45422 WT2  8155 TIP3 OH2  OT    -0.834000       15.9994           0
   45423 WT2  8155 TIP3 H1   HT     0.417000        1.0080           0
   45424 WT2  8155 TIP3 H2   HT     0.417000        1.0080           0
   45425 WT2  8156 TIP3 OH2  OT    -0.834000       15.9994           0
   45426 WT2  8156 TIP3 H1   HT     0.417000        1.0080           0
   45427 WT2  8156 TIP3 H2   HT     0.417000        1.0080           0
   45428 WT2  8157 TIP3 OH2  OT    -0.834000       15.9994           0
   45429 WT2  8157 TIP3 H1   HT     0.417000        1.0080           0
   45430 WT2  8157 TIP3 H2   HT     0.417000        1.0080           0
   45431 WT2  8158 TIP3 OH2  OT    -0.834000       15.9994           0
   45432 WT2  8158 TIP3 H1   HT     0.417000        1.0080           0
   45433 WT2  8158 TIP3 H2   HT     0.417000        1.0080           0
   45434 WT2  8159 TIP3 OH2  OT    -0.834000       15.9994           0
   45435 WT2  8159 TIP3 H1   HT     0.417000        1.0080           0
   45436 WT2  8159 TIP3 H2   HT     0.417000        1.0080           0
   45437 WT2  8160 TIP3 OH2  OT    -0.834000       15.9994           0
   45438 WT2  8160 TIP3 H1   HT     0.417000        1.0080           0
   45439 WT2  8160 TIP3 H2   HT     0.417000        1.0080           0
   45440 WT2  8162 TIP3 OH2  OT    -0.834000       15.9994           0
   45441 WT2  8162 TIP3 H1   HT     0.417000        1.0080           0
   45442 WT2  8162 TIP3 H2   HT     0.417000        1.0080           0
   45443 WT2  8163 TIP3 OH2  OT    -0.834000       15.9994           0
   45444 WT2  8163 TIP3 H1   HT     0.417000        1.0080           0
   45445 WT2  8163 TIP3 H2   HT     0.417000        1.0080           0
   45446 WT2  8164 TIP3 OH2  OT    -0.834000       15.9994           0
   45447 WT2  8164 TIP3 H1   HT     0.417000        1.0080           0
   45448 WT2  8164 TIP3 H2   HT     0.417000        1.0080           0
   45449 WT2  8165 TIP3 OH2  OT    -0.834000       15.9994           0
   45450 WT2  8165 TIP3 H1   HT     0.417000        1.0080           0
   45451 WT2  8165 TIP3 H2   HT     0.417000        1.0080           0
   45452 WT2  8166 TIP3 OH2  OT    -0.834000       15.9994           0
   45453 WT2  8166 TIP3 H1   HT     0.417000        1.0080           0
   45454 WT2  8166 TIP3 H2   HT     0.417000        1.0080           0
   45455 WT2  8167 TIP3 OH2  OT    -0.834000       15.9994           0
   45456 WT2  8167 TIP3 H1   HT     0.417000        1.0080           0
   45457 WT2  8167 TIP3 H2   HT     0.417000        1.0080           0
   45458 WT2  8168 TIP3 OH2  OT    -0.834000       15.9994           0
   45459 WT2  8168 TIP3 H1   HT     0.417000        1.0080           0
   45460 WT2  8168 TIP3 H2   HT     0.417000        1.0080           0
   45461 WT2  8169 TIP3 OH2  OT    -0.834000       15.9994           0
   45462 WT2  8169 TIP3 H1   HT     0.417000        1.0080           0
   45463 WT2  8169 TIP3 H2   HT     0.417000        1.0080           0
   45464 WT2  8170 TIP3 OH2  OT    -0.834000       15.9994           0
   45465 WT2  8170 TIP3 H1   HT     0.417000        1.0080           0
   45466 WT2  8170 TIP3 H2   HT     0.417000        1.0080           0
   45467 WT2  8171 TIP3 OH2  OT    -0.834000       15.9994           0
   45468 WT2  8171 TIP3 H1   HT     0.417000        1.0080           0
   45469 WT2  8171 TIP3 H2   HT     0.417000        1.0080           0
   45470 WT2  8173 TIP3 OH2  OT    -0.834000       15.9994           0
   45471 WT2  8173 TIP3 H1   HT     0.417000        1.0080           0
   45472 WT2  8173 TIP3 H2   HT     0.417000        1.0080           0
   45473 WT2  8174 TIP3 OH2  OT    -0.834000       15.9994           0
   45474 WT2  8174 TIP3 H1   HT     0.417000        1.0080           0
   45475 WT2  8174 TIP3 H2   HT     0.417000        1.0080           0
   45476 WT2  8175 TIP3 OH2  OT    -0.834000       15.9994           0
   45477 WT2  8175 TIP3 H1   HT     0.417000        1.0080           0
   45478 WT2  8175 TIP3 H2   HT     0.417000        1.0080           0
   45479 WT2  8176 TIP3 OH2  OT    -0.834000       15.9994           0
   45480 WT2  8176 TIP3 H1   HT     0.417000        1.0080           0
   45481 WT2  8176 TIP3 H2   HT     0.417000        1.0080           0
   45482 WT2  8177 TIP3 OH2  OT    -0.834000       15.9994           0
   45483 WT2  8177 TIP3 H1   HT     0.417000        1.0080           0
   45484 WT2  8177 TIP3 H2   HT     0.417000        1.0080           0
   45485 WT2  8178 TIP3 OH2  OT    -0.834000       15.9994           0
   45486 WT2  8178 TIP3 H1   HT     0.417000        1.0080           0
   45487 WT2  8178 TIP3 H2   HT     0.417000        1.0080           0
   45488 WT2  8181 TIP3 OH2  OT    -0.834000       15.9994           0
   45489 WT2  8181 TIP3 H1   HT     0.417000        1.0080           0
   45490 WT2  8181 TIP3 H2   HT     0.417000        1.0080           0
   45491 WT2  8182 TIP3 OH2  OT    -0.834000       15.9994           0
   45492 WT2  8182 TIP3 H1   HT     0.417000        1.0080           0
   45493 WT2  8182 TIP3 H2   HT     0.417000        1.0080           0
   45494 WT2  8183 TIP3 OH2  OT    -0.834000       15.9994           0
   45495 WT2  8183 TIP3 H1   HT     0.417000        1.0080           0
   45496 WT2  8183 TIP3 H2   HT     0.417000        1.0080           0
   45497 WT2  8184 TIP3 OH2  OT    -0.834000       15.9994           0
   45498 WT2  8184 TIP3 H1   HT     0.417000        1.0080           0
   45499 WT2  8184 TIP3 H2   HT     0.417000        1.0080           0
   45500 WT2  8185 TIP3 OH2  OT    -0.834000       15.9994           0
   45501 WT2  8185 TIP3 H1   HT     0.417000        1.0080           0
   45502 WT2  8185 TIP3 H2   HT     0.417000        1.0080           0
   45503 WT2  8186 TIP3 OH2  OT    -0.834000       15.9994           0
   45504 WT2  8186 TIP3 H1   HT     0.417000        1.0080           0
   45505 WT2  8186 TIP3 H2   HT     0.417000        1.0080           0
   45506 WT2  8187 TIP3 OH2  OT    -0.834000       15.9994           0
   45507 WT2  8187 TIP3 H1   HT     0.417000        1.0080           0
   45508 WT2  8187 TIP3 H2   HT     0.417000        1.0080           0
   45509 WT2  8188 TIP3 OH2  OT    -0.834000       15.9994           0
   45510 WT2  8188 TIP3 H1   HT     0.417000        1.0080           0
   45511 WT2  8188 TIP3 H2   HT     0.417000        1.0080           0
   45512 WT2  8189 TIP3 OH2  OT    -0.834000       15.9994           0
   45513 WT2  8189 TIP3 H1   HT     0.417000        1.0080           0
   45514 WT2  8189 TIP3 H2   HT     0.417000        1.0080           0
   45515 WT2  8190 TIP3 OH2  OT    -0.834000       15.9994           0
   45516 WT2  8190 TIP3 H1   HT     0.417000        1.0080           0
   45517 WT2  8190 TIP3 H2   HT     0.417000        1.0080           0
   45518 WT2  8192 TIP3 OH2  OT    -0.834000       15.9994           0
   45519 WT2  8192 TIP3 H1   HT     0.417000        1.0080           0
   45520 WT2  8192 TIP3 H2   HT     0.417000        1.0080           0
   45521 WT2  8193 TIP3 OH2  OT    -0.834000       15.9994           0
   45522 WT2  8193 TIP3 H1   HT     0.417000        1.0080           0
   45523 WT2  8193 TIP3 H2   HT     0.417000        1.0080           0
   45524 WT2  8194 TIP3 OH2  OT    -0.834000       15.9994           0
   45525 WT2  8194 TIP3 H1   HT     0.417000        1.0080           0
   45526 WT2  8194 TIP3 H2   HT     0.417000        1.0080           0
   45527 WT2  8196 TIP3 OH2  OT    -0.834000       15.9994           0
   45528 WT2  8196 TIP3 H1   HT     0.417000        1.0080           0
   45529 WT2  8196 TIP3 H2   HT     0.417000        1.0080           0
   45530 WT2  8197 TIP3 OH2  OT    -0.834000       15.9994           0
   45531 WT2  8197 TIP3 H1   HT     0.417000        1.0080           0
   45532 WT2  8197 TIP3 H2   HT     0.417000        1.0080           0
   45533 WT2  8198 TIP3 OH2  OT    -0.834000       15.9994           0
   45534 WT2  8198 TIP3 H1   HT     0.417000        1.0080           0
   45535 WT2  8198 TIP3 H2   HT     0.417000        1.0080           0
   45536 WT2  8199 TIP3 OH2  OT    -0.834000       15.9994           0
   45537 WT2  8199 TIP3 H1   HT     0.417000        1.0080           0
   45538 WT2  8199 TIP3 H2   HT     0.417000        1.0080           0
   45539 WT2  8200 TIP3 OH2  OT    -0.834000       15.9994           0
   45540 WT2  8200 TIP3 H1   HT     0.417000        1.0080           0
   45541 WT2  8200 TIP3 H2   HT     0.417000        1.0080           0
   45542 WT2  8203 TIP3 OH2  OT    -0.834000       15.9994           0
   45543 WT2  8203 TIP3 H1   HT     0.417000        1.0080           0
   45544 WT2  8203 TIP3 H2   HT     0.417000        1.0080           0
   45545 WT2  8204 TIP3 OH2  OT    -0.834000       15.9994           0
   45546 WT2  8204 TIP3 H1   HT     0.417000        1.0080           0
   45547 WT2  8204 TIP3 H2   HT     0.417000        1.0080           0
   45548 WT2  8206 TIP3 OH2  OT    -0.834000       15.9994           0
   45549 WT2  8206 TIP3 H1   HT     0.417000        1.0080           0
   45550 WT2  8206 TIP3 H2   HT     0.417000        1.0080           0
   45551 WT2  8207 TIP3 OH2  OT    -0.834000       15.9994           0
   45552 WT2  8207 TIP3 H1   HT     0.417000        1.0080           0
   45553 WT2  8207 TIP3 H2   HT     0.417000        1.0080           0
   45554 WT2  8208 TIP3 OH2  OT    -0.834000       15.9994           0
   45555 WT2  8208 TIP3 H1   HT     0.417000        1.0080           0
   45556 WT2  8208 TIP3 H2   HT     0.417000        1.0080           0
   45557 WT2  8209 TIP3 OH2  OT    -0.834000       15.9994           0
   45558 WT2  8209 TIP3 H1   HT     0.417000        1.0080           0
   45559 WT2  8209 TIP3 H2   HT     0.417000        1.0080           0
   45560 WT2  8210 TIP3 OH2  OT    -0.834000       15.9994           0
   45561 WT2  8210 TIP3 H1   HT     0.417000        1.0080           0
   45562 WT2  8210 TIP3 H2   HT     0.417000        1.0080           0
   45563 WT2  8211 TIP3 OH2  OT    -0.834000       15.9994           0
   45564 WT2  8211 TIP3 H1   HT     0.417000        1.0080           0
   45565 WT2  8211 TIP3 H2   HT     0.417000        1.0080           0
   45566 WT2  8212 TIP3 OH2  OT    -0.834000       15.9994           0
   45567 WT2  8212 TIP3 H1   HT     0.417000        1.0080           0
   45568 WT2  8212 TIP3 H2   HT     0.417000        1.0080           0
   45569 WT2  8213 TIP3 OH2  OT    -0.834000       15.9994           0
   45570 WT2  8213 TIP3 H1   HT     0.417000        1.0080           0
   45571 WT2  8213 TIP3 H2   HT     0.417000        1.0080           0
   45572 WT2  8214 TIP3 OH2  OT    -0.834000       15.9994           0
   45573 WT2  8214 TIP3 H1   HT     0.417000        1.0080           0
   45574 WT2  8214 TIP3 H2   HT     0.417000        1.0080           0
   45575 WT2  8215 TIP3 OH2  OT    -0.834000       15.9994           0
   45576 WT2  8215 TIP3 H1   HT     0.417000        1.0080           0
   45577 WT2  8215 TIP3 H2   HT     0.417000        1.0080           0
   45578 WT2  8216 TIP3 OH2  OT    -0.834000       15.9994           0
   45579 WT2  8216 TIP3 H1   HT     0.417000        1.0080           0
   45580 WT2  8216 TIP3 H2   HT     0.417000        1.0080           0
   45581 WT2  8217 TIP3 OH2  OT    -0.834000       15.9994           0
   45582 WT2  8217 TIP3 H1   HT     0.417000        1.0080           0
   45583 WT2  8217 TIP3 H2   HT     0.417000        1.0080           0
   45584 WT2  8219 TIP3 OH2  OT    -0.834000       15.9994           0
   45585 WT2  8219 TIP3 H1   HT     0.417000        1.0080           0
   45586 WT2  8219 TIP3 H2   HT     0.417000        1.0080           0
   45587 WT2  8220 TIP3 OH2  OT    -0.834000       15.9994           0
   45588 WT2  8220 TIP3 H1   HT     0.417000        1.0080           0
   45589 WT2  8220 TIP3 H2   HT     0.417000        1.0080           0
   45590 WT2  8221 TIP3 OH2  OT    -0.834000       15.9994           0
   45591 WT2  8221 TIP3 H1   HT     0.417000        1.0080           0
   45592 WT2  8221 TIP3 H2   HT     0.417000        1.0080           0
   45593 WT2  8222 TIP3 OH2  OT    -0.834000       15.9994           0
   45594 WT2  8222 TIP3 H1   HT     0.417000        1.0080           0
   45595 WT2  8222 TIP3 H2   HT     0.417000        1.0080           0
   45596 WT2  8223 TIP3 OH2  OT    -0.834000       15.9994           0
   45597 WT2  8223 TIP3 H1   HT     0.417000        1.0080           0
   45598 WT2  8223 TIP3 H2   HT     0.417000        1.0080           0
   45599 WT2  8224 TIP3 OH2  OT    -0.834000       15.9994           0
   45600 WT2  8224 TIP3 H1   HT     0.417000        1.0080           0
   45601 WT2  8224 TIP3 H2   HT     0.417000        1.0080           0
   45602 WT2  8225 TIP3 OH2  OT    -0.834000       15.9994           0
   45603 WT2  8225 TIP3 H1   HT     0.417000        1.0080           0
   45604 WT2  8225 TIP3 H2   HT     0.417000        1.0080           0
   45605 WT2  8226 TIP3 OH2  OT    -0.834000       15.9994           0
   45606 WT2  8226 TIP3 H1   HT     0.417000        1.0080           0
   45607 WT2  8226 TIP3 H2   HT     0.417000        1.0080           0
   45608 WT2  8227 TIP3 OH2  OT    -0.834000       15.9994           0
   45609 WT2  8227 TIP3 H1   HT     0.417000        1.0080           0
   45610 WT2  8227 TIP3 H2   HT     0.417000        1.0080           0
   45611 WT2  8228 TIP3 OH2  OT    -0.834000       15.9994           0
   45612 WT2  8228 TIP3 H1   HT     0.417000        1.0080           0
   45613 WT2  8228 TIP3 H2   HT     0.417000        1.0080           0
   45614 WT2  8230 TIP3 OH2  OT    -0.834000       15.9994           0
   45615 WT2  8230 TIP3 H1   HT     0.417000        1.0080           0
   45616 WT2  8230 TIP3 H2   HT     0.417000        1.0080           0
   45617 WT2  8231 TIP3 OH2  OT    -0.834000       15.9994           0
   45618 WT2  8231 TIP3 H1   HT     0.417000        1.0080           0
   45619 WT2  8231 TIP3 H2   HT     0.417000        1.0080           0
   45620 WT2  8233 TIP3 OH2  OT    -0.834000       15.9994           0
   45621 WT2  8233 TIP3 H1   HT     0.417000        1.0080           0
   45622 WT2  8233 TIP3 H2   HT     0.417000        1.0080           0
   45623 WT2  8234 TIP3 OH2  OT    -0.834000       15.9994           0
   45624 WT2  8234 TIP3 H1   HT     0.417000        1.0080           0
   45625 WT2  8234 TIP3 H2   HT     0.417000        1.0080           0
   45626 WT2  8235 TIP3 OH2  OT    -0.834000       15.9994           0
   45627 WT2  8235 TIP3 H1   HT     0.417000        1.0080           0
   45628 WT2  8235 TIP3 H2   HT     0.417000        1.0080           0
   45629 WT2  8236 TIP3 OH2  OT    -0.834000       15.9994           0
   45630 WT2  8236 TIP3 H1   HT     0.417000        1.0080           0
   45631 WT2  8236 TIP3 H2   HT     0.417000        1.0080           0
   45632 WT2  8237 TIP3 OH2  OT    -0.834000       15.9994           0
   45633 WT2  8237 TIP3 H1   HT     0.417000        1.0080           0
   45634 WT2  8237 TIP3 H2   HT     0.417000        1.0080           0
   45635 WT2  8238 TIP3 OH2  OT    -0.834000       15.9994           0
   45636 WT2  8238 TIP3 H1   HT     0.417000        1.0080           0
   45637 WT2  8238 TIP3 H2   HT     0.417000        1.0080           0
   45638 WT2  8239 TIP3 OH2  OT    -0.834000       15.9994           0
   45639 WT2  8239 TIP3 H1   HT     0.417000        1.0080           0
   45640 WT2  8239 TIP3 H2   HT     0.417000        1.0080           0
   45641 WT2  8240 TIP3 OH2  OT    -0.834000       15.9994           0
   45642 WT2  8240 TIP3 H1   HT     0.417000        1.0080           0
   45643 WT2  8240 TIP3 H2   HT     0.417000        1.0080           0
   45644 WT2  8241 TIP3 OH2  OT    -0.834000       15.9994           0
   45645 WT2  8241 TIP3 H1   HT     0.417000        1.0080           0
   45646 WT2  8241 TIP3 H2   HT     0.417000        1.0080           0
   45647 WT2  8242 TIP3 OH2  OT    -0.834000       15.9994           0
   45648 WT2  8242 TIP3 H1   HT     0.417000        1.0080           0
   45649 WT2  8242 TIP3 H2   HT     0.417000        1.0080           0
   45650 WT2  8243 TIP3 OH2  OT    -0.834000       15.9994           0
   45651 WT2  8243 TIP3 H1   HT     0.417000        1.0080           0
   45652 WT2  8243 TIP3 H2   HT     0.417000        1.0080           0
   45653 WT2  8244 TIP3 OH2  OT    -0.834000       15.9994           0
   45654 WT2  8244 TIP3 H1   HT     0.417000        1.0080           0
   45655 WT2  8244 TIP3 H2   HT     0.417000        1.0080           0
   45656 WT2  8245 TIP3 OH2  OT    -0.834000       15.9994           0
   45657 WT2  8245 TIP3 H1   HT     0.417000        1.0080           0
   45658 WT2  8245 TIP3 H2   HT     0.417000        1.0080           0
   45659 WT2  8246 TIP3 OH2  OT    -0.834000       15.9994           0
   45660 WT2  8246 TIP3 H1   HT     0.417000        1.0080           0
   45661 WT2  8246 TIP3 H2   HT     0.417000        1.0080           0
   45662 WT2  8247 TIP3 OH2  OT    -0.834000       15.9994           0
   45663 WT2  8247 TIP3 H1   HT     0.417000        1.0080           0
   45664 WT2  8247 TIP3 H2   HT     0.417000        1.0080           0
   45665 WT2  8248 TIP3 OH2  OT    -0.834000       15.9994           0
   45666 WT2  8248 TIP3 H1   HT     0.417000        1.0080           0
   45667 WT2  8248 TIP3 H2   HT     0.417000        1.0080           0
   45668 WT2  8249 TIP3 OH2  OT    -0.834000       15.9994           0
   45669 WT2  8249 TIP3 H1   HT     0.417000        1.0080           0
   45670 WT2  8249 TIP3 H2   HT     0.417000        1.0080           0
   45671 WT2  8250 TIP3 OH2  OT    -0.834000       15.9994           0
   45672 WT2  8250 TIP3 H1   HT     0.417000        1.0080           0
   45673 WT2  8250 TIP3 H2   HT     0.417000        1.0080           0
   45674 WT2  8251 TIP3 OH2  OT    -0.834000       15.9994           0
   45675 WT2  8251 TIP3 H1   HT     0.417000        1.0080           0
   45676 WT2  8251 TIP3 H2   HT     0.417000        1.0080           0
   45677 WT2  8252 TIP3 OH2  OT    -0.834000       15.9994           0
   45678 WT2  8252 TIP3 H1   HT     0.417000        1.0080           0
   45679 WT2  8252 TIP3 H2   HT     0.417000        1.0080           0
   45680 WT2  8253 TIP3 OH2  OT    -0.834000       15.9994           0
   45681 WT2  8253 TIP3 H1   HT     0.417000        1.0080           0
   45682 WT2  8253 TIP3 H2   HT     0.417000        1.0080           0
   45683 WT2  8255 TIP3 OH2  OT    -0.834000       15.9994           0
   45684 WT2  8255 TIP3 H1   HT     0.417000        1.0080           0
   45685 WT2  8255 TIP3 H2   HT     0.417000        1.0080           0
   45686 WT2  8256 TIP3 OH2  OT    -0.834000       15.9994           0
   45687 WT2  8256 TIP3 H1   HT     0.417000        1.0080           0
   45688 WT2  8256 TIP3 H2   HT     0.417000        1.0080           0
   45689 WT2  8257 TIP3 OH2  OT    -0.834000       15.9994           0
   45690 WT2  8257 TIP3 H1   HT     0.417000        1.0080           0
   45691 WT2  8257 TIP3 H2   HT     0.417000        1.0080           0
   45692 WT2  8258 TIP3 OH2  OT    -0.834000       15.9994           0
   45693 WT2  8258 TIP3 H1   HT     0.417000        1.0080           0
   45694 WT2  8258 TIP3 H2   HT     0.417000        1.0080           0
   45695 WT2  8260 TIP3 OH2  OT    -0.834000       15.9994           0
   45696 WT2  8260 TIP3 H1   HT     0.417000        1.0080           0
   45697 WT2  8260 TIP3 H2   HT     0.417000        1.0080           0
   45698 WT2  8261 TIP3 OH2  OT    -0.834000       15.9994           0
   45699 WT2  8261 TIP3 H1   HT     0.417000        1.0080           0
   45700 WT2  8261 TIP3 H2   HT     0.417000        1.0080           0
   45701 WT2  8262 TIP3 OH2  OT    -0.834000       15.9994           0
   45702 WT2  8262 TIP3 H1   HT     0.417000        1.0080           0
   45703 WT2  8262 TIP3 H2   HT     0.417000        1.0080           0
   45704 WT2  8263 TIP3 OH2  OT    -0.834000       15.9994           0
   45705 WT2  8263 TIP3 H1   HT     0.417000        1.0080           0
   45706 WT2  8263 TIP3 H2   HT     0.417000        1.0080           0
   45707 WT2  8264 TIP3 OH2  OT    -0.834000       15.9994           0
   45708 WT2  8264 TIP3 H1   HT     0.417000        1.0080           0
   45709 WT2  8264 TIP3 H2   HT     0.417000        1.0080           0
   45710 WT2  8266 TIP3 OH2  OT    -0.834000       15.9994           0
   45711 WT2  8266 TIP3 H1   HT     0.417000        1.0080           0
   45712 WT2  8266 TIP3 H2   HT     0.417000        1.0080           0
   45713 WT2  8267 TIP3 OH2  OT    -0.834000       15.9994           0
   45714 WT2  8267 TIP3 H1   HT     0.417000        1.0080           0
   45715 WT2  8267 TIP3 H2   HT     0.417000        1.0080           0
   45716 WT2  8268 TIP3 OH2  OT    -0.834000       15.9994           0
   45717 WT2  8268 TIP3 H1   HT     0.417000        1.0080           0
   45718 WT2  8268 TIP3 H2   HT     0.417000        1.0080           0
   45719 WT2  8269 TIP3 OH2  OT    -0.834000       15.9994           0
   45720 WT2  8269 TIP3 H1   HT     0.417000        1.0080           0
   45721 WT2  8269 TIP3 H2   HT     0.417000        1.0080           0
   45722 WT2  8271 TIP3 OH2  OT    -0.834000       15.9994           0
   45723 WT2  8271 TIP3 H1   HT     0.417000        1.0080           0
   45724 WT2  8271 TIP3 H2   HT     0.417000        1.0080           0
   45725 WT2  8272 TIP3 OH2  OT    -0.834000       15.9994           0
   45726 WT2  8272 TIP3 H1   HT     0.417000        1.0080           0
   45727 WT2  8272 TIP3 H2   HT     0.417000        1.0080           0
   45728 WT2  8274 TIP3 OH2  OT    -0.834000       15.9994           0
   45729 WT2  8274 TIP3 H1   HT     0.417000        1.0080           0
   45730 WT2  8274 TIP3 H2   HT     0.417000        1.0080           0
   45731 WT2  8275 TIP3 OH2  OT    -0.834000       15.9994           0
   45732 WT2  8275 TIP3 H1   HT     0.417000        1.0080           0
   45733 WT2  8275 TIP3 H2   HT     0.417000        1.0080           0
   45734 WT2  8276 TIP3 OH2  OT    -0.834000       15.9994           0
   45735 WT2  8276 TIP3 H1   HT     0.417000        1.0080           0
   45736 WT2  8276 TIP3 H2   HT     0.417000        1.0080           0
   45737 WT2  8277 TIP3 OH2  OT    -0.834000       15.9994           0
   45738 WT2  8277 TIP3 H1   HT     0.417000        1.0080           0
   45739 WT2  8277 TIP3 H2   HT     0.417000        1.0080           0
   45740 WT2  8280 TIP3 OH2  OT    -0.834000       15.9994           0
   45741 WT2  8280 TIP3 H1   HT     0.417000        1.0080           0
   45742 WT2  8280 TIP3 H2   HT     0.417000        1.0080           0
   45743 WT2  8281 TIP3 OH2  OT    -0.834000       15.9994           0
   45744 WT2  8281 TIP3 H1   HT     0.417000        1.0080           0
   45745 WT2  8281 TIP3 H2   HT     0.417000        1.0080           0
   45746 WT2  8282 TIP3 OH2  OT    -0.834000       15.9994           0
   45747 WT2  8282 TIP3 H1   HT     0.417000        1.0080           0
   45748 WT2  8282 TIP3 H2   HT     0.417000        1.0080           0
   45749 WT2  8283 TIP3 OH2  OT    -0.834000       15.9994           0
   45750 WT2  8283 TIP3 H1   HT     0.417000        1.0080           0
   45751 WT2  8283 TIP3 H2   HT     0.417000        1.0080           0
   45752 WT2  8284 TIP3 OH2  OT    -0.834000       15.9994           0
   45753 WT2  8284 TIP3 H1   HT     0.417000        1.0080           0
   45754 WT2  8284 TIP3 H2   HT     0.417000        1.0080           0
   45755 WT2  8285 TIP3 OH2  OT    -0.834000       15.9994           0
   45756 WT2  8285 TIP3 H1   HT     0.417000        1.0080           0
   45757 WT2  8285 TIP3 H2   HT     0.417000        1.0080           0
   45758 WT2  8286 TIP3 OH2  OT    -0.834000       15.9994           0
   45759 WT2  8286 TIP3 H1   HT     0.417000        1.0080           0
   45760 WT2  8286 TIP3 H2   HT     0.417000        1.0080           0
   45761 WT2  8287 TIP3 OH2  OT    -0.834000       15.9994           0
   45762 WT2  8287 TIP3 H1   HT     0.417000        1.0080           0
   45763 WT2  8287 TIP3 H2   HT     0.417000        1.0080           0
   45764 WT2  8288 TIP3 OH2  OT    -0.834000       15.9994           0
   45765 WT2  8288 TIP3 H1   HT     0.417000        1.0080           0
   45766 WT2  8288 TIP3 H2   HT     0.417000        1.0080           0
   45767 WT2  8289 TIP3 OH2  OT    -0.834000       15.9994           0
   45768 WT2  8289 TIP3 H1   HT     0.417000        1.0080           0
   45769 WT2  8289 TIP3 H2   HT     0.417000        1.0080           0
   45770 WT2  8290 TIP3 OH2  OT    -0.834000       15.9994           0
   45771 WT2  8290 TIP3 H1   HT     0.417000        1.0080           0
   45772 WT2  8290 TIP3 H2   HT     0.417000        1.0080           0
   45773 WT2  8291 TIP3 OH2  OT    -0.834000       15.9994           0
   45774 WT2  8291 TIP3 H1   HT     0.417000        1.0080           0
   45775 WT2  8291 TIP3 H2   HT     0.417000        1.0080           0
   45776 WT2  8292 TIP3 OH2  OT    -0.834000       15.9994           0
   45777 WT2  8292 TIP3 H1   HT     0.417000        1.0080           0
   45778 WT2  8292 TIP3 H2   HT     0.417000        1.0080           0
   45779 WT2  8293 TIP3 OH2  OT    -0.834000       15.9994           0
   45780 WT2  8293 TIP3 H1   HT     0.417000        1.0080           0
   45781 WT2  8293 TIP3 H2   HT     0.417000        1.0080           0
   45782 WT2  8294 TIP3 OH2  OT    -0.834000       15.9994           0
   45783 WT2  8294 TIP3 H1   HT     0.417000        1.0080           0
   45784 WT2  8294 TIP3 H2   HT     0.417000        1.0080           0
   45785 WT2  8295 TIP3 OH2  OT    -0.834000       15.9994           0
   45786 WT2  8295 TIP3 H1   HT     0.417000        1.0080           0
   45787 WT2  8295 TIP3 H2   HT     0.417000        1.0080           0
   45788 WT2  8296 TIP3 OH2  OT    -0.834000       15.9994           0
   45789 WT2  8296 TIP3 H1   HT     0.417000        1.0080           0
   45790 WT2  8296 TIP3 H2   HT     0.417000        1.0080           0
   45791 WT2  8297 TIP3 OH2  OT    -0.834000       15.9994           0
   45792 WT2  8297 TIP3 H1   HT     0.417000        1.0080           0
   45793 WT2  8297 TIP3 H2   HT     0.417000        1.0080           0
   45794 WT2  8298 TIP3 OH2  OT    -0.834000       15.9994           0
   45795 WT2  8298 TIP3 H1   HT     0.417000        1.0080           0
   45796 WT2  8298 TIP3 H2   HT     0.417000        1.0080           0
   45797 WT2  8299 TIP3 OH2  OT    -0.834000       15.9994           0
   45798 WT2  8299 TIP3 H1   HT     0.417000        1.0080           0
   45799 WT2  8299 TIP3 H2   HT     0.417000        1.0080           0
   45800 WT2  8300 TIP3 OH2  OT    -0.834000       15.9994           0
   45801 WT2  8300 TIP3 H1   HT     0.417000        1.0080           0
   45802 WT2  8300 TIP3 H2   HT     0.417000        1.0080           0
   45803 WT2  8301 TIP3 OH2  OT    -0.834000       15.9994           0
   45804 WT2  8301 TIP3 H1   HT     0.417000        1.0080           0
   45805 WT2  8301 TIP3 H2   HT     0.417000        1.0080           0
   45806 WT2  8303 TIP3 OH2  OT    -0.834000       15.9994           0
   45807 WT2  8303 TIP3 H1   HT     0.417000        1.0080           0
   45808 WT2  8303 TIP3 H2   HT     0.417000        1.0080           0
   45809 WT2  8304 TIP3 OH2  OT    -0.834000       15.9994           0
   45810 WT2  8304 TIP3 H1   HT     0.417000        1.0080           0
   45811 WT2  8304 TIP3 H2   HT     0.417000        1.0080           0
   45812 WT2  8305 TIP3 OH2  OT    -0.834000       15.9994           0
   45813 WT2  8305 TIP3 H1   HT     0.417000        1.0080           0
   45814 WT2  8305 TIP3 H2   HT     0.417000        1.0080           0
   45815 WT2  8306 TIP3 OH2  OT    -0.834000       15.9994           0
   45816 WT2  8306 TIP3 H1   HT     0.417000        1.0080           0
   45817 WT2  8306 TIP3 H2   HT     0.417000        1.0080           0
   45818 WT2  8307 TIP3 OH2  OT    -0.834000       15.9994           0
   45819 WT2  8307 TIP3 H1   HT     0.417000        1.0080           0
   45820 WT2  8307 TIP3 H2   HT     0.417000        1.0080           0
   45821 WT2  8308 TIP3 OH2  OT    -0.834000       15.9994           0
   45822 WT2  8308 TIP3 H1   HT     0.417000        1.0080           0
   45823 WT2  8308 TIP3 H2   HT     0.417000        1.0080           0
   45824 WT2  8309 TIP3 OH2  OT    -0.834000       15.9994           0
   45825 WT2  8309 TIP3 H1   HT     0.417000        1.0080           0
   45826 WT2  8309 TIP3 H2   HT     0.417000        1.0080           0
   45827 WT2  8310 TIP3 OH2  OT    -0.834000       15.9994           0
   45828 WT2  8310 TIP3 H1   HT     0.417000        1.0080           0
   45829 WT2  8310 TIP3 H2   HT     0.417000        1.0080           0
   45830 WT2  8311 TIP3 OH2  OT    -0.834000       15.9994           0
   45831 WT2  8311 TIP3 H1   HT     0.417000        1.0080           0
   45832 WT2  8311 TIP3 H2   HT     0.417000        1.0080           0
   45833 WT2  8312 TIP3 OH2  OT    -0.834000       15.9994           0
   45834 WT2  8312 TIP3 H1   HT     0.417000        1.0080           0
   45835 WT2  8312 TIP3 H2   HT     0.417000        1.0080           0
   45836 WT2  8313 TIP3 OH2  OT    -0.834000       15.9994           0
   45837 WT2  8313 TIP3 H1   HT     0.417000        1.0080           0
   45838 WT2  8313 TIP3 H2   HT     0.417000        1.0080           0
   45839 WT2  8314 TIP3 OH2  OT    -0.834000       15.9994           0
   45840 WT2  8314 TIP3 H1   HT     0.417000        1.0080           0
   45841 WT2  8314 TIP3 H2   HT     0.417000        1.0080           0
   45842 WT2  8315 TIP3 OH2  OT    -0.834000       15.9994           0
   45843 WT2  8315 TIP3 H1   HT     0.417000        1.0080           0
   45844 WT2  8315 TIP3 H2   HT     0.417000        1.0080           0
   45845 WT2  8317 TIP3 OH2  OT    -0.834000       15.9994           0
   45846 WT2  8317 TIP3 H1   HT     0.417000        1.0080           0
   45847 WT2  8317 TIP3 H2   HT     0.417000        1.0080           0
   45848 WT2  8318 TIP3 OH2  OT    -0.834000       15.9994           0
   45849 WT2  8318 TIP3 H1   HT     0.417000        1.0080           0
   45850 WT2  8318 TIP3 H2   HT     0.417000        1.0080           0
   45851 WT2  8319 TIP3 OH2  OT    -0.834000       15.9994           0
   45852 WT2  8319 TIP3 H1   HT     0.417000        1.0080           0
   45853 WT2  8319 TIP3 H2   HT     0.417000        1.0080           0
   45854 WT2  8320 TIP3 OH2  OT    -0.834000       15.9994           0
   45855 WT2  8320 TIP3 H1   HT     0.417000        1.0080           0
   45856 WT2  8320 TIP3 H2   HT     0.417000        1.0080           0
   45857 WT2  8322 TIP3 OH2  OT    -0.834000       15.9994           0
   45858 WT2  8322 TIP3 H1   HT     0.417000        1.0080           0
   45859 WT2  8322 TIP3 H2   HT     0.417000        1.0080           0
   45860 WT2  8323 TIP3 OH2  OT    -0.834000       15.9994           0
   45861 WT2  8323 TIP3 H1   HT     0.417000        1.0080           0
   45862 WT2  8323 TIP3 H2   HT     0.417000        1.0080           0
   45863 WT2  8324 TIP3 OH2  OT    -0.834000       15.9994           0
   45864 WT2  8324 TIP3 H1   HT     0.417000        1.0080           0
   45865 WT2  8324 TIP3 H2   HT     0.417000        1.0080           0
   45866 WT2  8325 TIP3 OH2  OT    -0.834000       15.9994           0
   45867 WT2  8325 TIP3 H1   HT     0.417000        1.0080           0
   45868 WT2  8325 TIP3 H2   HT     0.417000        1.0080           0
   45869 WT2  8326 TIP3 OH2  OT    -0.834000       15.9994           0
   45870 WT2  8326 TIP3 H1   HT     0.417000        1.0080           0
   45871 WT2  8326 TIP3 H2   HT     0.417000        1.0080           0
   45872 WT2  8327 TIP3 OH2  OT    -0.834000       15.9994           0
   45873 WT2  8327 TIP3 H1   HT     0.417000        1.0080           0
   45874 WT2  8327 TIP3 H2   HT     0.417000        1.0080           0
   45875 WT2  8328 TIP3 OH2  OT    -0.834000       15.9994           0
   45876 WT2  8328 TIP3 H1   HT     0.417000        1.0080           0
   45877 WT2  8328 TIP3 H2   HT     0.417000        1.0080           0
   45878 WT2  8329 TIP3 OH2  OT    -0.834000       15.9994           0
   45879 WT2  8329 TIP3 H1   HT     0.417000        1.0080           0
   45880 WT2  8329 TIP3 H2   HT     0.417000        1.0080           0
   45881 WT2  8330 TIP3 OH2  OT    -0.834000       15.9994           0
   45882 WT2  8330 TIP3 H1   HT     0.417000        1.0080           0
   45883 WT2  8330 TIP3 H2   HT     0.417000        1.0080           0
   45884 WT2  8331 TIP3 OH2  OT    -0.834000       15.9994           0
   45885 WT2  8331 TIP3 H1   HT     0.417000        1.0080           0
   45886 WT2  8331 TIP3 H2   HT     0.417000        1.0080           0
   45887 WT2  8332 TIP3 OH2  OT    -0.834000       15.9994           0
   45888 WT2  8332 TIP3 H1   HT     0.417000        1.0080           0
   45889 WT2  8332 TIP3 H2   HT     0.417000        1.0080           0
   45890 WT2  8334 TIP3 OH2  OT    -0.834000       15.9994           0
   45891 WT2  8334 TIP3 H1   HT     0.417000        1.0080           0
   45892 WT2  8334 TIP3 H2   HT     0.417000        1.0080           0
   45893 WT2  8335 TIP3 OH2  OT    -0.834000       15.9994           0
   45894 WT2  8335 TIP3 H1   HT     0.417000        1.0080           0
   45895 WT2  8335 TIP3 H2   HT     0.417000        1.0080           0
   45896 WT2  8336 TIP3 OH2  OT    -0.834000       15.9994           0
   45897 WT2  8336 TIP3 H1   HT     0.417000        1.0080           0
   45898 WT2  8336 TIP3 H2   HT     0.417000        1.0080           0
   45899 WT2  8337 TIP3 OH2  OT    -0.834000       15.9994           0
   45900 WT2  8337 TIP3 H1   HT     0.417000        1.0080           0
   45901 WT2  8337 TIP3 H2   HT     0.417000        1.0080           0
   45902 WT2  8338 TIP3 OH2  OT    -0.834000       15.9994           0
   45903 WT2  8338 TIP3 H1   HT     0.417000        1.0080           0
   45904 WT2  8338 TIP3 H2   HT     0.417000        1.0080           0
   45905 WT2  8339 TIP3 OH2  OT    -0.834000       15.9994           0
   45906 WT2  8339 TIP3 H1   HT     0.417000        1.0080           0
   45907 WT2  8339 TIP3 H2   HT     0.417000        1.0080           0
   45908 WT2  8340 TIP3 OH2  OT    -0.834000       15.9994           0
   45909 WT2  8340 TIP3 H1   HT     0.417000        1.0080           0
   45910 WT2  8340 TIP3 H2   HT     0.417000        1.0080           0
   45911 WT2  8341 TIP3 OH2  OT    -0.834000       15.9994           0
   45912 WT2  8341 TIP3 H1   HT     0.417000        1.0080           0
   45913 WT2  8341 TIP3 H2   HT     0.417000        1.0080           0
   45914 WT2  8342 TIP3 OH2  OT    -0.834000       15.9994           0
   45915 WT2  8342 TIP3 H1   HT     0.417000        1.0080           0
   45916 WT2  8342 TIP3 H2   HT     0.417000        1.0080           0
   45917 WT2  8343 TIP3 OH2  OT    -0.834000       15.9994           0
   45918 WT2  8343 TIP3 H1   HT     0.417000        1.0080           0
   45919 WT2  8343 TIP3 H2   HT     0.417000        1.0080           0
   45920 WT2  8345 TIP3 OH2  OT    -0.834000       15.9994           0
   45921 WT2  8345 TIP3 H1   HT     0.417000        1.0080           0
   45922 WT2  8345 TIP3 H2   HT     0.417000        1.0080           0
   45923 WT2  8346 TIP3 OH2  OT    -0.834000       15.9994           0
   45924 WT2  8346 TIP3 H1   HT     0.417000        1.0080           0
   45925 WT2  8346 TIP3 H2   HT     0.417000        1.0080           0
   45926 WT2  8347 TIP3 OH2  OT    -0.834000       15.9994           0
   45927 WT2  8347 TIP3 H1   HT     0.417000        1.0080           0
   45928 WT2  8347 TIP3 H2   HT     0.417000        1.0080           0
   45929 WT2  8348 TIP3 OH2  OT    -0.834000       15.9994           0
   45930 WT2  8348 TIP3 H1   HT     0.417000        1.0080           0
   45931 WT2  8348 TIP3 H2   HT     0.417000        1.0080           0
   45932 WT2  8349 TIP3 OH2  OT    -0.834000       15.9994           0
   45933 WT2  8349 TIP3 H1   HT     0.417000        1.0080           0
   45934 WT2  8349 TIP3 H2   HT     0.417000        1.0080           0
   45935 WT2  8350 TIP3 OH2  OT    -0.834000       15.9994           0
   45936 WT2  8350 TIP3 H1   HT     0.417000        1.0080           0
   45937 WT2  8350 TIP3 H2   HT     0.417000        1.0080           0
   45938 WT2  8351 TIP3 OH2  OT    -0.834000       15.9994           0
   45939 WT2  8351 TIP3 H1   HT     0.417000        1.0080           0
   45940 WT2  8351 TIP3 H2   HT     0.417000        1.0080           0
   45941 WT2  8352 TIP3 OH2  OT    -0.834000       15.9994           0
   45942 WT2  8352 TIP3 H1   HT     0.417000        1.0080           0
   45943 WT2  8352 TIP3 H2   HT     0.417000        1.0080           0
   45944 WT2  8353 TIP3 OH2  OT    -0.834000       15.9994           0
   45945 WT2  8353 TIP3 H1   HT     0.417000        1.0080           0
   45946 WT2  8353 TIP3 H2   HT     0.417000        1.0080           0
   45947 WT2  8354 TIP3 OH2  OT    -0.834000       15.9994           0
   45948 WT2  8354 TIP3 H1   HT     0.417000        1.0080           0
   45949 WT2  8354 TIP3 H2   HT     0.417000        1.0080           0
   45950 WT2  8356 TIP3 OH2  OT    -0.834000       15.9994           0
   45951 WT2  8356 TIP3 H1   HT     0.417000        1.0080           0
   45952 WT2  8356 TIP3 H2   HT     0.417000        1.0080           0
   45953 WT2  8357 TIP3 OH2  OT    -0.834000       15.9994           0
   45954 WT2  8357 TIP3 H1   HT     0.417000        1.0080           0
   45955 WT2  8357 TIP3 H2   HT     0.417000        1.0080           0
   45956 WT2  8358 TIP3 OH2  OT    -0.834000       15.9994           0
   45957 WT2  8358 TIP3 H1   HT     0.417000        1.0080           0
   45958 WT2  8358 TIP3 H2   HT     0.417000        1.0080           0
   45959 WT2  8359 TIP3 OH2  OT    -0.834000       15.9994           0
   45960 WT2  8359 TIP3 H1   HT     0.417000        1.0080           0
   45961 WT2  8359 TIP3 H2   HT     0.417000        1.0080           0
   45962 WT2  8360 TIP3 OH2  OT    -0.834000       15.9994           0
   45963 WT2  8360 TIP3 H1   HT     0.417000        1.0080           0
   45964 WT2  8360 TIP3 H2   HT     0.417000        1.0080           0
   45965 WT2  8361 TIP3 OH2  OT    -0.834000       15.9994           0
   45966 WT2  8361 TIP3 H1   HT     0.417000        1.0080           0
   45967 WT2  8361 TIP3 H2   HT     0.417000        1.0080           0
   45968 WT2  8362 TIP3 OH2  OT    -0.834000       15.9994           0
   45969 WT2  8362 TIP3 H1   HT     0.417000        1.0080           0
   45970 WT2  8362 TIP3 H2   HT     0.417000        1.0080           0
   45971 WT2  8363 TIP3 OH2  OT    -0.834000       15.9994           0
   45972 WT2  8363 TIP3 H1   HT     0.417000        1.0080           0
   45973 WT2  8363 TIP3 H2   HT     0.417000        1.0080           0
   45974 WT2  8364 TIP3 OH2  OT    -0.834000       15.9994           0
   45975 WT2  8364 TIP3 H1   HT     0.417000        1.0080           0
   45976 WT2  8364 TIP3 H2   HT     0.417000        1.0080           0
   45977 WT2  8367 TIP3 OH2  OT    -0.834000       15.9994           0
   45978 WT2  8367 TIP3 H1   HT     0.417000        1.0080           0
   45979 WT2  8367 TIP3 H2   HT     0.417000        1.0080           0
   45980 WT2  8368 TIP3 OH2  OT    -0.834000       15.9994           0
   45981 WT2  8368 TIP3 H1   HT     0.417000        1.0080           0
   45982 WT2  8368 TIP3 H2   HT     0.417000        1.0080           0
   45983 WT2  8369 TIP3 OH2  OT    -0.834000       15.9994           0
   45984 WT2  8369 TIP3 H1   HT     0.417000        1.0080           0
   45985 WT2  8369 TIP3 H2   HT     0.417000        1.0080           0
   45986 WT2  8370 TIP3 OH2  OT    -0.834000       15.9994           0
   45987 WT2  8370 TIP3 H1   HT     0.417000        1.0080           0
   45988 WT2  8370 TIP3 H2   HT     0.417000        1.0080           0
   45989 WT2  8371 TIP3 OH2  OT    -0.834000       15.9994           0
   45990 WT2  8371 TIP3 H1   HT     0.417000        1.0080           0
   45991 WT2  8371 TIP3 H2   HT     0.417000        1.0080           0
   45992 WT2  8372 TIP3 OH2  OT    -0.834000       15.9994           0
   45993 WT2  8372 TIP3 H1   HT     0.417000        1.0080           0
   45994 WT2  8372 TIP3 H2   HT     0.417000        1.0080           0
   45995 WT2  8375 TIP3 OH2  OT    -0.834000       15.9994           0
   45996 WT2  8375 TIP3 H1   HT     0.417000        1.0080           0
   45997 WT2  8375 TIP3 H2   HT     0.417000        1.0080           0
   45998 WT2  8377 TIP3 OH2  OT    -0.834000       15.9994           0
   45999 WT2  8377 TIP3 H1   HT     0.417000        1.0080           0
   46000 WT2  8377 TIP3 H2   HT     0.417000        1.0080           0
   46001 WT2  8378 TIP3 OH2  OT    -0.834000       15.9994           0
   46002 WT2  8378 TIP3 H1   HT     0.417000        1.0080           0
   46003 WT2  8378 TIP3 H2   HT     0.417000        1.0080           0
   46004 WT2  8379 TIP3 OH2  OT    -0.834000       15.9994           0
   46005 WT2  8379 TIP3 H1   HT     0.417000        1.0080           0
   46006 WT2  8379 TIP3 H2   HT     0.417000        1.0080           0
   46007 WT2  8380 TIP3 OH2  OT    -0.834000       15.9994           0
   46008 WT2  8380 TIP3 H1   HT     0.417000        1.0080           0
   46009 WT2  8380 TIP3 H2   HT     0.417000        1.0080           0
   46010 WT2  8382 TIP3 OH2  OT    -0.834000       15.9994           0
   46011 WT2  8382 TIP3 H1   HT     0.417000        1.0080           0
   46012 WT2  8382 TIP3 H2   HT     0.417000        1.0080           0
   46013 WT2  8383 TIP3 OH2  OT    -0.834000       15.9994           0
   46014 WT2  8383 TIP3 H1   HT     0.417000        1.0080           0
   46015 WT2  8383 TIP3 H2   HT     0.417000        1.0080           0
   46016 WT2  8384 TIP3 OH2  OT    -0.834000       15.9994           0
   46017 WT2  8384 TIP3 H1   HT     0.417000        1.0080           0
   46018 WT2  8384 TIP3 H2   HT     0.417000        1.0080           0
   46019 WT2  8385 TIP3 OH2  OT    -0.834000       15.9994           0
   46020 WT2  8385 TIP3 H1   HT     0.417000        1.0080           0
   46021 WT2  8385 TIP3 H2   HT     0.417000        1.0080           0
   46022 WT2  8387 TIP3 OH2  OT    -0.834000       15.9994           0
   46023 WT2  8387 TIP3 H1   HT     0.417000        1.0080           0
   46024 WT2  8387 TIP3 H2   HT     0.417000        1.0080           0
   46025 WT2  8388 TIP3 OH2  OT    -0.834000       15.9994           0
   46026 WT2  8388 TIP3 H1   HT     0.417000        1.0080           0
   46027 WT2  8388 TIP3 H2   HT     0.417000        1.0080           0
   46028 WT2  8389 TIP3 OH2  OT    -0.834000       15.9994           0
   46029 WT2  8389 TIP3 H1   HT     0.417000        1.0080           0
   46030 WT2  8389 TIP3 H2   HT     0.417000        1.0080           0
   46031 WT2  8391 TIP3 OH2  OT    -0.834000       15.9994           0
   46032 WT2  8391 TIP3 H1   HT     0.417000        1.0080           0
   46033 WT2  8391 TIP3 H2   HT     0.417000        1.0080           0
   46034 WT2  8392 TIP3 OH2  OT    -0.834000       15.9994           0
   46035 WT2  8392 TIP3 H1   HT     0.417000        1.0080           0
   46036 WT2  8392 TIP3 H2   HT     0.417000        1.0080           0
   46037 WT2  8393 TIP3 OH2  OT    -0.834000       15.9994           0
   46038 WT2  8393 TIP3 H1   HT     0.417000        1.0080           0
   46039 WT2  8393 TIP3 H2   HT     0.417000        1.0080           0
   46040 WT2  8394 TIP3 OH2  OT    -0.834000       15.9994           0
   46041 WT2  8394 TIP3 H1   HT     0.417000        1.0080           0
   46042 WT2  8394 TIP3 H2   HT     0.417000        1.0080           0
   46043 WT2  8396 TIP3 OH2  OT    -0.834000       15.9994           0
   46044 WT2  8396 TIP3 H1   HT     0.417000        1.0080           0
   46045 WT2  8396 TIP3 H2   HT     0.417000        1.0080           0
   46046 WT2  8397 TIP3 OH2  OT    -0.834000       15.9994           0
   46047 WT2  8397 TIP3 H1   HT     0.417000        1.0080           0
   46048 WT2  8397 TIP3 H2   HT     0.417000        1.0080           0
   46049 WT2  8398 TIP3 OH2  OT    -0.834000       15.9994           0
   46050 WT2  8398 TIP3 H1   HT     0.417000        1.0080           0
   46051 WT2  8398 TIP3 H2   HT     0.417000        1.0080           0
   46052 WT2  8399 TIP3 OH2  OT    -0.834000       15.9994           0
   46053 WT2  8399 TIP3 H1   HT     0.417000        1.0080           0
   46054 WT2  8399 TIP3 H2   HT     0.417000        1.0080           0
   46055 WT2  8400 TIP3 OH2  OT    -0.834000       15.9994           0
   46056 WT2  8400 TIP3 H1   HT     0.417000        1.0080           0
   46057 WT2  8400 TIP3 H2   HT     0.417000        1.0080           0
   46058 WT2  8401 TIP3 OH2  OT    -0.834000       15.9994           0
   46059 WT2  8401 TIP3 H1   HT     0.417000        1.0080           0
   46060 WT2  8401 TIP3 H2   HT     0.417000        1.0080           0
   46061 WT2  8402 TIP3 OH2  OT    -0.834000       15.9994           0
   46062 WT2  8402 TIP3 H1   HT     0.417000        1.0080           0
   46063 WT2  8402 TIP3 H2   HT     0.417000        1.0080           0
   46064 WT2  8403 TIP3 OH2  OT    -0.834000       15.9994           0
   46065 WT2  8403 TIP3 H1   HT     0.417000        1.0080           0
   46066 WT2  8403 TIP3 H2   HT     0.417000        1.0080           0
   46067 WT2  8404 TIP3 OH2  OT    -0.834000       15.9994           0
   46068 WT2  8404 TIP3 H1   HT     0.417000        1.0080           0
   46069 WT2  8404 TIP3 H2   HT     0.417000        1.0080           0
   46070 WT2  8405 TIP3 OH2  OT    -0.834000       15.9994           0
   46071 WT2  8405 TIP3 H1   HT     0.417000        1.0080           0
   46072 WT2  8405 TIP3 H2   HT     0.417000        1.0080           0
   46073 WT2  8406 TIP3 OH2  OT    -0.834000       15.9994           0
   46074 WT2  8406 TIP3 H1   HT     0.417000        1.0080           0
   46075 WT2  8406 TIP3 H2   HT     0.417000        1.0080           0
   46076 WT2  8407 TIP3 OH2  OT    -0.834000       15.9994           0
   46077 WT2  8407 TIP3 H1   HT     0.417000        1.0080           0
   46078 WT2  8407 TIP3 H2   HT     0.417000        1.0080           0
   46079 WT2  8408 TIP3 OH2  OT    -0.834000       15.9994           0
   46080 WT2  8408 TIP3 H1   HT     0.417000        1.0080           0
   46081 WT2  8408 TIP3 H2   HT     0.417000        1.0080           0
   46082 WT2  8409 TIP3 OH2  OT    -0.834000       15.9994           0
   46083 WT2  8409 TIP3 H1   HT     0.417000        1.0080           0
   46084 WT2  8409 TIP3 H2   HT     0.417000        1.0080           0
   46085 WT2  8410 TIP3 OH2  OT    -0.834000       15.9994           0
   46086 WT2  8410 TIP3 H1   HT     0.417000        1.0080           0
   46087 WT2  8410 TIP3 H2   HT     0.417000        1.0080           0
   46088 WT2  8412 TIP3 OH2  OT    -0.834000       15.9994           0
   46089 WT2  8412 TIP3 H1   HT     0.417000        1.0080           0
   46090 WT2  8412 TIP3 H2   HT     0.417000        1.0080           0
   46091 WT2  8413 TIP3 OH2  OT    -0.834000       15.9994           0
   46092 WT2  8413 TIP3 H1   HT     0.417000        1.0080           0
   46093 WT2  8413 TIP3 H2   HT     0.417000        1.0080           0
   46094 WT2  8414 TIP3 OH2  OT    -0.834000       15.9994           0
   46095 WT2  8414 TIP3 H1   HT     0.417000        1.0080           0
   46096 WT2  8414 TIP3 H2   HT     0.417000        1.0080           0
   46097 WT2  8415 TIP3 OH2  OT    -0.834000       15.9994           0
   46098 WT2  8415 TIP3 H1   HT     0.417000        1.0080           0
   46099 WT2  8415 TIP3 H2   HT     0.417000        1.0080           0
   46100 WT2  8417 TIP3 OH2  OT    -0.834000       15.9994           0
   46101 WT2  8417 TIP3 H1   HT     0.417000        1.0080           0
   46102 WT2  8417 TIP3 H2   HT     0.417000        1.0080           0
   46103 WT2  8418 TIP3 OH2  OT    -0.834000       15.9994           0
   46104 WT2  8418 TIP3 H1   HT     0.417000        1.0080           0
   46105 WT2  8418 TIP3 H2   HT     0.417000        1.0080           0
   46106 WT2  8419 TIP3 OH2  OT    -0.834000       15.9994           0
   46107 WT2  8419 TIP3 H1   HT     0.417000        1.0080           0
   46108 WT2  8419 TIP3 H2   HT     0.417000        1.0080           0
   46109 WT2  8420 TIP3 OH2  OT    -0.834000       15.9994           0
   46110 WT2  8420 TIP3 H1   HT     0.417000        1.0080           0
   46111 WT2  8420 TIP3 H2   HT     0.417000        1.0080           0
   46112 WT2  8422 TIP3 OH2  OT    -0.834000       15.9994           0
   46113 WT2  8422 TIP3 H1   HT     0.417000        1.0080           0
   46114 WT2  8422 TIP3 H2   HT     0.417000        1.0080           0
   46115 WT2  8423 TIP3 OH2  OT    -0.834000       15.9994           0
   46116 WT2  8423 TIP3 H1   HT     0.417000        1.0080           0
   46117 WT2  8423 TIP3 H2   HT     0.417000        1.0080           0
   46118 WT2  8424 TIP3 OH2  OT    -0.834000       15.9994           0
   46119 WT2  8424 TIP3 H1   HT     0.417000        1.0080           0
   46120 WT2  8424 TIP3 H2   HT     0.417000        1.0080           0
   46121 WT2  8425 TIP3 OH2  OT    -0.834000       15.9994           0
   46122 WT2  8425 TIP3 H1   HT     0.417000        1.0080           0
   46123 WT2  8425 TIP3 H2   HT     0.417000        1.0080           0
   46124 WT2  8426 TIP3 OH2  OT    -0.834000       15.9994           0
   46125 WT2  8426 TIP3 H1   HT     0.417000        1.0080           0
   46126 WT2  8426 TIP3 H2   HT     0.417000        1.0080           0
   46127 WT2  8427 TIP3 OH2  OT    -0.834000       15.9994           0
   46128 WT2  8427 TIP3 H1   HT     0.417000        1.0080           0
   46129 WT2  8427 TIP3 H2   HT     0.417000        1.0080           0
   46130 WT2  8428 TIP3 OH2  OT    -0.834000       15.9994           0
   46131 WT2  8428 TIP3 H1   HT     0.417000        1.0080           0
   46132 WT2  8428 TIP3 H2   HT     0.417000        1.0080           0
   46133 WT2  8429 TIP3 OH2  OT    -0.834000       15.9994           0
   46134 WT2  8429 TIP3 H1   HT     0.417000        1.0080           0
   46135 WT2  8429 TIP3 H2   HT     0.417000        1.0080           0
   46136 WT2  8430 TIP3 OH2  OT    -0.834000       15.9994           0
   46137 WT2  8430 TIP3 H1   HT     0.417000        1.0080           0
   46138 WT2  8430 TIP3 H2   HT     0.417000        1.0080           0
   46139 WT2  8431 TIP3 OH2  OT    -0.834000       15.9994           0
   46140 WT2  8431 TIP3 H1   HT     0.417000        1.0080           0
   46141 WT2  8431 TIP3 H2   HT     0.417000        1.0080           0
   46142 WT2  8432 TIP3 OH2  OT    -0.834000       15.9994           0
   46143 WT2  8432 TIP3 H1   HT     0.417000        1.0080           0
   46144 WT2  8432 TIP3 H2   HT     0.417000        1.0080           0
   46145 WT2  8433 TIP3 OH2  OT    -0.834000       15.9994           0
   46146 WT2  8433 TIP3 H1   HT     0.417000        1.0080           0
   46147 WT2  8433 TIP3 H2   HT     0.417000        1.0080           0
   46148 WT2  8434 TIP3 OH2  OT    -0.834000       15.9994           0
   46149 WT2  8434 TIP3 H1   HT     0.417000        1.0080           0
   46150 WT2  8434 TIP3 H2   HT     0.417000        1.0080           0
   46151 WT2  8436 TIP3 OH2  OT    -0.834000       15.9994           0
   46152 WT2  8436 TIP3 H1   HT     0.417000        1.0080           0
   46153 WT2  8436 TIP3 H2   HT     0.417000        1.0080           0
   46154 WT2  8438 TIP3 OH2  OT    -0.834000       15.9994           0
   46155 WT2  8438 TIP3 H1   HT     0.417000        1.0080           0
   46156 WT2  8438 TIP3 H2   HT     0.417000        1.0080           0
   46157 WT2  8439 TIP3 OH2  OT    -0.834000       15.9994           0
   46158 WT2  8439 TIP3 H1   HT     0.417000        1.0080           0
   46159 WT2  8439 TIP3 H2   HT     0.417000        1.0080           0
   46160 WT2  8441 TIP3 OH2  OT    -0.834000       15.9994           0
   46161 WT2  8441 TIP3 H1   HT     0.417000        1.0080           0
   46162 WT2  8441 TIP3 H2   HT     0.417000        1.0080           0
   46163 WT2  8442 TIP3 OH2  OT    -0.834000       15.9994           0
   46164 WT2  8442 TIP3 H1   HT     0.417000        1.0080           0
   46165 WT2  8442 TIP3 H2   HT     0.417000        1.0080           0
   46166 WT2  8443 TIP3 OH2  OT    -0.834000       15.9994           0
   46167 WT2  8443 TIP3 H1   HT     0.417000        1.0080           0
   46168 WT2  8443 TIP3 H2   HT     0.417000        1.0080           0
   46169 WT2  8444 TIP3 OH2  OT    -0.834000       15.9994           0
   46170 WT2  8444 TIP3 H1   HT     0.417000        1.0080           0
   46171 WT2  8444 TIP3 H2   HT     0.417000        1.0080           0
   46172 WT2  8445 TIP3 OH2  OT    -0.834000       15.9994           0
   46173 WT2  8445 TIP3 H1   HT     0.417000        1.0080           0
   46174 WT2  8445 TIP3 H2   HT     0.417000        1.0080           0
   46175 WT2  8446 TIP3 OH2  OT    -0.834000       15.9994           0
   46176 WT2  8446 TIP3 H1   HT     0.417000        1.0080           0
   46177 WT2  8446 TIP3 H2   HT     0.417000        1.0080           0
   46178 WT2  8448 TIP3 OH2  OT    -0.834000       15.9994           0
   46179 WT2  8448 TIP3 H1   HT     0.417000        1.0080           0
   46180 WT2  8448 TIP3 H2   HT     0.417000        1.0080           0
   46181 WT2  8449 TIP3 OH2  OT    -0.834000       15.9994           0
   46182 WT2  8449 TIP3 H1   HT     0.417000        1.0080           0
   46183 WT2  8449 TIP3 H2   HT     0.417000        1.0080           0
   46184 WT2  8450 TIP3 OH2  OT    -0.834000       15.9994           0
   46185 WT2  8450 TIP3 H1   HT     0.417000        1.0080           0
   46186 WT2  8450 TIP3 H2   HT     0.417000        1.0080           0
   46187 WT2  8451 TIP3 OH2  OT    -0.834000       15.9994           0
   46188 WT2  8451 TIP3 H1   HT     0.417000        1.0080           0
   46189 WT2  8451 TIP3 H2   HT     0.417000        1.0080           0
   46190 WT2  8455 TIP3 OH2  OT    -0.834000       15.9994           0
   46191 WT2  8455 TIP3 H1   HT     0.417000        1.0080           0
   46192 WT2  8455 TIP3 H2   HT     0.417000        1.0080           0
   46193 WT2  8456 TIP3 OH2  OT    -0.834000       15.9994           0
   46194 WT2  8456 TIP3 H1   HT     0.417000        1.0080           0
   46195 WT2  8456 TIP3 H2   HT     0.417000        1.0080           0
   46196 WT2  8457 TIP3 OH2  OT    -0.834000       15.9994           0
   46197 WT2  8457 TIP3 H1   HT     0.417000        1.0080           0
   46198 WT2  8457 TIP3 H2   HT     0.417000        1.0080           0
   46199 WT2  8458 TIP3 OH2  OT    -0.834000       15.9994           0
   46200 WT2  8458 TIP3 H1   HT     0.417000        1.0080           0
   46201 WT2  8458 TIP3 H2   HT     0.417000        1.0080           0
   46202 WT2  8459 TIP3 OH2  OT    -0.834000       15.9994           0
   46203 WT2  8459 TIP3 H1   HT     0.417000        1.0080           0
   46204 WT2  8459 TIP3 H2   HT     0.417000        1.0080           0
   46205 WT2  8460 TIP3 OH2  OT    -0.834000       15.9994           0
   46206 WT2  8460 TIP3 H1   HT     0.417000        1.0080           0
   46207 WT2  8460 TIP3 H2   HT     0.417000        1.0080           0
   46208 WT2  8462 TIP3 OH2  OT    -0.834000       15.9994           0
   46209 WT2  8462 TIP3 H1   HT     0.417000        1.0080           0
   46210 WT2  8462 TIP3 H2   HT     0.417000        1.0080           0
   46211 WT2  8463 TIP3 OH2  OT    -0.834000       15.9994           0
   46212 WT2  8463 TIP3 H1   HT     0.417000        1.0080           0
   46213 WT2  8463 TIP3 H2   HT     0.417000        1.0080           0
   46214 WT2  8464 TIP3 OH2  OT    -0.834000       15.9994           0
   46215 WT2  8464 TIP3 H1   HT     0.417000        1.0080           0
   46216 WT2  8464 TIP3 H2   HT     0.417000        1.0080           0
   46217 WT2  8465 TIP3 OH2  OT    -0.834000       15.9994           0
   46218 WT2  8465 TIP3 H1   HT     0.417000        1.0080           0
   46219 WT2  8465 TIP3 H2   HT     0.417000        1.0080           0
   46220 WT2  8466 TIP3 OH2  OT    -0.834000       15.9994           0
   46221 WT2  8466 TIP3 H1   HT     0.417000        1.0080           0
   46222 WT2  8466 TIP3 H2   HT     0.417000        1.0080           0
   46223 WT2  8467 TIP3 OH2  OT    -0.834000       15.9994           0
   46224 WT2  8467 TIP3 H1   HT     0.417000        1.0080           0
   46225 WT2  8467 TIP3 H2   HT     0.417000        1.0080           0
   46226 WT2  8469 TIP3 OH2  OT    -0.834000       15.9994           0
   46227 WT2  8469 TIP3 H1   HT     0.417000        1.0080           0
   46228 WT2  8469 TIP3 H2   HT     0.417000        1.0080           0
   46229 WT2  8470 TIP3 OH2  OT    -0.834000       15.9994           0
   46230 WT2  8470 TIP3 H1   HT     0.417000        1.0080           0
   46231 WT2  8470 TIP3 H2   HT     0.417000        1.0080           0
   46232 WT2  8471 TIP3 OH2  OT    -0.834000       15.9994           0
   46233 WT2  8471 TIP3 H1   HT     0.417000        1.0080           0
   46234 WT2  8471 TIP3 H2   HT     0.417000        1.0080           0
   46235 WT2  8472 TIP3 OH2  OT    -0.834000       15.9994           0
   46236 WT2  8472 TIP3 H1   HT     0.417000        1.0080           0
   46237 WT2  8472 TIP3 H2   HT     0.417000        1.0080           0
   46238 WT2  8473 TIP3 OH2  OT    -0.834000       15.9994           0
   46239 WT2  8473 TIP3 H1   HT     0.417000        1.0080           0
   46240 WT2  8473 TIP3 H2   HT     0.417000        1.0080           0
   46241 WT2  8474 TIP3 OH2  OT    -0.834000       15.9994           0
   46242 WT2  8474 TIP3 H1   HT     0.417000        1.0080           0
   46243 WT2  8474 TIP3 H2   HT     0.417000        1.0080           0
   46244 WT2  8476 TIP3 OH2  OT    -0.834000       15.9994           0
   46245 WT2  8476 TIP3 H1   HT     0.417000        1.0080           0
   46246 WT2  8476 TIP3 H2   HT     0.417000        1.0080           0
   46247 WT2  8477 TIP3 OH2  OT    -0.834000       15.9994           0
   46248 WT2  8477 TIP3 H1   HT     0.417000        1.0080           0
   46249 WT2  8477 TIP3 H2   HT     0.417000        1.0080           0
   46250 WT2  8478 TIP3 OH2  OT    -0.834000       15.9994           0
   46251 WT2  8478 TIP3 H1   HT     0.417000        1.0080           0
   46252 WT2  8478 TIP3 H2   HT     0.417000        1.0080           0
   46253 WT2  8479 TIP3 OH2  OT    -0.834000       15.9994           0
   46254 WT2  8479 TIP3 H1   HT     0.417000        1.0080           0
   46255 WT2  8479 TIP3 H2   HT     0.417000        1.0080           0
   46256 WT2  8480 TIP3 OH2  OT    -0.834000       15.9994           0
   46257 WT2  8480 TIP3 H1   HT     0.417000        1.0080           0
   46258 WT2  8480 TIP3 H2   HT     0.417000        1.0080           0
   46259 WT2  8481 TIP3 OH2  OT    -0.834000       15.9994           0
   46260 WT2  8481 TIP3 H1   HT     0.417000        1.0080           0
   46261 WT2  8481 TIP3 H2   HT     0.417000        1.0080           0
   46262 WT2  8482 TIP3 OH2  OT    -0.834000       15.9994           0
   46263 WT2  8482 TIP3 H1   HT     0.417000        1.0080           0
   46264 WT2  8482 TIP3 H2   HT     0.417000        1.0080           0
   46265 WT2  8483 TIP3 OH2  OT    -0.834000       15.9994           0
   46266 WT2  8483 TIP3 H1   HT     0.417000        1.0080           0
   46267 WT2  8483 TIP3 H2   HT     0.417000        1.0080           0
   46268 WT2  8484 TIP3 OH2  OT    -0.834000       15.9994           0
   46269 WT2  8484 TIP3 H1   HT     0.417000        1.0080           0
   46270 WT2  8484 TIP3 H2   HT     0.417000        1.0080           0
   46271 WT2  8485 TIP3 OH2  OT    -0.834000       15.9994           0
   46272 WT2  8485 TIP3 H1   HT     0.417000        1.0080           0
   46273 WT2  8485 TIP3 H2   HT     0.417000        1.0080           0
   46274 WT2  8486 TIP3 OH2  OT    -0.834000       15.9994           0
   46275 WT2  8486 TIP3 H1   HT     0.417000        1.0080           0
   46276 WT2  8486 TIP3 H2   HT     0.417000        1.0080           0
   46277 WT2  8488 TIP3 OH2  OT    -0.834000       15.9994           0
   46278 WT2  8488 TIP3 H1   HT     0.417000        1.0080           0
   46279 WT2  8488 TIP3 H2   HT     0.417000        1.0080           0
   46280 WT2  8489 TIP3 OH2  OT    -0.834000       15.9994           0
   46281 WT2  8489 TIP3 H1   HT     0.417000        1.0080           0
   46282 WT2  8489 TIP3 H2   HT     0.417000        1.0080           0
   46283 WT2  8490 TIP3 OH2  OT    -0.834000       15.9994           0
   46284 WT2  8490 TIP3 H1   HT     0.417000        1.0080           0
   46285 WT2  8490 TIP3 H2   HT     0.417000        1.0080           0
   46286 WT2  8491 TIP3 OH2  OT    -0.834000       15.9994           0
   46287 WT2  8491 TIP3 H1   HT     0.417000        1.0080           0
   46288 WT2  8491 TIP3 H2   HT     0.417000        1.0080           0
   46289 WT2  8492 TIP3 OH2  OT    -0.834000       15.9994           0
   46290 WT2  8492 TIP3 H1   HT     0.417000        1.0080           0
   46291 WT2  8492 TIP3 H2   HT     0.417000        1.0080           0
   46292 WT2  8493 TIP3 OH2  OT    -0.834000       15.9994           0
   46293 WT2  8493 TIP3 H1   HT     0.417000        1.0080           0
   46294 WT2  8493 TIP3 H2   HT     0.417000        1.0080           0
   46295 WT2  8494 TIP3 OH2  OT    -0.834000       15.9994           0
   46296 WT2  8494 TIP3 H1   HT     0.417000        1.0080           0
   46297 WT2  8494 TIP3 H2   HT     0.417000        1.0080           0
   46298 WT2  8495 TIP3 OH2  OT    -0.834000       15.9994           0
   46299 WT2  8495 TIP3 H1   HT     0.417000        1.0080           0
   46300 WT2  8495 TIP3 H2   HT     0.417000        1.0080           0
   46301 WT2  8496 TIP3 OH2  OT    -0.834000       15.9994           0
   46302 WT2  8496 TIP3 H1   HT     0.417000        1.0080           0
   46303 WT2  8496 TIP3 H2   HT     0.417000        1.0080           0
   46304 WT2  8497 TIP3 OH2  OT    -0.834000       15.9994           0
   46305 WT2  8497 TIP3 H1   HT     0.417000        1.0080           0
   46306 WT2  8497 TIP3 H2   HT     0.417000        1.0080           0
   46307 WT2  8498 TIP3 OH2  OT    -0.834000       15.9994           0
   46308 WT2  8498 TIP3 H1   HT     0.417000        1.0080           0
   46309 WT2  8498 TIP3 H2   HT     0.417000        1.0080           0
   46310 WT2  8499 TIP3 OH2  OT    -0.834000       15.9994           0
   46311 WT2  8499 TIP3 H1   HT     0.417000        1.0080           0
   46312 WT2  8499 TIP3 H2   HT     0.417000        1.0080           0
   46313 WT2  8501 TIP3 OH2  OT    -0.834000       15.9994           0
   46314 WT2  8501 TIP3 H1   HT     0.417000        1.0080           0
   46315 WT2  8501 TIP3 H2   HT     0.417000        1.0080           0
   46316 WT2  8502 TIP3 OH2  OT    -0.834000       15.9994           0
   46317 WT2  8502 TIP3 H1   HT     0.417000        1.0080           0
   46318 WT2  8502 TIP3 H2   HT     0.417000        1.0080           0
   46319 WT2  8503 TIP3 OH2  OT    -0.834000       15.9994           0
   46320 WT2  8503 TIP3 H1   HT     0.417000        1.0080           0
   46321 WT2  8503 TIP3 H2   HT     0.417000        1.0080           0
   46322 WT2  8504 TIP3 OH2  OT    -0.834000       15.9994           0
   46323 WT2  8504 TIP3 H1   HT     0.417000        1.0080           0
   46324 WT2  8504 TIP3 H2   HT     0.417000        1.0080           0
   46325 WT2  8505 TIP3 OH2  OT    -0.834000       15.9994           0
   46326 WT2  8505 TIP3 H1   HT     0.417000        1.0080           0
   46327 WT2  8505 TIP3 H2   HT     0.417000        1.0080           0
   46328 WT2  8507 TIP3 OH2  OT    -0.834000       15.9994           0
   46329 WT2  8507 TIP3 H1   HT     0.417000        1.0080           0
   46330 WT2  8507 TIP3 H2   HT     0.417000        1.0080           0
   46331 WT2  8508 TIP3 OH2  OT    -0.834000       15.9994           0
   46332 WT2  8508 TIP3 H1   HT     0.417000        1.0080           0
   46333 WT2  8508 TIP3 H2   HT     0.417000        1.0080           0
   46334 WT2  8509 TIP3 OH2  OT    -0.834000       15.9994           0
   46335 WT2  8509 TIP3 H1   HT     0.417000        1.0080           0
   46336 WT2  8509 TIP3 H2   HT     0.417000        1.0080           0
   46337 WT2  8510 TIP3 OH2  OT    -0.834000       15.9994           0
   46338 WT2  8510 TIP3 H1   HT     0.417000        1.0080           0
   46339 WT2  8510 TIP3 H2   HT     0.417000        1.0080           0
   46340 WT2  8511 TIP3 OH2  OT    -0.834000       15.9994           0
   46341 WT2  8511 TIP3 H1   HT     0.417000        1.0080           0
   46342 WT2  8511 TIP3 H2   HT     0.417000        1.0080           0
   46343 WT2  8512 TIP3 OH2  OT    -0.834000       15.9994           0
   46344 WT2  8512 TIP3 H1   HT     0.417000        1.0080           0
   46345 WT2  8512 TIP3 H2   HT     0.417000        1.0080           0
   46346 WT2  8514 TIP3 OH2  OT    -0.834000       15.9994           0
   46347 WT2  8514 TIP3 H1   HT     0.417000        1.0080           0
   46348 WT2  8514 TIP3 H2   HT     0.417000        1.0080           0
   46349 WT2  8515 TIP3 OH2  OT    -0.834000       15.9994           0
   46350 WT2  8515 TIP3 H1   HT     0.417000        1.0080           0
   46351 WT2  8515 TIP3 H2   HT     0.417000        1.0080           0
   46352 WT2  8516 TIP3 OH2  OT    -0.834000       15.9994           0
   46353 WT2  8516 TIP3 H1   HT     0.417000        1.0080           0
   46354 WT2  8516 TIP3 H2   HT     0.417000        1.0080           0
   46355 WT2  8517 TIP3 OH2  OT    -0.834000       15.9994           0
   46356 WT2  8517 TIP3 H1   HT     0.417000        1.0080           0
   46357 WT2  8517 TIP3 H2   HT     0.417000        1.0080           0
   46358 WT2  8518 TIP3 OH2  OT    -0.834000       15.9994           0
   46359 WT2  8518 TIP3 H1   HT     0.417000        1.0080           0
   46360 WT2  8518 TIP3 H2   HT     0.417000        1.0080           0
   46361 WT2  8519 TIP3 OH2  OT    -0.834000       15.9994           0
   46362 WT2  8519 TIP3 H1   HT     0.417000        1.0080           0
   46363 WT2  8519 TIP3 H2   HT     0.417000        1.0080           0
   46364 WT2  8520 TIP3 OH2  OT    -0.834000       15.9994           0
   46365 WT2  8520 TIP3 H1   HT     0.417000        1.0080           0
   46366 WT2  8520 TIP3 H2   HT     0.417000        1.0080           0
   46367 WT2  8521 TIP3 OH2  OT    -0.834000       15.9994           0
   46368 WT2  8521 TIP3 H1   HT     0.417000        1.0080           0
   46369 WT2  8521 TIP3 H2   HT     0.417000        1.0080           0
   46370 WT2  8522 TIP3 OH2  OT    -0.834000       15.9994           0
   46371 WT2  8522 TIP3 H1   HT     0.417000        1.0080           0
   46372 WT2  8522 TIP3 H2   HT     0.417000        1.0080           0
   46373 WT2  8523 TIP3 OH2  OT    -0.834000       15.9994           0
   46374 WT2  8523 TIP3 H1   HT     0.417000        1.0080           0
   46375 WT2  8523 TIP3 H2   HT     0.417000        1.0080           0
   46376 WT2  8524 TIP3 OH2  OT    -0.834000       15.9994           0
   46377 WT2  8524 TIP3 H1   HT     0.417000        1.0080           0
   46378 WT2  8524 TIP3 H2   HT     0.417000        1.0080           0
   46379 WT2  8525 TIP3 OH2  OT    -0.834000       15.9994           0
   46380 WT2  8525 TIP3 H1   HT     0.417000        1.0080           0
   46381 WT2  8525 TIP3 H2   HT     0.417000        1.0080           0
   46382 WT2  8526 TIP3 OH2  OT    -0.834000       15.9994           0
   46383 WT2  8526 TIP3 H1   HT     0.417000        1.0080           0
   46384 WT2  8526 TIP3 H2   HT     0.417000        1.0080           0
   46385 WT2  8528 TIP3 OH2  OT    -0.834000       15.9994           0
   46386 WT2  8528 TIP3 H1   HT     0.417000        1.0080           0
   46387 WT2  8528 TIP3 H2   HT     0.417000        1.0080           0
   46388 WT2  8530 TIP3 OH2  OT    -0.834000       15.9994           0
   46389 WT2  8530 TIP3 H1   HT     0.417000        1.0080           0
   46390 WT2  8530 TIP3 H2   HT     0.417000        1.0080           0
   46391 WT2  8531 TIP3 OH2  OT    -0.834000       15.9994           0
   46392 WT2  8531 TIP3 H1   HT     0.417000        1.0080           0
   46393 WT2  8531 TIP3 H2   HT     0.417000        1.0080           0
   46394 WT2  8532 TIP3 OH2  OT    -0.834000       15.9994           0
   46395 WT2  8532 TIP3 H1   HT     0.417000        1.0080           0
   46396 WT2  8532 TIP3 H2   HT     0.417000        1.0080           0
   46397 WT2  8534 TIP3 OH2  OT    -0.834000       15.9994           0
   46398 WT2  8534 TIP3 H1   HT     0.417000        1.0080           0
   46399 WT2  8534 TIP3 H2   HT     0.417000        1.0080           0
   46400 WT2  8535 TIP3 OH2  OT    -0.834000       15.9994           0
   46401 WT2  8535 TIP3 H1   HT     0.417000        1.0080           0
   46402 WT2  8535 TIP3 H2   HT     0.417000        1.0080           0
   46403 WT2  8536 TIP3 OH2  OT    -0.834000       15.9994           0
   46404 WT2  8536 TIP3 H1   HT     0.417000        1.0080           0
   46405 WT2  8536 TIP3 H2   HT     0.417000        1.0080           0
   46406 WT2  8538 TIP3 OH2  OT    -0.834000       15.9994           0
   46407 WT2  8538 TIP3 H1   HT     0.417000        1.0080           0
   46408 WT2  8538 TIP3 H2   HT     0.417000        1.0080           0
   46409 WT2  8540 TIP3 OH2  OT    -0.834000       15.9994           0
   46410 WT2  8540 TIP3 H1   HT     0.417000        1.0080           0
   46411 WT2  8540 TIP3 H2   HT     0.417000        1.0080           0
   46412 WT2  8541 TIP3 OH2  OT    -0.834000       15.9994           0
   46413 WT2  8541 TIP3 H1   HT     0.417000        1.0080           0
   46414 WT2  8541 TIP3 H2   HT     0.417000        1.0080           0
   46415 WT2  8542 TIP3 OH2  OT    -0.834000       15.9994           0
   46416 WT2  8542 TIP3 H1   HT     0.417000        1.0080           0
   46417 WT2  8542 TIP3 H2   HT     0.417000        1.0080           0
   46418 WT2  8543 TIP3 OH2  OT    -0.834000       15.9994           0
   46419 WT2  8543 TIP3 H1   HT     0.417000        1.0080           0
   46420 WT2  8543 TIP3 H2   HT     0.417000        1.0080           0
   46421 WT2  8544 TIP3 OH2  OT    -0.834000       15.9994           0
   46422 WT2  8544 TIP3 H1   HT     0.417000        1.0080           0
   46423 WT2  8544 TIP3 H2   HT     0.417000        1.0080           0
   46424 WT2  8545 TIP3 OH2  OT    -0.834000       15.9994           0
   46425 WT2  8545 TIP3 H1   HT     0.417000        1.0080           0
   46426 WT2  8545 TIP3 H2   HT     0.417000        1.0080           0
   46427 WT2  8546 TIP3 OH2  OT    -0.834000       15.9994           0
   46428 WT2  8546 TIP3 H1   HT     0.417000        1.0080           0
   46429 WT2  8546 TIP3 H2   HT     0.417000        1.0080           0
   46430 WT2  8547 TIP3 OH2  OT    -0.834000       15.9994           0
   46431 WT2  8547 TIP3 H1   HT     0.417000        1.0080           0
   46432 WT2  8547 TIP3 H2   HT     0.417000        1.0080           0
   46433 WT2  8548 TIP3 OH2  OT    -0.834000       15.9994           0
   46434 WT2  8548 TIP3 H1   HT     0.417000        1.0080           0
   46435 WT2  8548 TIP3 H2   HT     0.417000        1.0080           0
   46436 WT2  8549 TIP3 OH2  OT    -0.834000       15.9994           0
   46437 WT2  8549 TIP3 H1   HT     0.417000        1.0080           0
   46438 WT2  8549 TIP3 H2   HT     0.417000        1.0080           0
   46439 WT2  8550 TIP3 OH2  OT    -0.834000       15.9994           0
   46440 WT2  8550 TIP3 H1   HT     0.417000        1.0080           0
   46441 WT2  8550 TIP3 H2   HT     0.417000        1.0080           0
   46442 WT2  8551 TIP3 OH2  OT    -0.834000       15.9994           0
   46443 WT2  8551 TIP3 H1   HT     0.417000        1.0080           0
   46444 WT2  8551 TIP3 H2   HT     0.417000        1.0080           0
   46445 WT2  8553 TIP3 OH2  OT    -0.834000       15.9994           0
   46446 WT2  8553 TIP3 H1   HT     0.417000        1.0080           0
   46447 WT2  8553 TIP3 H2   HT     0.417000        1.0080           0
   46448 WT2  8555 TIP3 OH2  OT    -0.834000       15.9994           0
   46449 WT2  8555 TIP3 H1   HT     0.417000        1.0080           0
   46450 WT2  8555 TIP3 H2   HT     0.417000        1.0080           0
   46451 WT2  8556 TIP3 OH2  OT    -0.834000       15.9994           0
   46452 WT2  8556 TIP3 H1   HT     0.417000        1.0080           0
   46453 WT2  8556 TIP3 H2   HT     0.417000        1.0080           0
   46454 WT2  8557 TIP3 OH2  OT    -0.834000       15.9994           0
   46455 WT2  8557 TIP3 H1   HT     0.417000        1.0080           0
   46456 WT2  8557 TIP3 H2   HT     0.417000        1.0080           0
   46457 WT2  8558 TIP3 OH2  OT    -0.834000       15.9994           0
   46458 WT2  8558 TIP3 H1   HT     0.417000        1.0080           0
   46459 WT2  8558 TIP3 H2   HT     0.417000        1.0080           0
   46460 WT2  8559 TIP3 OH2  OT    -0.834000       15.9994           0
   46461 WT2  8559 TIP3 H1   HT     0.417000        1.0080           0
   46462 WT2  8559 TIP3 H2   HT     0.417000        1.0080           0
   46463 WT2  8560 TIP3 OH2  OT    -0.834000       15.9994           0
   46464 WT2  8560 TIP3 H1   HT     0.417000        1.0080           0
   46465 WT2  8560 TIP3 H2   HT     0.417000        1.0080           0
   46466 WT2  8562 TIP3 OH2  OT    -0.834000       15.9994           0
   46467 WT2  8562 TIP3 H1   HT     0.417000        1.0080           0
   46468 WT2  8562 TIP3 H2   HT     0.417000        1.0080           0
   46469 WT2  8563 TIP3 OH2  OT    -0.834000       15.9994           0
   46470 WT2  8563 TIP3 H1   HT     0.417000        1.0080           0
   46471 WT2  8563 TIP3 H2   HT     0.417000        1.0080           0
   46472 WT2  8564 TIP3 OH2  OT    -0.834000       15.9994           0
   46473 WT2  8564 TIP3 H1   HT     0.417000        1.0080           0
   46474 WT2  8564 TIP3 H2   HT     0.417000        1.0080           0
   46475 WT2  8565 TIP3 OH2  OT    -0.834000       15.9994           0
   46476 WT2  8565 TIP3 H1   HT     0.417000        1.0080           0
   46477 WT2  8565 TIP3 H2   HT     0.417000        1.0080           0
   46478 WT2  8566 TIP3 OH2  OT    -0.834000       15.9994           0
   46479 WT2  8566 TIP3 H1   HT     0.417000        1.0080           0
   46480 WT2  8566 TIP3 H2   HT     0.417000        1.0080           0
   46481 WT2  8567 TIP3 OH2  OT    -0.834000       15.9994           0
   46482 WT2  8567 TIP3 H1   HT     0.417000        1.0080           0
   46483 WT2  8567 TIP3 H2   HT     0.417000        1.0080           0
   46484 WT2  8569 TIP3 OH2  OT    -0.834000       15.9994           0
   46485 WT2  8569 TIP3 H1   HT     0.417000        1.0080           0
   46486 WT2  8569 TIP3 H2   HT     0.417000        1.0080           0
   46487 WT2  8571 TIP3 OH2  OT    -0.834000       15.9994           0
   46488 WT2  8571 TIP3 H1   HT     0.417000        1.0080           0
   46489 WT2  8571 TIP3 H2   HT     0.417000        1.0080           0
   46490 WT2  8572 TIP3 OH2  OT    -0.834000       15.9994           0
   46491 WT2  8572 TIP3 H1   HT     0.417000        1.0080           0
   46492 WT2  8572 TIP3 H2   HT     0.417000        1.0080           0
   46493 WT2  8573 TIP3 OH2  OT    -0.834000       15.9994           0
   46494 WT2  8573 TIP3 H1   HT     0.417000        1.0080           0
   46495 WT2  8573 TIP3 H2   HT     0.417000        1.0080           0
   46496 WT2  8574 TIP3 OH2  OT    -0.834000       15.9994           0
   46497 WT2  8574 TIP3 H1   HT     0.417000        1.0080           0
   46498 WT2  8574 TIP3 H2   HT     0.417000        1.0080           0
   46499 WT2  8575 TIP3 OH2  OT    -0.834000       15.9994           0
   46500 WT2  8575 TIP3 H1   HT     0.417000        1.0080           0
   46501 WT2  8575 TIP3 H2   HT     0.417000        1.0080           0
   46502 WT2  8577 TIP3 OH2  OT    -0.834000       15.9994           0
   46503 WT2  8577 TIP3 H1   HT     0.417000        1.0080           0
   46504 WT2  8577 TIP3 H2   HT     0.417000        1.0080           0
   46505 WT2  8578 TIP3 OH2  OT    -0.834000       15.9994           0
   46506 WT2  8578 TIP3 H1   HT     0.417000        1.0080           0
   46507 WT2  8578 TIP3 H2   HT     0.417000        1.0080           0
   46508 WT2  8579 TIP3 OH2  OT    -0.834000       15.9994           0
   46509 WT2  8579 TIP3 H1   HT     0.417000        1.0080           0
   46510 WT2  8579 TIP3 H2   HT     0.417000        1.0080           0
   46511 WT2  8580 TIP3 OH2  OT    -0.834000       15.9994           0
   46512 WT2  8580 TIP3 H1   HT     0.417000        1.0080           0
   46513 WT2  8580 TIP3 H2   HT     0.417000        1.0080           0
   46514 WT2  8581 TIP3 OH2  OT    -0.834000       15.9994           0
   46515 WT2  8581 TIP3 H1   HT     0.417000        1.0080           0
   46516 WT2  8581 TIP3 H2   HT     0.417000        1.0080           0
   46517 WT2  8583 TIP3 OH2  OT    -0.834000       15.9994           0
   46518 WT2  8583 TIP3 H1   HT     0.417000        1.0080           0
   46519 WT2  8583 TIP3 H2   HT     0.417000        1.0080           0
   46520 WT2  8584 TIP3 OH2  OT    -0.834000       15.9994           0
   46521 WT2  8584 TIP3 H1   HT     0.417000        1.0080           0
   46522 WT2  8584 TIP3 H2   HT     0.417000        1.0080           0
   46523 WT2  8585 TIP3 OH2  OT    -0.834000       15.9994           0
   46524 WT2  8585 TIP3 H1   HT     0.417000        1.0080           0
   46525 WT2  8585 TIP3 H2   HT     0.417000        1.0080           0
   46526 WT2  8587 TIP3 OH2  OT    -0.834000       15.9994           0
   46527 WT2  8587 TIP3 H1   HT     0.417000        1.0080           0
   46528 WT2  8587 TIP3 H2   HT     0.417000        1.0080           0
   46529 WT2  8588 TIP3 OH2  OT    -0.834000       15.9994           0
   46530 WT2  8588 TIP3 H1   HT     0.417000        1.0080           0
   46531 WT2  8588 TIP3 H2   HT     0.417000        1.0080           0
   46532 WT2  8589 TIP3 OH2  OT    -0.834000       15.9994           0
   46533 WT2  8589 TIP3 H1   HT     0.417000        1.0080           0
   46534 WT2  8589 TIP3 H2   HT     0.417000        1.0080           0
   46535 WT2  8590 TIP3 OH2  OT    -0.834000       15.9994           0
   46536 WT2  8590 TIP3 H1   HT     0.417000        1.0080           0
   46537 WT2  8590 TIP3 H2   HT     0.417000        1.0080           0
   46538 WT2  8591 TIP3 OH2  OT    -0.834000       15.9994           0
   46539 WT2  8591 TIP3 H1   HT     0.417000        1.0080           0
   46540 WT2  8591 TIP3 H2   HT     0.417000        1.0080           0
   46541 WT2  8592 TIP3 OH2  OT    -0.834000       15.9994           0
   46542 WT2  8592 TIP3 H1   HT     0.417000        1.0080           0
   46543 WT2  8592 TIP3 H2   HT     0.417000        1.0080           0
   46544 WT2  8593 TIP3 OH2  OT    -0.834000       15.9994           0
   46545 WT2  8593 TIP3 H1   HT     0.417000        1.0080           0
   46546 WT2  8593 TIP3 H2   HT     0.417000        1.0080           0
   46547 WT2  8594 TIP3 OH2  OT    -0.834000       15.9994           0
   46548 WT2  8594 TIP3 H1   HT     0.417000        1.0080           0
   46549 WT2  8594 TIP3 H2   HT     0.417000        1.0080           0
   46550 WT2  8595 TIP3 OH2  OT    -0.834000       15.9994           0
   46551 WT2  8595 TIP3 H1   HT     0.417000        1.0080           0
   46552 WT2  8595 TIP3 H2   HT     0.417000        1.0080           0
   46553 WT2  8597 TIP3 OH2  OT    -0.834000       15.9994           0
   46554 WT2  8597 TIP3 H1   HT     0.417000        1.0080           0
   46555 WT2  8597 TIP3 H2   HT     0.417000        1.0080           0
   46556 WT2  8598 TIP3 OH2  OT    -0.834000       15.9994           0
   46557 WT2  8598 TIP3 H1   HT     0.417000        1.0080           0
   46558 WT2  8598 TIP3 H2   HT     0.417000        1.0080           0
   46559 WT2  8601 TIP3 OH2  OT    -0.834000       15.9994           0
   46560 WT2  8601 TIP3 H1   HT     0.417000        1.0080           0
   46561 WT2  8601 TIP3 H2   HT     0.417000        1.0080           0
   46562 WT2  8602 TIP3 OH2  OT    -0.834000       15.9994           0
   46563 WT2  8602 TIP3 H1   HT     0.417000        1.0080           0
   46564 WT2  8602 TIP3 H2   HT     0.417000        1.0080           0
   46565 WT2  8605 TIP3 OH2  OT    -0.834000       15.9994           0
   46566 WT2  8605 TIP3 H1   HT     0.417000        1.0080           0
   46567 WT2  8605 TIP3 H2   HT     0.417000        1.0080           0
   46568 WT2  8607 TIP3 OH2  OT    -0.834000       15.9994           0
   46569 WT2  8607 TIP3 H1   HT     0.417000        1.0080           0
   46570 WT2  8607 TIP3 H2   HT     0.417000        1.0080           0
   46571 WT2  8608 TIP3 OH2  OT    -0.834000       15.9994           0
   46572 WT2  8608 TIP3 H1   HT     0.417000        1.0080           0
   46573 WT2  8608 TIP3 H2   HT     0.417000        1.0080           0
   46574 WT2  8609 TIP3 OH2  OT    -0.834000       15.9994           0
   46575 WT2  8609 TIP3 H1   HT     0.417000        1.0080           0
   46576 WT2  8609 TIP3 H2   HT     0.417000        1.0080           0
   46577 WT2  8610 TIP3 OH2  OT    -0.834000       15.9994           0
   46578 WT2  8610 TIP3 H1   HT     0.417000        1.0080           0
   46579 WT2  8610 TIP3 H2   HT     0.417000        1.0080           0
   46580 WT2  8611 TIP3 OH2  OT    -0.834000       15.9994           0
   46581 WT2  8611 TIP3 H1   HT     0.417000        1.0080           0
   46582 WT2  8611 TIP3 H2   HT     0.417000        1.0080           0
   46583 WT2  8612 TIP3 OH2  OT    -0.834000       15.9994           0
   46584 WT2  8612 TIP3 H1   HT     0.417000        1.0080           0
   46585 WT2  8612 TIP3 H2   HT     0.417000        1.0080           0
   46586 WT2  8613 TIP3 OH2  OT    -0.834000       15.9994           0
   46587 WT2  8613 TIP3 H1   HT     0.417000        1.0080           0
   46588 WT2  8613 TIP3 H2   HT     0.417000        1.0080           0
   46589 WT2  8614 TIP3 OH2  OT    -0.834000       15.9994           0
   46590 WT2  8614 TIP3 H1   HT     0.417000        1.0080           0
   46591 WT2  8614 TIP3 H2   HT     0.417000        1.0080           0
   46592 WT2  8615 TIP3 OH2  OT    -0.834000       15.9994           0
   46593 WT2  8615 TIP3 H1   HT     0.417000        1.0080           0
   46594 WT2  8615 TIP3 H2   HT     0.417000        1.0080           0
   46595 WT2  8616 TIP3 OH2  OT    -0.834000       15.9994           0
   46596 WT2  8616 TIP3 H1   HT     0.417000        1.0080           0
   46597 WT2  8616 TIP3 H2   HT     0.417000        1.0080           0
   46598 WT2  8617 TIP3 OH2  OT    -0.834000       15.9994           0
   46599 WT2  8617 TIP3 H1   HT     0.417000        1.0080           0
   46600 WT2  8617 TIP3 H2   HT     0.417000        1.0080           0
   46601 WT2  8618 TIP3 OH2  OT    -0.834000       15.9994           0
   46602 WT2  8618 TIP3 H1   HT     0.417000        1.0080           0
   46603 WT2  8618 TIP3 H2   HT     0.417000        1.0080           0
   46604 WT2  8619 TIP3 OH2  OT    -0.834000       15.9994           0
   46605 WT2  8619 TIP3 H1   HT     0.417000        1.0080           0
   46606 WT2  8619 TIP3 H2   HT     0.417000        1.0080           0
   46607 WT2  8620 TIP3 OH2  OT    -0.834000       15.9994           0
   46608 WT2  8620 TIP3 H1   HT     0.417000        1.0080           0
   46609 WT2  8620 TIP3 H2   HT     0.417000        1.0080           0
   46610 WT2  8621 TIP3 OH2  OT    -0.834000       15.9994           0
   46611 WT2  8621 TIP3 H1   HT     0.417000        1.0080           0
   46612 WT2  8621 TIP3 H2   HT     0.417000        1.0080           0
   46613 WT2  8622 TIP3 OH2  OT    -0.834000       15.9994           0
   46614 WT2  8622 TIP3 H1   HT     0.417000        1.0080           0
   46615 WT2  8622 TIP3 H2   HT     0.417000        1.0080           0
   46616 WT2  8623 TIP3 OH2  OT    -0.834000       15.9994           0
   46617 WT2  8623 TIP3 H1   HT     0.417000        1.0080           0
   46618 WT2  8623 TIP3 H2   HT     0.417000        1.0080           0
   46619 WT2  8624 TIP3 OH2  OT    -0.834000       15.9994           0
   46620 WT2  8624 TIP3 H1   HT     0.417000        1.0080           0
   46621 WT2  8624 TIP3 H2   HT     0.417000        1.0080           0
   46622 WT2  8625 TIP3 OH2  OT    -0.834000       15.9994           0
   46623 WT2  8625 TIP3 H1   HT     0.417000        1.0080           0
   46624 WT2  8625 TIP3 H2   HT     0.417000        1.0080           0
   46625 WT2  8627 TIP3 OH2  OT    -0.834000       15.9994           0
   46626 WT2  8627 TIP3 H1   HT     0.417000        1.0080           0
   46627 WT2  8627 TIP3 H2   HT     0.417000        1.0080           0
   46628 WT2  8628 TIP3 OH2  OT    -0.834000       15.9994           0
   46629 WT2  8628 TIP3 H1   HT     0.417000        1.0080           0
   46630 WT2  8628 TIP3 H2   HT     0.417000        1.0080           0
   46631 WT2  8629 TIP3 OH2  OT    -0.834000       15.9994           0
   46632 WT2  8629 TIP3 H1   HT     0.417000        1.0080           0
   46633 WT2  8629 TIP3 H2   HT     0.417000        1.0080           0
   46634 WT2  8630 TIP3 OH2  OT    -0.834000       15.9994           0
   46635 WT2  8630 TIP3 H1   HT     0.417000        1.0080           0
   46636 WT2  8630 TIP3 H2   HT     0.417000        1.0080           0
   46637 WT2  8631 TIP3 OH2  OT    -0.834000       15.9994           0
   46638 WT2  8631 TIP3 H1   HT     0.417000        1.0080           0
   46639 WT2  8631 TIP3 H2   HT     0.417000        1.0080           0
   46640 WT2  8632 TIP3 OH2  OT    -0.834000       15.9994           0
   46641 WT2  8632 TIP3 H1   HT     0.417000        1.0080           0
   46642 WT2  8632 TIP3 H2   HT     0.417000        1.0080           0
   46643 WT2  8633 TIP3 OH2  OT    -0.834000       15.9994           0
   46644 WT2  8633 TIP3 H1   HT     0.417000        1.0080           0
   46645 WT2  8633 TIP3 H2   HT     0.417000        1.0080           0
   46646 WT2  8635 TIP3 OH2  OT    -0.834000       15.9994           0
   46647 WT2  8635 TIP3 H1   HT     0.417000        1.0080           0
   46648 WT2  8635 TIP3 H2   HT     0.417000        1.0080           0
   46649 WT2  8636 TIP3 OH2  OT    -0.834000       15.9994           0
   46650 WT2  8636 TIP3 H1   HT     0.417000        1.0080           0
   46651 WT2  8636 TIP3 H2   HT     0.417000        1.0080           0
   46652 WT2  8637 TIP3 OH2  OT    -0.834000       15.9994           0
   46653 WT2  8637 TIP3 H1   HT     0.417000        1.0080           0
   46654 WT2  8637 TIP3 H2   HT     0.417000        1.0080           0
   46655 WT2  8638 TIP3 OH2  OT    -0.834000       15.9994           0
   46656 WT2  8638 TIP3 H1   HT     0.417000        1.0080           0
   46657 WT2  8638 TIP3 H2   HT     0.417000        1.0080           0
   46658 WT2  8640 TIP3 OH2  OT    -0.834000       15.9994           0
   46659 WT2  8640 TIP3 H1   HT     0.417000        1.0080           0
   46660 WT2  8640 TIP3 H2   HT     0.417000        1.0080           0
   46661 WT2  8641 TIP3 OH2  OT    -0.834000       15.9994           0
   46662 WT2  8641 TIP3 H1   HT     0.417000        1.0080           0
   46663 WT2  8641 TIP3 H2   HT     0.417000        1.0080           0
   46664 WT2  8642 TIP3 OH2  OT    -0.834000       15.9994           0
   46665 WT2  8642 TIP3 H1   HT     0.417000        1.0080           0
   46666 WT2  8642 TIP3 H2   HT     0.417000        1.0080           0
   46667 WT2  8643 TIP3 OH2  OT    -0.834000       15.9994           0
   46668 WT2  8643 TIP3 H1   HT     0.417000        1.0080           0
   46669 WT2  8643 TIP3 H2   HT     0.417000        1.0080           0
   46670 WT2  8644 TIP3 OH2  OT    -0.834000       15.9994           0
   46671 WT2  8644 TIP3 H1   HT     0.417000        1.0080           0
   46672 WT2  8644 TIP3 H2   HT     0.417000        1.0080           0
   46673 WT2  8645 TIP3 OH2  OT    -0.834000       15.9994           0
   46674 WT2  8645 TIP3 H1   HT     0.417000        1.0080           0
   46675 WT2  8645 TIP3 H2   HT     0.417000        1.0080           0
   46676 WT2  8646 TIP3 OH2  OT    -0.834000       15.9994           0
   46677 WT2  8646 TIP3 H1   HT     0.417000        1.0080           0
   46678 WT2  8646 TIP3 H2   HT     0.417000        1.0080           0
   46679 WT2  8647 TIP3 OH2  OT    -0.834000       15.9994           0
   46680 WT2  8647 TIP3 H1   HT     0.417000        1.0080           0
   46681 WT2  8647 TIP3 H2   HT     0.417000        1.0080           0
   46682 WT2  8649 TIP3 OH2  OT    -0.834000       15.9994           0
   46683 WT2  8649 TIP3 H1   HT     0.417000        1.0080           0
   46684 WT2  8649 TIP3 H2   HT     0.417000        1.0080           0
   46685 WT2  8650 TIP3 OH2  OT    -0.834000       15.9994           0
   46686 WT2  8650 TIP3 H1   HT     0.417000        1.0080           0
   46687 WT2  8650 TIP3 H2   HT     0.417000        1.0080           0
   46688 WT2  8651 TIP3 OH2  OT    -0.834000       15.9994           0
   46689 WT2  8651 TIP3 H1   HT     0.417000        1.0080           0
   46690 WT2  8651 TIP3 H2   HT     0.417000        1.0080           0
   46691 WT2  8652 TIP3 OH2  OT    -0.834000       15.9994           0
   46692 WT2  8652 TIP3 H1   HT     0.417000        1.0080           0
   46693 WT2  8652 TIP3 H2   HT     0.417000        1.0080           0
   46694 WT2  8653 TIP3 OH2  OT    -0.834000       15.9994           0
   46695 WT2  8653 TIP3 H1   HT     0.417000        1.0080           0
   46696 WT2  8653 TIP3 H2   HT     0.417000        1.0080           0
   46697 WT2  8655 TIP3 OH2  OT    -0.834000       15.9994           0
   46698 WT2  8655 TIP3 H1   HT     0.417000        1.0080           0
   46699 WT2  8655 TIP3 H2   HT     0.417000        1.0080           0
   46700 WT2  8656 TIP3 OH2  OT    -0.834000       15.9994           0
   46701 WT2  8656 TIP3 H1   HT     0.417000        1.0080           0
   46702 WT2  8656 TIP3 H2   HT     0.417000        1.0080           0
   46703 WT2  8657 TIP3 OH2  OT    -0.834000       15.9994           0
   46704 WT2  8657 TIP3 H1   HT     0.417000        1.0080           0
   46705 WT2  8657 TIP3 H2   HT     0.417000        1.0080           0
   46706 WT2  8658 TIP3 OH2  OT    -0.834000       15.9994           0
   46707 WT2  8658 TIP3 H1   HT     0.417000        1.0080           0
   46708 WT2  8658 TIP3 H2   HT     0.417000        1.0080           0
   46709 WT2  8659 TIP3 OH2  OT    -0.834000       15.9994           0
   46710 WT2  8659 TIP3 H1   HT     0.417000        1.0080           0
   46711 WT2  8659 TIP3 H2   HT     0.417000        1.0080           0
   46712 WT2  8660 TIP3 OH2  OT    -0.834000       15.9994           0
   46713 WT2  8660 TIP3 H1   HT     0.417000        1.0080           0
   46714 WT2  8660 TIP3 H2   HT     0.417000        1.0080           0
   46715 WT2  8662 TIP3 OH2  OT    -0.834000       15.9994           0
   46716 WT2  8662 TIP3 H1   HT     0.417000        1.0080           0
   46717 WT2  8662 TIP3 H2   HT     0.417000        1.0080           0
   46718 WT2  8663 TIP3 OH2  OT    -0.834000       15.9994           0
   46719 WT2  8663 TIP3 H1   HT     0.417000        1.0080           0
   46720 WT2  8663 TIP3 H2   HT     0.417000        1.0080           0
   46721 WT2  8665 TIP3 OH2  OT    -0.834000       15.9994           0
   46722 WT2  8665 TIP3 H1   HT     0.417000        1.0080           0
   46723 WT2  8665 TIP3 H2   HT     0.417000        1.0080           0
   46724 WT2  8666 TIP3 OH2  OT    -0.834000       15.9994           0
   46725 WT2  8666 TIP3 H1   HT     0.417000        1.0080           0
   46726 WT2  8666 TIP3 H2   HT     0.417000        1.0080           0
   46727 WT2  8667 TIP3 OH2  OT    -0.834000       15.9994           0
   46728 WT2  8667 TIP3 H1   HT     0.417000        1.0080           0
   46729 WT2  8667 TIP3 H2   HT     0.417000        1.0080           0
   46730 WT2  8668 TIP3 OH2  OT    -0.834000       15.9994           0
   46731 WT2  8668 TIP3 H1   HT     0.417000        1.0080           0
   46732 WT2  8668 TIP3 H2   HT     0.417000        1.0080           0
   46733 WT2  8669 TIP3 OH2  OT    -0.834000       15.9994           0
   46734 WT2  8669 TIP3 H1   HT     0.417000        1.0080           0
   46735 WT2  8669 TIP3 H2   HT     0.417000        1.0080           0
   46736 WT2  8670 TIP3 OH2  OT    -0.834000       15.9994           0
   46737 WT2  8670 TIP3 H1   HT     0.417000        1.0080           0
   46738 WT2  8670 TIP3 H2   HT     0.417000        1.0080           0
   46739 WT2  8671 TIP3 OH2  OT    -0.834000       15.9994           0
   46740 WT2  8671 TIP3 H1   HT     0.417000        1.0080           0
   46741 WT2  8671 TIP3 H2   HT     0.417000        1.0080           0
   46742 WT2  8672 TIP3 OH2  OT    -0.834000       15.9994           0
   46743 WT2  8672 TIP3 H1   HT     0.417000        1.0080           0
   46744 WT2  8672 TIP3 H2   HT     0.417000        1.0080           0
   46745 WT2  8673 TIP3 OH2  OT    -0.834000       15.9994           0
   46746 WT2  8673 TIP3 H1   HT     0.417000        1.0080           0
   46747 WT2  8673 TIP3 H2   HT     0.417000        1.0080           0
   46748 WT2  8674 TIP3 OH2  OT    -0.834000       15.9994           0
   46749 WT2  8674 TIP3 H1   HT     0.417000        1.0080           0
   46750 WT2  8674 TIP3 H2   HT     0.417000        1.0080           0
   46751 WT2  8676 TIP3 OH2  OT    -0.834000       15.9994           0
   46752 WT2  8676 TIP3 H1   HT     0.417000        1.0080           0
   46753 WT2  8676 TIP3 H2   HT     0.417000        1.0080           0
   46754 WT2  8677 TIP3 OH2  OT    -0.834000       15.9994           0
   46755 WT2  8677 TIP3 H1   HT     0.417000        1.0080           0
   46756 WT2  8677 TIP3 H2   HT     0.417000        1.0080           0
   46757 WT2  8678 TIP3 OH2  OT    -0.834000       15.9994           0
   46758 WT2  8678 TIP3 H1   HT     0.417000        1.0080           0
   46759 WT2  8678 TIP3 H2   HT     0.417000        1.0080           0
   46760 WT2  8679 TIP3 OH2  OT    -0.834000       15.9994           0
   46761 WT2  8679 TIP3 H1   HT     0.417000        1.0080           0
   46762 WT2  8679 TIP3 H2   HT     0.417000        1.0080           0
   46763 WT2  8680 TIP3 OH2  OT    -0.834000       15.9994           0
   46764 WT2  8680 TIP3 H1   HT     0.417000        1.0080           0
   46765 WT2  8680 TIP3 H2   HT     0.417000        1.0080           0
   46766 WT2  8681 TIP3 OH2  OT    -0.834000       15.9994           0
   46767 WT2  8681 TIP3 H1   HT     0.417000        1.0080           0
   46768 WT2  8681 TIP3 H2   HT     0.417000        1.0080           0
   46769 WT2  8682 TIP3 OH2  OT    -0.834000       15.9994           0
   46770 WT2  8682 TIP3 H1   HT     0.417000        1.0080           0
   46771 WT2  8682 TIP3 H2   HT     0.417000        1.0080           0
   46772 WT2  8683 TIP3 OH2  OT    -0.834000       15.9994           0
   46773 WT2  8683 TIP3 H1   HT     0.417000        1.0080           0
   46774 WT2  8683 TIP3 H2   HT     0.417000        1.0080           0
   46775 WT2  8684 TIP3 OH2  OT    -0.834000       15.9994           0
   46776 WT2  8684 TIP3 H1   HT     0.417000        1.0080           0
   46777 WT2  8684 TIP3 H2   HT     0.417000        1.0080           0
   46778 WT2  8685 TIP3 OH2  OT    -0.834000       15.9994           0
   46779 WT2  8685 TIP3 H1   HT     0.417000        1.0080           0
   46780 WT2  8685 TIP3 H2   HT     0.417000        1.0080           0
   46781 WT2  8686 TIP3 OH2  OT    -0.834000       15.9994           0
   46782 WT2  8686 TIP3 H1   HT     0.417000        1.0080           0
   46783 WT2  8686 TIP3 H2   HT     0.417000        1.0080           0
   46784 WT2  8687 TIP3 OH2  OT    -0.834000       15.9994           0
   46785 WT2  8687 TIP3 H1   HT     0.417000        1.0080           0
   46786 WT2  8687 TIP3 H2   HT     0.417000        1.0080           0
   46787 WT2  8689 TIP3 OH2  OT    -0.834000       15.9994           0
   46788 WT2  8689 TIP3 H1   HT     0.417000        1.0080           0
   46789 WT2  8689 TIP3 H2   HT     0.417000        1.0080           0
   46790 WT2  8690 TIP3 OH2  OT    -0.834000       15.9994           0
   46791 WT2  8690 TIP3 H1   HT     0.417000        1.0080           0
   46792 WT2  8690 TIP3 H2   HT     0.417000        1.0080           0
   46793 WT2  8691 TIP3 OH2  OT    -0.834000       15.9994           0
   46794 WT2  8691 TIP3 H1   HT     0.417000        1.0080           0
   46795 WT2  8691 TIP3 H2   HT     0.417000        1.0080           0
   46796 WT2  8692 TIP3 OH2  OT    -0.834000       15.9994           0
   46797 WT2  8692 TIP3 H1   HT     0.417000        1.0080           0
   46798 WT2  8692 TIP3 H2   HT     0.417000        1.0080           0
   46799 WT2  8693 TIP3 OH2  OT    -0.834000       15.9994           0
   46800 WT2  8693 TIP3 H1   HT     0.417000        1.0080           0
   46801 WT2  8693 TIP3 H2   HT     0.417000        1.0080           0
   46802 WT2  8694 TIP3 OH2  OT    -0.834000       15.9994           0
   46803 WT2  8694 TIP3 H1   HT     0.417000        1.0080           0
   46804 WT2  8694 TIP3 H2   HT     0.417000        1.0080           0
   46805 WT2  8695 TIP3 OH2  OT    -0.834000       15.9994           0
   46806 WT2  8695 TIP3 H1   HT     0.417000        1.0080           0
   46807 WT2  8695 TIP3 H2   HT     0.417000        1.0080           0
   46808 WT2  8696 TIP3 OH2  OT    -0.834000       15.9994           0
   46809 WT2  8696 TIP3 H1   HT     0.417000        1.0080           0
   46810 WT2  8696 TIP3 H2   HT     0.417000        1.0080           0
   46811 WT2  8697 TIP3 OH2  OT    -0.834000       15.9994           0
   46812 WT2  8697 TIP3 H1   HT     0.417000        1.0080           0
   46813 WT2  8697 TIP3 H2   HT     0.417000        1.0080           0
   46814 WT2  8698 TIP3 OH2  OT    -0.834000       15.9994           0
   46815 WT2  8698 TIP3 H1   HT     0.417000        1.0080           0
   46816 WT2  8698 TIP3 H2   HT     0.417000        1.0080           0
   46817 WT2  8699 TIP3 OH2  OT    -0.834000       15.9994           0
   46818 WT2  8699 TIP3 H1   HT     0.417000        1.0080           0
   46819 WT2  8699 TIP3 H2   HT     0.417000        1.0080           0
   46820 WT2  8700 TIP3 OH2  OT    -0.834000       15.9994           0
   46821 WT2  8700 TIP3 H1   HT     0.417000        1.0080           0
   46822 WT2  8700 TIP3 H2   HT     0.417000        1.0080           0
   46823 WT2  8703 TIP3 OH2  OT    -0.834000       15.9994           0
   46824 WT2  8703 TIP3 H1   HT     0.417000        1.0080           0
   46825 WT2  8703 TIP3 H2   HT     0.417000        1.0080           0
   46826 WT2  8704 TIP3 OH2  OT    -0.834000       15.9994           0
   46827 WT2  8704 TIP3 H1   HT     0.417000        1.0080           0
   46828 WT2  8704 TIP3 H2   HT     0.417000        1.0080           0
   46829 WT2  8706 TIP3 OH2  OT    -0.834000       15.9994           0
   46830 WT2  8706 TIP3 H1   HT     0.417000        1.0080           0
   46831 WT2  8706 TIP3 H2   HT     0.417000        1.0080           0
   46832 WT2  8707 TIP3 OH2  OT    -0.834000       15.9994           0
   46833 WT2  8707 TIP3 H1   HT     0.417000        1.0080           0
   46834 WT2  8707 TIP3 H2   HT     0.417000        1.0080           0
   46835 WT2  8708 TIP3 OH2  OT    -0.834000       15.9994           0
   46836 WT2  8708 TIP3 H1   HT     0.417000        1.0080           0
   46837 WT2  8708 TIP3 H2   HT     0.417000        1.0080           0
   46838 WT2  8709 TIP3 OH2  OT    -0.834000       15.9994           0
   46839 WT2  8709 TIP3 H1   HT     0.417000        1.0080           0
   46840 WT2  8709 TIP3 H2   HT     0.417000        1.0080           0
   46841 WT2  8710 TIP3 OH2  OT    -0.834000       15.9994           0
   46842 WT2  8710 TIP3 H1   HT     0.417000        1.0080           0
   46843 WT2  8710 TIP3 H2   HT     0.417000        1.0080           0
   46844 WT2  8711 TIP3 OH2  OT    -0.834000       15.9994           0
   46845 WT2  8711 TIP3 H1   HT     0.417000        1.0080           0
   46846 WT2  8711 TIP3 H2   HT     0.417000        1.0080           0
   46847 WT2  8712 TIP3 OH2  OT    -0.834000       15.9994           0
   46848 WT2  8712 TIP3 H1   HT     0.417000        1.0080           0
   46849 WT2  8712 TIP3 H2   HT     0.417000        1.0080           0
   46850 WT2  8713 TIP3 OH2  OT    -0.834000       15.9994           0
   46851 WT2  8713 TIP3 H1   HT     0.417000        1.0080           0
   46852 WT2  8713 TIP3 H2   HT     0.417000        1.0080           0
   46853 WT2  8714 TIP3 OH2  OT    -0.834000       15.9994           0
   46854 WT2  8714 TIP3 H1   HT     0.417000        1.0080           0
   46855 WT2  8714 TIP3 H2   HT     0.417000        1.0080           0
   46856 WT2  8715 TIP3 OH2  OT    -0.834000       15.9994           0
   46857 WT2  8715 TIP3 H1   HT     0.417000        1.0080           0
   46858 WT2  8715 TIP3 H2   HT     0.417000        1.0080           0
   46859 WT2  8716 TIP3 OH2  OT    -0.834000       15.9994           0
   46860 WT2  8716 TIP3 H1   HT     0.417000        1.0080           0
   46861 WT2  8716 TIP3 H2   HT     0.417000        1.0080           0
   46862 WT2  8717 TIP3 OH2  OT    -0.834000       15.9994           0
   46863 WT2  8717 TIP3 H1   HT     0.417000        1.0080           0
   46864 WT2  8717 TIP3 H2   HT     0.417000        1.0080           0
   46865 WT2  8718 TIP3 OH2  OT    -0.834000       15.9994           0
   46866 WT2  8718 TIP3 H1   HT     0.417000        1.0080           0
   46867 WT2  8718 TIP3 H2   HT     0.417000        1.0080           0
   46868 WT2  8719 TIP3 OH2  OT    -0.834000       15.9994           0
   46869 WT2  8719 TIP3 H1   HT     0.417000        1.0080           0
   46870 WT2  8719 TIP3 H2   HT     0.417000        1.0080           0
   46871 WT2  8720 TIP3 OH2  OT    -0.834000       15.9994           0
   46872 WT2  8720 TIP3 H1   HT     0.417000        1.0080           0
   46873 WT2  8720 TIP3 H2   HT     0.417000        1.0080           0
   46874 WT2  8721 TIP3 OH2  OT    -0.834000       15.9994           0
   46875 WT2  8721 TIP3 H1   HT     0.417000        1.0080           0
   46876 WT2  8721 TIP3 H2   HT     0.417000        1.0080           0
   46877 WT2  8722 TIP3 OH2  OT    -0.834000       15.9994           0
   46878 WT2  8722 TIP3 H1   HT     0.417000        1.0080           0
   46879 WT2  8722 TIP3 H2   HT     0.417000        1.0080           0
   46880 WT2  8723 TIP3 OH2  OT    -0.834000       15.9994           0
   46881 WT2  8723 TIP3 H1   HT     0.417000        1.0080           0
   46882 WT2  8723 TIP3 H2   HT     0.417000        1.0080           0
   46883 WT2  8725 TIP3 OH2  OT    -0.834000       15.9994           0
   46884 WT2  8725 TIP3 H1   HT     0.417000        1.0080           0
   46885 WT2  8725 TIP3 H2   HT     0.417000        1.0080           0
   46886 WT2  8726 TIP3 OH2  OT    -0.834000       15.9994           0
   46887 WT2  8726 TIP3 H1   HT     0.417000        1.0080           0
   46888 WT2  8726 TIP3 H2   HT     0.417000        1.0080           0
   46889 WT2  8727 TIP3 OH2  OT    -0.834000       15.9994           0
   46890 WT2  8727 TIP3 H1   HT     0.417000        1.0080           0
   46891 WT2  8727 TIP3 H2   HT     0.417000        1.0080           0
   46892 WT2  8728 TIP3 OH2  OT    -0.834000       15.9994           0
   46893 WT2  8728 TIP3 H1   HT     0.417000        1.0080           0
   46894 WT2  8728 TIP3 H2   HT     0.417000        1.0080           0
   46895 WT2  8729 TIP3 OH2  OT    -0.834000       15.9994           0
   46896 WT2  8729 TIP3 H1   HT     0.417000        1.0080           0
   46897 WT2  8729 TIP3 H2   HT     0.417000        1.0080           0
   46898 WT2  8730 TIP3 OH2  OT    -0.834000       15.9994           0
   46899 WT2  8730 TIP3 H1   HT     0.417000        1.0080           0
   46900 WT2  8730 TIP3 H2   HT     0.417000        1.0080           0
   46901 WT2  8732 TIP3 OH2  OT    -0.834000       15.9994           0
   46902 WT2  8732 TIP3 H1   HT     0.417000        1.0080           0
   46903 WT2  8732 TIP3 H2   HT     0.417000        1.0080           0
   46904 WT2  8733 TIP3 OH2  OT    -0.834000       15.9994           0
   46905 WT2  8733 TIP3 H1   HT     0.417000        1.0080           0
   46906 WT2  8733 TIP3 H2   HT     0.417000        1.0080           0
   46907 WT2  8734 TIP3 OH2  OT    -0.834000       15.9994           0
   46908 WT2  8734 TIP3 H1   HT     0.417000        1.0080           0
   46909 WT2  8734 TIP3 H2   HT     0.417000        1.0080           0
   46910 WT2  8735 TIP3 OH2  OT    -0.834000       15.9994           0
   46911 WT2  8735 TIP3 H1   HT     0.417000        1.0080           0
   46912 WT2  8735 TIP3 H2   HT     0.417000        1.0080           0
   46913 WT2  8736 TIP3 OH2  OT    -0.834000       15.9994           0
   46914 WT2  8736 TIP3 H1   HT     0.417000        1.0080           0
   46915 WT2  8736 TIP3 H2   HT     0.417000        1.0080           0
   46916 WT2  8737 TIP3 OH2  OT    -0.834000       15.9994           0
   46917 WT2  8737 TIP3 H1   HT     0.417000        1.0080           0
   46918 WT2  8737 TIP3 H2   HT     0.417000        1.0080           0
   46919 WT2  8738 TIP3 OH2  OT    -0.834000       15.9994           0
   46920 WT2  8738 TIP3 H1   HT     0.417000        1.0080           0
   46921 WT2  8738 TIP3 H2   HT     0.417000        1.0080           0
   46922 WT2  8739 TIP3 OH2  OT    -0.834000       15.9994           0
   46923 WT2  8739 TIP3 H1   HT     0.417000        1.0080           0
   46924 WT2  8739 TIP3 H2   HT     0.417000        1.0080           0
   46925 WT2  8740 TIP3 OH2  OT    -0.834000       15.9994           0
   46926 WT2  8740 TIP3 H1   HT     0.417000        1.0080           0
   46927 WT2  8740 TIP3 H2   HT     0.417000        1.0080           0
   46928 WT2  8741 TIP3 OH2  OT    -0.834000       15.9994           0
   46929 WT2  8741 TIP3 H1   HT     0.417000        1.0080           0
   46930 WT2  8741 TIP3 H2   HT     0.417000        1.0080           0
   46931 WT2  8742 TIP3 OH2  OT    -0.834000       15.9994           0
   46932 WT2  8742 TIP3 H1   HT     0.417000        1.0080           0
   46933 WT2  8742 TIP3 H2   HT     0.417000        1.0080           0
   46934 WT2  8743 TIP3 OH2  OT    -0.834000       15.9994           0
   46935 WT2  8743 TIP3 H1   HT     0.417000        1.0080           0
   46936 WT2  8743 TIP3 H2   HT     0.417000        1.0080           0
   46937 WT2  8744 TIP3 OH2  OT    -0.834000       15.9994           0
   46938 WT2  8744 TIP3 H1   HT     0.417000        1.0080           0
   46939 WT2  8744 TIP3 H2   HT     0.417000        1.0080           0
   46940 WT2  8745 TIP3 OH2  OT    -0.834000       15.9994           0
   46941 WT2  8745 TIP3 H1   HT     0.417000        1.0080           0
   46942 WT2  8745 TIP3 H2   HT     0.417000        1.0080           0
   46943 WT2  8746 TIP3 OH2  OT    -0.834000       15.9994           0
   46944 WT2  8746 TIP3 H1   HT     0.417000        1.0080           0
   46945 WT2  8746 TIP3 H2   HT     0.417000        1.0080           0
   46946 WT2  8747 TIP3 OH2  OT    -0.834000       15.9994           0
   46947 WT2  8747 TIP3 H1   HT     0.417000        1.0080           0
   46948 WT2  8747 TIP3 H2   HT     0.417000        1.0080           0
   46949 WT2  8748 TIP3 OH2  OT    -0.834000       15.9994           0
   46950 WT2  8748 TIP3 H1   HT     0.417000        1.0080           0
   46951 WT2  8748 TIP3 H2   HT     0.417000        1.0080           0
   46952 WT2  8749 TIP3 OH2  OT    -0.834000       15.9994           0
   46953 WT2  8749 TIP3 H1   HT     0.417000        1.0080           0
   46954 WT2  8749 TIP3 H2   HT     0.417000        1.0080           0
   46955 WT2  8750 TIP3 OH2  OT    -0.834000       15.9994           0
   46956 WT2  8750 TIP3 H1   HT     0.417000        1.0080           0
   46957 WT2  8750 TIP3 H2   HT     0.417000        1.0080           0
   46958 WT2  8751 TIP3 OH2  OT    -0.834000       15.9994           0
   46959 WT2  8751 TIP3 H1   HT     0.417000        1.0080           0
   46960 WT2  8751 TIP3 H2   HT     0.417000        1.0080           0
   46961 WT2  8753 TIP3 OH2  OT    -0.834000       15.9994           0
   46962 WT2  8753 TIP3 H1   HT     0.417000        1.0080           0
   46963 WT2  8753 TIP3 H2   HT     0.417000        1.0080           0
   46964 WT2  8754 TIP3 OH2  OT    -0.834000       15.9994           0
   46965 WT2  8754 TIP3 H1   HT     0.417000        1.0080           0
   46966 WT2  8754 TIP3 H2   HT     0.417000        1.0080           0
   46967 WT2  8755 TIP3 OH2  OT    -0.834000       15.9994           0
   46968 WT2  8755 TIP3 H1   HT     0.417000        1.0080           0
   46969 WT2  8755 TIP3 H2   HT     0.417000        1.0080           0
   46970 WT2  8756 TIP3 OH2  OT    -0.834000       15.9994           0
   46971 WT2  8756 TIP3 H1   HT     0.417000        1.0080           0
   46972 WT2  8756 TIP3 H2   HT     0.417000        1.0080           0
   46973 WT2  8757 TIP3 OH2  OT    -0.834000       15.9994           0
   46974 WT2  8757 TIP3 H1   HT     0.417000        1.0080           0
   46975 WT2  8757 TIP3 H2   HT     0.417000        1.0080           0
   46976 WT2  8758 TIP3 OH2  OT    -0.834000       15.9994           0
   46977 WT2  8758 TIP3 H1   HT     0.417000        1.0080           0
   46978 WT2  8758 TIP3 H2   HT     0.417000        1.0080           0
   46979 WT2  8759 TIP3 OH2  OT    -0.834000       15.9994           0
   46980 WT2  8759 TIP3 H1   HT     0.417000        1.0080           0
   46981 WT2  8759 TIP3 H2   HT     0.417000        1.0080           0
   46982 WT2  8760 TIP3 OH2  OT    -0.834000       15.9994           0
   46983 WT2  8760 TIP3 H1   HT     0.417000        1.0080           0
   46984 WT2  8760 TIP3 H2   HT     0.417000        1.0080           0
   46985 WT2  8761 TIP3 OH2  OT    -0.834000       15.9994           0
   46986 WT2  8761 TIP3 H1   HT     0.417000        1.0080           0
   46987 WT2  8761 TIP3 H2   HT     0.417000        1.0080           0
   46988 WT2  8763 TIP3 OH2  OT    -0.834000       15.9994           0
   46989 WT2  8763 TIP3 H1   HT     0.417000        1.0080           0
   46990 WT2  8763 TIP3 H2   HT     0.417000        1.0080           0
   46991 WT2  8764 TIP3 OH2  OT    -0.834000       15.9994           0
   46992 WT2  8764 TIP3 H1   HT     0.417000        1.0080           0
   46993 WT2  8764 TIP3 H2   HT     0.417000        1.0080           0
   46994 WT2  8765 TIP3 OH2  OT    -0.834000       15.9994           0
   46995 WT2  8765 TIP3 H1   HT     0.417000        1.0080           0
   46996 WT2  8765 TIP3 H2   HT     0.417000        1.0080           0
   46997 WT2  8766 TIP3 OH2  OT    -0.834000       15.9994           0
   46998 WT2  8766 TIP3 H1   HT     0.417000        1.0080           0
   46999 WT2  8766 TIP3 H2   HT     0.417000        1.0080           0
   47000 WT2  8767 TIP3 OH2  OT    -0.834000       15.9994           0
   47001 WT2  8767 TIP3 H1   HT     0.417000        1.0080           0
   47002 WT2  8767 TIP3 H2   HT     0.417000        1.0080           0
   47003 WT2  8769 TIP3 OH2  OT    -0.834000       15.9994           0
   47004 WT2  8769 TIP3 H1   HT     0.417000        1.0080           0
   47005 WT2  8769 TIP3 H2   HT     0.417000        1.0080           0
   47006 WT2  8770 TIP3 OH2  OT    -0.834000       15.9994           0
   47007 WT2  8770 TIP3 H1   HT     0.417000        1.0080           0
   47008 WT2  8770 TIP3 H2   HT     0.417000        1.0080           0
   47009 WT2  8771 TIP3 OH2  OT    -0.834000       15.9994           0
   47010 WT2  8771 TIP3 H1   HT     0.417000        1.0080           0
   47011 WT2  8771 TIP3 H2   HT     0.417000        1.0080           0
   47012 WT2  8772 TIP3 OH2  OT    -0.834000       15.9994           0
   47013 WT2  8772 TIP3 H1   HT     0.417000        1.0080           0
   47014 WT2  8772 TIP3 H2   HT     0.417000        1.0080           0
   47015 WT2  8773 TIP3 OH2  OT    -0.834000       15.9994           0
   47016 WT2  8773 TIP3 H1   HT     0.417000        1.0080           0
   47017 WT2  8773 TIP3 H2   HT     0.417000        1.0080           0
   47018 WT2  8774 TIP3 OH2  OT    -0.834000       15.9994           0
   47019 WT2  8774 TIP3 H1   HT     0.417000        1.0080           0
   47020 WT2  8774 TIP3 H2   HT     0.417000        1.0080           0
   47021 WT2  8775 TIP3 OH2  OT    -0.834000       15.9994           0
   47022 WT2  8775 TIP3 H1   HT     0.417000        1.0080           0
   47023 WT2  8775 TIP3 H2   HT     0.417000        1.0080           0
   47024 WT2  8776 TIP3 OH2  OT    -0.834000       15.9994           0
   47025 WT2  8776 TIP3 H1   HT     0.417000        1.0080           0
   47026 WT2  8776 TIP3 H2   HT     0.417000        1.0080           0
   47027 WT2  8777 TIP3 OH2  OT    -0.834000       15.9994           0
   47028 WT2  8777 TIP3 H1   HT     0.417000        1.0080           0
   47029 WT2  8777 TIP3 H2   HT     0.417000        1.0080           0
   47030 WT2  8778 TIP3 OH2  OT    -0.834000       15.9994           0
   47031 WT2  8778 TIP3 H1   HT     0.417000        1.0080           0
   47032 WT2  8778 TIP3 H2   HT     0.417000        1.0080           0
   47033 WT2  8780 TIP3 OH2  OT    -0.834000       15.9994           0
   47034 WT2  8780 TIP3 H1   HT     0.417000        1.0080           0
   47035 WT2  8780 TIP3 H2   HT     0.417000        1.0080           0
   47036 WT2  8781 TIP3 OH2  OT    -0.834000       15.9994           0
   47037 WT2  8781 TIP3 H1   HT     0.417000        1.0080           0
   47038 WT2  8781 TIP3 H2   HT     0.417000        1.0080           0
   47039 WT2  8782 TIP3 OH2  OT    -0.834000       15.9994           0
   47040 WT2  8782 TIP3 H1   HT     0.417000        1.0080           0
   47041 WT2  8782 TIP3 H2   HT     0.417000        1.0080           0
   47042 WT2  8783 TIP3 OH2  OT    -0.834000       15.9994           0
   47043 WT2  8783 TIP3 H1   HT     0.417000        1.0080           0
   47044 WT2  8783 TIP3 H2   HT     0.417000        1.0080           0
   47045 WT2  8784 TIP3 OH2  OT    -0.834000       15.9994           0
   47046 WT2  8784 TIP3 H1   HT     0.417000        1.0080           0
   47047 WT2  8784 TIP3 H2   HT     0.417000        1.0080           0
   47048 WT2  8785 TIP3 OH2  OT    -0.834000       15.9994           0
   47049 WT2  8785 TIP3 H1   HT     0.417000        1.0080           0
   47050 WT2  8785 TIP3 H2   HT     0.417000        1.0080           0
   47051 WT2  8786 TIP3 OH2  OT    -0.834000       15.9994           0
   47052 WT2  8786 TIP3 H1   HT     0.417000        1.0080           0
   47053 WT2  8786 TIP3 H2   HT     0.417000        1.0080           0
   47054 WT2  8787 TIP3 OH2  OT    -0.834000       15.9994           0
   47055 WT2  8787 TIP3 H1   HT     0.417000        1.0080           0
   47056 WT2  8787 TIP3 H2   HT     0.417000        1.0080           0
   47057 WT2  8788 TIP3 OH2  OT    -0.834000       15.9994           0
   47058 WT2  8788 TIP3 H1   HT     0.417000        1.0080           0
   47059 WT2  8788 TIP3 H2   HT     0.417000        1.0080           0
   47060 WT2  8789 TIP3 OH2  OT    -0.834000       15.9994           0
   47061 WT2  8789 TIP3 H1   HT     0.417000        1.0080           0
   47062 WT2  8789 TIP3 H2   HT     0.417000        1.0080           0
   47063 WT2  8790 TIP3 OH2  OT    -0.834000       15.9994           0
   47064 WT2  8790 TIP3 H1   HT     0.417000        1.0080           0
   47065 WT2  8790 TIP3 H2   HT     0.417000        1.0080           0
   47066 WT2  8791 TIP3 OH2  OT    -0.834000       15.9994           0
   47067 WT2  8791 TIP3 H1   HT     0.417000        1.0080           0
   47068 WT2  8791 TIP3 H2   HT     0.417000        1.0080           0
   47069 WT2  8793 TIP3 OH2  OT    -0.834000       15.9994           0
   47070 WT2  8793 TIP3 H1   HT     0.417000        1.0080           0
   47071 WT2  8793 TIP3 H2   HT     0.417000        1.0080           0
   47072 WT2  8794 TIP3 OH2  OT    -0.834000       15.9994           0
   47073 WT2  8794 TIP3 H1   HT     0.417000        1.0080           0
   47074 WT2  8794 TIP3 H2   HT     0.417000        1.0080           0
   47075 WT2  8795 TIP3 OH2  OT    -0.834000       15.9994           0
   47076 WT2  8795 TIP3 H1   HT     0.417000        1.0080           0
   47077 WT2  8795 TIP3 H2   HT     0.417000        1.0080           0
   47078 WT2  8796 TIP3 OH2  OT    -0.834000       15.9994           0
   47079 WT2  8796 TIP3 H1   HT     0.417000        1.0080           0
   47080 WT2  8796 TIP3 H2   HT     0.417000        1.0080           0
   47081 WT2  8798 TIP3 OH2  OT    -0.834000       15.9994           0
   47082 WT2  8798 TIP3 H1   HT     0.417000        1.0080           0
   47083 WT2  8798 TIP3 H2   HT     0.417000        1.0080           0
   47084 WT2  8799 TIP3 OH2  OT    -0.834000       15.9994           0
   47085 WT2  8799 TIP3 H1   HT     0.417000        1.0080           0
   47086 WT2  8799 TIP3 H2   HT     0.417000        1.0080           0
   47087 WT2  8800 TIP3 OH2  OT    -0.834000       15.9994           0
   47088 WT2  8800 TIP3 H1   HT     0.417000        1.0080           0
   47089 WT2  8800 TIP3 H2   HT     0.417000        1.0080           0
   47090 WT2  8801 TIP3 OH2  OT    -0.834000       15.9994           0
   47091 WT2  8801 TIP3 H1   HT     0.417000        1.0080           0
   47092 WT2  8801 TIP3 H2   HT     0.417000        1.0080           0
   47093 WT2  8802 TIP3 OH2  OT    -0.834000       15.9994           0
   47094 WT2  8802 TIP3 H1   HT     0.417000        1.0080           0
   47095 WT2  8802 TIP3 H2   HT     0.417000        1.0080           0
   47096 WT2  8803 TIP3 OH2  OT    -0.834000       15.9994           0
   47097 WT2  8803 TIP3 H1   HT     0.417000        1.0080           0
   47098 WT2  8803 TIP3 H2   HT     0.417000        1.0080           0
   47099 WT2  8804 TIP3 OH2  OT    -0.834000       15.9994           0
   47100 WT2  8804 TIP3 H1   HT     0.417000        1.0080           0
   47101 WT2  8804 TIP3 H2   HT     0.417000        1.0080           0
   47102 WT2  8805 TIP3 OH2  OT    -0.834000       15.9994           0
   47103 WT2  8805 TIP3 H1   HT     0.417000        1.0080           0
   47104 WT2  8805 TIP3 H2   HT     0.417000        1.0080           0
   47105 WT2  8808 TIP3 OH2  OT    -0.834000       15.9994           0
   47106 WT2  8808 TIP3 H1   HT     0.417000        1.0080           0
   47107 WT2  8808 TIP3 H2   HT     0.417000        1.0080           0
   47108 WT2  8809 TIP3 OH2  OT    -0.834000       15.9994           0
   47109 WT2  8809 TIP3 H1   HT     0.417000        1.0080           0
   47110 WT2  8809 TIP3 H2   HT     0.417000        1.0080           0
   47111 WT2  8810 TIP3 OH2  OT    -0.834000       15.9994           0
   47112 WT2  8810 TIP3 H1   HT     0.417000        1.0080           0
   47113 WT2  8810 TIP3 H2   HT     0.417000        1.0080           0
   47114 WT2  8811 TIP3 OH2  OT    -0.834000       15.9994           0
   47115 WT2  8811 TIP3 H1   HT     0.417000        1.0080           0
   47116 WT2  8811 TIP3 H2   HT     0.417000        1.0080           0
   47117 WT2  8813 TIP3 OH2  OT    -0.834000       15.9994           0
   47118 WT2  8813 TIP3 H1   HT     0.417000        1.0080           0
   47119 WT2  8813 TIP3 H2   HT     0.417000        1.0080           0
   47120 WT2  8814 TIP3 OH2  OT    -0.834000       15.9994           0
   47121 WT2  8814 TIP3 H1   HT     0.417000        1.0080           0
   47122 WT2  8814 TIP3 H2   HT     0.417000        1.0080           0
   47123 WT2  8815 TIP3 OH2  OT    -0.834000       15.9994           0
   47124 WT2  8815 TIP3 H1   HT     0.417000        1.0080           0
   47125 WT2  8815 TIP3 H2   HT     0.417000        1.0080           0
   47126 WT2  8816 TIP3 OH2  OT    -0.834000       15.9994           0
   47127 WT2  8816 TIP3 H1   HT     0.417000        1.0080           0
   47128 WT2  8816 TIP3 H2   HT     0.417000        1.0080           0
   47129 WT2  8817 TIP3 OH2  OT    -0.834000       15.9994           0
   47130 WT2  8817 TIP3 H1   HT     0.417000        1.0080           0
   47131 WT2  8817 TIP3 H2   HT     0.417000        1.0080           0
   47132 WT2  8819 TIP3 OH2  OT    -0.834000       15.9994           0
   47133 WT2  8819 TIP3 H1   HT     0.417000        1.0080           0
   47134 WT2  8819 TIP3 H2   HT     0.417000        1.0080           0
   47135 WT2  8820 TIP3 OH2  OT    -0.834000       15.9994           0
   47136 WT2  8820 TIP3 H1   HT     0.417000        1.0080           0
   47137 WT2  8820 TIP3 H2   HT     0.417000        1.0080           0
   47138 WT2  8821 TIP3 OH2  OT    -0.834000       15.9994           0
   47139 WT2  8821 TIP3 H1   HT     0.417000        1.0080           0
   47140 WT2  8821 TIP3 H2   HT     0.417000        1.0080           0
   47141 WT2  8822 TIP3 OH2  OT    -0.834000       15.9994           0
   47142 WT2  8822 TIP3 H1   HT     0.417000        1.0080           0
   47143 WT2  8822 TIP3 H2   HT     0.417000        1.0080           0
   47144 WT2  8823 TIP3 OH2  OT    -0.834000       15.9994           0
   47145 WT2  8823 TIP3 H1   HT     0.417000        1.0080           0
   47146 WT2  8823 TIP3 H2   HT     0.417000        1.0080           0
   47147 WT2  8824 TIP3 OH2  OT    -0.834000       15.9994           0
   47148 WT2  8824 TIP3 H1   HT     0.417000        1.0080           0
   47149 WT2  8824 TIP3 H2   HT     0.417000        1.0080           0
   47150 WT2  8825 TIP3 OH2  OT    -0.834000       15.9994           0
   47151 WT2  8825 TIP3 H1   HT     0.417000        1.0080           0
   47152 WT2  8825 TIP3 H2   HT     0.417000        1.0080           0
   47153 WT2  8826 TIP3 OH2  OT    -0.834000       15.9994           0
   47154 WT2  8826 TIP3 H1   HT     0.417000        1.0080           0
   47155 WT2  8826 TIP3 H2   HT     0.417000        1.0080           0
   47156 WT2  8827 TIP3 OH2  OT    -0.834000       15.9994           0
   47157 WT2  8827 TIP3 H1   HT     0.417000        1.0080           0
   47158 WT2  8827 TIP3 H2   HT     0.417000        1.0080           0
   47159 WT2  8828 TIP3 OH2  OT    -0.834000       15.9994           0
   47160 WT2  8828 TIP3 H1   HT     0.417000        1.0080           0
   47161 WT2  8828 TIP3 H2   HT     0.417000        1.0080           0
   47162 WT2  8829 TIP3 OH2  OT    -0.834000       15.9994           0
   47163 WT2  8829 TIP3 H1   HT     0.417000        1.0080           0
   47164 WT2  8829 TIP3 H2   HT     0.417000        1.0080           0
   47165 WT2  8830 TIP3 OH2  OT    -0.834000       15.9994           0
   47166 WT2  8830 TIP3 H1   HT     0.417000        1.0080           0
   47167 WT2  8830 TIP3 H2   HT     0.417000        1.0080           0
   47168 WT2  8832 TIP3 OH2  OT    -0.834000       15.9994           0
   47169 WT2  8832 TIP3 H1   HT     0.417000        1.0080           0
   47170 WT2  8832 TIP3 H2   HT     0.417000        1.0080           0
   47171 WT2  8834 TIP3 OH2  OT    -0.834000       15.9994           0
   47172 WT2  8834 TIP3 H1   HT     0.417000        1.0080           0
   47173 WT2  8834 TIP3 H2   HT     0.417000        1.0080           0
   47174 WT2  8835 TIP3 OH2  OT    -0.834000       15.9994           0
   47175 WT2  8835 TIP3 H1   HT     0.417000        1.0080           0
   47176 WT2  8835 TIP3 H2   HT     0.417000        1.0080           0
   47177 WT2  8836 TIP3 OH2  OT    -0.834000       15.9994           0
   47178 WT2  8836 TIP3 H1   HT     0.417000        1.0080           0
   47179 WT2  8836 TIP3 H2   HT     0.417000        1.0080           0
   47180 WT2  8837 TIP3 OH2  OT    -0.834000       15.9994           0
   47181 WT2  8837 TIP3 H1   HT     0.417000        1.0080           0
   47182 WT2  8837 TIP3 H2   HT     0.417000        1.0080           0
   47183 WT2  8839 TIP3 OH2  OT    -0.834000       15.9994           0
   47184 WT2  8839 TIP3 H1   HT     0.417000        1.0080           0
   47185 WT2  8839 TIP3 H2   HT     0.417000        1.0080           0
   47186 WT2  8840 TIP3 OH2  OT    -0.834000       15.9994           0
   47187 WT2  8840 TIP3 H1   HT     0.417000        1.0080           0
   47188 WT2  8840 TIP3 H2   HT     0.417000        1.0080           0
   47189 WT2  8841 TIP3 OH2  OT    -0.834000       15.9994           0
   47190 WT2  8841 TIP3 H1   HT     0.417000        1.0080           0
   47191 WT2  8841 TIP3 H2   HT     0.417000        1.0080           0
   47192 WT2  8842 TIP3 OH2  OT    -0.834000       15.9994           0
   47193 WT2  8842 TIP3 H1   HT     0.417000        1.0080           0
   47194 WT2  8842 TIP3 H2   HT     0.417000        1.0080           0
   47195 WT2  8843 TIP3 OH2  OT    -0.834000       15.9994           0
   47196 WT2  8843 TIP3 H1   HT     0.417000        1.0080           0
   47197 WT2  8843 TIP3 H2   HT     0.417000        1.0080           0
   47198 WT2  8844 TIP3 OH2  OT    -0.834000       15.9994           0
   47199 WT2  8844 TIP3 H1   HT     0.417000        1.0080           0
   47200 WT2  8844 TIP3 H2   HT     0.417000        1.0080           0
   47201 WT2  8845 TIP3 OH2  OT    -0.834000       15.9994           0
   47202 WT2  8845 TIP3 H1   HT     0.417000        1.0080           0
   47203 WT2  8845 TIP3 H2   HT     0.417000        1.0080           0
   47204 WT2  8846 TIP3 OH2  OT    -0.834000       15.9994           0
   47205 WT2  8846 TIP3 H1   HT     0.417000        1.0080           0
   47206 WT2  8846 TIP3 H2   HT     0.417000        1.0080           0
   47207 WT2  8847 TIP3 OH2  OT    -0.834000       15.9994           0
   47208 WT2  8847 TIP3 H1   HT     0.417000        1.0080           0
   47209 WT2  8847 TIP3 H2   HT     0.417000        1.0080           0
   47210 WT2  8848 TIP3 OH2  OT    -0.834000       15.9994           0
   47211 WT2  8848 TIP3 H1   HT     0.417000        1.0080           0
   47212 WT2  8848 TIP3 H2   HT     0.417000        1.0080           0
   47213 WT2  8849 TIP3 OH2  OT    -0.834000       15.9994           0
   47214 WT2  8849 TIP3 H1   HT     0.417000        1.0080           0
   47215 WT2  8849 TIP3 H2   HT     0.417000        1.0080           0
   47216 WT2  8850 TIP3 OH2  OT    -0.834000       15.9994           0
   47217 WT2  8850 TIP3 H1   HT     0.417000        1.0080           0
   47218 WT2  8850 TIP3 H2   HT     0.417000        1.0080           0
   47219 WT2  8851 TIP3 OH2  OT    -0.834000       15.9994           0
   47220 WT2  8851 TIP3 H1   HT     0.417000        1.0080           0
   47221 WT2  8851 TIP3 H2   HT     0.417000        1.0080           0
   47222 WT2  8852 TIP3 OH2  OT    -0.834000       15.9994           0
   47223 WT2  8852 TIP3 H1   HT     0.417000        1.0080           0
   47224 WT2  8852 TIP3 H2   HT     0.417000        1.0080           0
   47225 WT2  8853 TIP3 OH2  OT    -0.834000       15.9994           0
   47226 WT2  8853 TIP3 H1   HT     0.417000        1.0080           0
   47227 WT2  8853 TIP3 H2   HT     0.417000        1.0080           0
   47228 WT2  8854 TIP3 OH2  OT    -0.834000       15.9994           0
   47229 WT2  8854 TIP3 H1   HT     0.417000        1.0080           0
   47230 WT2  8854 TIP3 H2   HT     0.417000        1.0080           0
   47231 WT2  8856 TIP3 OH2  OT    -0.834000       15.9994           0
   47232 WT2  8856 TIP3 H1   HT     0.417000        1.0080           0
   47233 WT2  8856 TIP3 H2   HT     0.417000        1.0080           0
   47234 WT2  8857 TIP3 OH2  OT    -0.834000       15.9994           0
   47235 WT2  8857 TIP3 H1   HT     0.417000        1.0080           0
   47236 WT2  8857 TIP3 H2   HT     0.417000        1.0080           0
   47237 WT2  8859 TIP3 OH2  OT    -0.834000       15.9994           0
   47238 WT2  8859 TIP3 H1   HT     0.417000        1.0080           0
   47239 WT2  8859 TIP3 H2   HT     0.417000        1.0080           0
   47240 WT2  8860 TIP3 OH2  OT    -0.834000       15.9994           0
   47241 WT2  8860 TIP3 H1   HT     0.417000        1.0080           0
   47242 WT2  8860 TIP3 H2   HT     0.417000        1.0080           0
   47243 WT2  8861 TIP3 OH2  OT    -0.834000       15.9994           0
   47244 WT2  8861 TIP3 H1   HT     0.417000        1.0080           0
   47245 WT2  8861 TIP3 H2   HT     0.417000        1.0080           0
   47246 WT2  8862 TIP3 OH2  OT    -0.834000       15.9994           0
   47247 WT2  8862 TIP3 H1   HT     0.417000        1.0080           0
   47248 WT2  8862 TIP3 H2   HT     0.417000        1.0080           0
   47249 WT2  8863 TIP3 OH2  OT    -0.834000       15.9994           0
   47250 WT2  8863 TIP3 H1   HT     0.417000        1.0080           0
   47251 WT2  8863 TIP3 H2   HT     0.417000        1.0080           0
   47252 WT2  8864 TIP3 OH2  OT    -0.834000       15.9994           0
   47253 WT2  8864 TIP3 H1   HT     0.417000        1.0080           0
   47254 WT2  8864 TIP3 H2   HT     0.417000        1.0080           0
   47255 WT2  8865 TIP3 OH2  OT    -0.834000       15.9994           0
   47256 WT2  8865 TIP3 H1   HT     0.417000        1.0080           0
   47257 WT2  8865 TIP3 H2   HT     0.417000        1.0080           0
   47258 WT2  8866 TIP3 OH2  OT    -0.834000       15.9994           0
   47259 WT2  8866 TIP3 H1   HT     0.417000        1.0080           0
   47260 WT2  8866 TIP3 H2   HT     0.417000        1.0080           0
   47261 WT2  8867 TIP3 OH2  OT    -0.834000       15.9994           0
   47262 WT2  8867 TIP3 H1   HT     0.417000        1.0080           0
   47263 WT2  8867 TIP3 H2   HT     0.417000        1.0080           0
   47264 WT2  8868 TIP3 OH2  OT    -0.834000       15.9994           0
   47265 WT2  8868 TIP3 H1   HT     0.417000        1.0080           0
   47266 WT2  8868 TIP3 H2   HT     0.417000        1.0080           0
   47267 WT2  8869 TIP3 OH2  OT    -0.834000       15.9994           0
   47268 WT2  8869 TIP3 H1   HT     0.417000        1.0080           0
   47269 WT2  8869 TIP3 H2   HT     0.417000        1.0080           0
   47270 WT2  8870 TIP3 OH2  OT    -0.834000       15.9994           0
   47271 WT2  8870 TIP3 H1   HT     0.417000        1.0080           0
   47272 WT2  8870 TIP3 H2   HT     0.417000        1.0080           0
   47273 WT2  8871 TIP3 OH2  OT    -0.834000       15.9994           0
   47274 WT2  8871 TIP3 H1   HT     0.417000        1.0080           0
   47275 WT2  8871 TIP3 H2   HT     0.417000        1.0080           0
   47276 WT2  8872 TIP3 OH2  OT    -0.834000       15.9994           0
   47277 WT2  8872 TIP3 H1   HT     0.417000        1.0080           0
   47278 WT2  8872 TIP3 H2   HT     0.417000        1.0080           0
   47279 WT2  8873 TIP3 OH2  OT    -0.834000       15.9994           0
   47280 WT2  8873 TIP3 H1   HT     0.417000        1.0080           0
   47281 WT2  8873 TIP3 H2   HT     0.417000        1.0080           0
   47282 WT2  8874 TIP3 OH2  OT    -0.834000       15.9994           0
   47283 WT2  8874 TIP3 H1   HT     0.417000        1.0080           0
   47284 WT2  8874 TIP3 H2   HT     0.417000        1.0080           0
   47285 WT2  8875 TIP3 OH2  OT    -0.834000       15.9994           0
   47286 WT2  8875 TIP3 H1   HT     0.417000        1.0080           0
   47287 WT2  8875 TIP3 H2   HT     0.417000        1.0080           0
   47288 WT2  8876 TIP3 OH2  OT    -0.834000       15.9994           0
   47289 WT2  8876 TIP3 H1   HT     0.417000        1.0080           0
   47290 WT2  8876 TIP3 H2   HT     0.417000        1.0080           0
   47291 WT2  8877 TIP3 OH2  OT    -0.834000       15.9994           0
   47292 WT2  8877 TIP3 H1   HT     0.417000        1.0080           0
   47293 WT2  8877 TIP3 H2   HT     0.417000        1.0080           0
   47294 WT2  8878 TIP3 OH2  OT    -0.834000       15.9994           0
   47295 WT2  8878 TIP3 H1   HT     0.417000        1.0080           0
   47296 WT2  8878 TIP3 H2   HT     0.417000        1.0080           0
   47297 WT2  8879 TIP3 OH2  OT    -0.834000       15.9994           0
   47298 WT2  8879 TIP3 H1   HT     0.417000        1.0080           0
   47299 WT2  8879 TIP3 H2   HT     0.417000        1.0080           0
   47300 WT2  8880 TIP3 OH2  OT    -0.834000       15.9994           0
   47301 WT2  8880 TIP3 H1   HT     0.417000        1.0080           0
   47302 WT2  8880 TIP3 H2   HT     0.417000        1.0080           0
   47303 WT2  8881 TIP3 OH2  OT    -0.834000       15.9994           0
   47304 WT2  8881 TIP3 H1   HT     0.417000        1.0080           0
   47305 WT2  8881 TIP3 H2   HT     0.417000        1.0080           0
   47306 WT2  8882 TIP3 OH2  OT    -0.834000       15.9994           0
   47307 WT2  8882 TIP3 H1   HT     0.417000        1.0080           0
   47308 WT2  8882 TIP3 H2   HT     0.417000        1.0080           0
   47309 WT2  8883 TIP3 OH2  OT    -0.834000       15.9994           0
   47310 WT2  8883 TIP3 H1   HT     0.417000        1.0080           0
   47311 WT2  8883 TIP3 H2   HT     0.417000        1.0080           0
   47312 WT2  8884 TIP3 OH2  OT    -0.834000       15.9994           0
   47313 WT2  8884 TIP3 H1   HT     0.417000        1.0080           0
   47314 WT2  8884 TIP3 H2   HT     0.417000        1.0080           0
   47315 WT2  8885 TIP3 OH2  OT    -0.834000       15.9994           0
   47316 WT2  8885 TIP3 H1   HT     0.417000        1.0080           0
   47317 WT2  8885 TIP3 H2   HT     0.417000        1.0080           0
   47318 WT2  8886 TIP3 OH2  OT    -0.834000       15.9994           0
   47319 WT2  8886 TIP3 H1   HT     0.417000        1.0080           0
   47320 WT2  8886 TIP3 H2   HT     0.417000        1.0080           0
   47321 WT2  8887 TIP3 OH2  OT    -0.834000       15.9994           0
   47322 WT2  8887 TIP3 H1   HT     0.417000        1.0080           0
   47323 WT2  8887 TIP3 H2   HT     0.417000        1.0080           0
   47324 WT2  8888 TIP3 OH2  OT    -0.834000       15.9994           0
   47325 WT2  8888 TIP3 H1   HT     0.417000        1.0080           0
   47326 WT2  8888 TIP3 H2   HT     0.417000        1.0080           0
   47327 WT2  8889 TIP3 OH2  OT    -0.834000       15.9994           0
   47328 WT2  8889 TIP3 H1   HT     0.417000        1.0080           0
   47329 WT2  8889 TIP3 H2   HT     0.417000        1.0080           0
   47330 WT2  8891 TIP3 OH2  OT    -0.834000       15.9994           0
   47331 WT2  8891 TIP3 H1   HT     0.417000        1.0080           0
   47332 WT2  8891 TIP3 H2   HT     0.417000        1.0080           0
   47333 WT2  8893 TIP3 OH2  OT    -0.834000       15.9994           0
   47334 WT2  8893 TIP3 H1   HT     0.417000        1.0080           0
   47335 WT2  8893 TIP3 H2   HT     0.417000        1.0080           0
   47336 WT2  8894 TIP3 OH2  OT    -0.834000       15.9994           0
   47337 WT2  8894 TIP3 H1   HT     0.417000        1.0080           0
   47338 WT2  8894 TIP3 H2   HT     0.417000        1.0080           0
   47339 WT2  8895 TIP3 OH2  OT    -0.834000       15.9994           0
   47340 WT2  8895 TIP3 H1   HT     0.417000        1.0080           0
   47341 WT2  8895 TIP3 H2   HT     0.417000        1.0080           0
   47342 WT2  8896 TIP3 OH2  OT    -0.834000       15.9994           0
   47343 WT2  8896 TIP3 H1   HT     0.417000        1.0080           0
   47344 WT2  8896 TIP3 H2   HT     0.417000        1.0080           0
   47345 WT2  8897 TIP3 OH2  OT    -0.834000       15.9994           0
   47346 WT2  8897 TIP3 H1   HT     0.417000        1.0080           0
   47347 WT2  8897 TIP3 H2   HT     0.417000        1.0080           0
   47348 WT2  8898 TIP3 OH2  OT    -0.834000       15.9994           0
   47349 WT2  8898 TIP3 H1   HT     0.417000        1.0080           0
   47350 WT2  8898 TIP3 H2   HT     0.417000        1.0080           0
   47351 WT2  8899 TIP3 OH2  OT    -0.834000       15.9994           0
   47352 WT2  8899 TIP3 H1   HT     0.417000        1.0080           0
   47353 WT2  8899 TIP3 H2   HT     0.417000        1.0080           0
   47354 WT2  8901 TIP3 OH2  OT    -0.834000       15.9994           0
   47355 WT2  8901 TIP3 H1   HT     0.417000        1.0080           0
   47356 WT2  8901 TIP3 H2   HT     0.417000        1.0080           0
   47357 WT2  8903 TIP3 OH2  OT    -0.834000       15.9994           0
   47358 WT2  8903 TIP3 H1   HT     0.417000        1.0080           0
   47359 WT2  8903 TIP3 H2   HT     0.417000        1.0080           0
   47360 WT2  8904 TIP3 OH2  OT    -0.834000       15.9994           0
   47361 WT2  8904 TIP3 H1   HT     0.417000        1.0080           0
   47362 WT2  8904 TIP3 H2   HT     0.417000        1.0080           0
   47363 WT2  8906 TIP3 OH2  OT    -0.834000       15.9994           0
   47364 WT2  8906 TIP3 H1   HT     0.417000        1.0080           0
   47365 WT2  8906 TIP3 H2   HT     0.417000        1.0080           0
   47366 WT2  8907 TIP3 OH2  OT    -0.834000       15.9994           0
   47367 WT2  8907 TIP3 H1   HT     0.417000        1.0080           0
   47368 WT2  8907 TIP3 H2   HT     0.417000        1.0080           0
   47369 WT2  8908 TIP3 OH2  OT    -0.834000       15.9994           0
   47370 WT2  8908 TIP3 H1   HT     0.417000        1.0080           0
   47371 WT2  8908 TIP3 H2   HT     0.417000        1.0080           0
   47372 WT2  8910 TIP3 OH2  OT    -0.834000       15.9994           0
   47373 WT2  8910 TIP3 H1   HT     0.417000        1.0080           0
   47374 WT2  8910 TIP3 H2   HT     0.417000        1.0080           0
   47375 WT2  8911 TIP3 OH2  OT    -0.834000       15.9994           0
   47376 WT2  8911 TIP3 H1   HT     0.417000        1.0080           0
   47377 WT2  8911 TIP3 H2   HT     0.417000        1.0080           0
   47378 WT2  8912 TIP3 OH2  OT    -0.834000       15.9994           0
   47379 WT2  8912 TIP3 H1   HT     0.417000        1.0080           0
   47380 WT2  8912 TIP3 H2   HT     0.417000        1.0080           0
   47381 WT2  8913 TIP3 OH2  OT    -0.834000       15.9994           0
   47382 WT2  8913 TIP3 H1   HT     0.417000        1.0080           0
   47383 WT2  8913 TIP3 H2   HT     0.417000        1.0080           0
   47384 WT2  8914 TIP3 OH2  OT    -0.834000       15.9994           0
   47385 WT2  8914 TIP3 H1   HT     0.417000        1.0080           0
   47386 WT2  8914 TIP3 H2   HT     0.417000        1.0080           0
   47387 WT2  8915 TIP3 OH2  OT    -0.834000       15.9994           0
   47388 WT2  8915 TIP3 H1   HT     0.417000        1.0080           0
   47389 WT2  8915 TIP3 H2   HT     0.417000        1.0080           0
   47390 WT2  8916 TIP3 OH2  OT    -0.834000       15.9994           0
   47391 WT2  8916 TIP3 H1   HT     0.417000        1.0080           0
   47392 WT2  8916 TIP3 H2   HT     0.417000        1.0080           0
   47393 WT2  8917 TIP3 OH2  OT    -0.834000       15.9994           0
   47394 WT2  8917 TIP3 H1   HT     0.417000        1.0080           0
   47395 WT2  8917 TIP3 H2   HT     0.417000        1.0080           0
   47396 WT2  8919 TIP3 OH2  OT    -0.834000       15.9994           0
   47397 WT2  8919 TIP3 H1   HT     0.417000        1.0080           0
   47398 WT2  8919 TIP3 H2   HT     0.417000        1.0080           0
   47399 WT2  8920 TIP3 OH2  OT    -0.834000       15.9994           0
   47400 WT2  8920 TIP3 H1   HT     0.417000        1.0080           0
   47401 WT2  8920 TIP3 H2   HT     0.417000        1.0080           0
   47402 WT2  8921 TIP3 OH2  OT    -0.834000       15.9994           0
   47403 WT2  8921 TIP3 H1   HT     0.417000        1.0080           0
   47404 WT2  8921 TIP3 H2   HT     0.417000        1.0080           0
   47405 WT2  8922 TIP3 OH2  OT    -0.834000       15.9994           0
   47406 WT2  8922 TIP3 H1   HT     0.417000        1.0080           0
   47407 WT2  8922 TIP3 H2   HT     0.417000        1.0080           0
   47408 WT2  8925 TIP3 OH2  OT    -0.834000       15.9994           0
   47409 WT2  8925 TIP3 H1   HT     0.417000        1.0080           0
   47410 WT2  8925 TIP3 H2   HT     0.417000        1.0080           0
   47411 WT2  8926 TIP3 OH2  OT    -0.834000       15.9994           0
   47412 WT2  8926 TIP3 H1   HT     0.417000        1.0080           0
   47413 WT2  8926 TIP3 H2   HT     0.417000        1.0080           0
   47414 WT2  8927 TIP3 OH2  OT    -0.834000       15.9994           0
   47415 WT2  8927 TIP3 H1   HT     0.417000        1.0080           0
   47416 WT2  8927 TIP3 H2   HT     0.417000        1.0080           0
   47417 WT2  8928 TIP3 OH2  OT    -0.834000       15.9994           0
   47418 WT2  8928 TIP3 H1   HT     0.417000        1.0080           0
   47419 WT2  8928 TIP3 H2   HT     0.417000        1.0080           0
   47420 WT2  8929 TIP3 OH2  OT    -0.834000       15.9994           0
   47421 WT2  8929 TIP3 H1   HT     0.417000        1.0080           0
   47422 WT2  8929 TIP3 H2   HT     0.417000        1.0080           0
   47423 WT2  8930 TIP3 OH2  OT    -0.834000       15.9994           0
   47424 WT2  8930 TIP3 H1   HT     0.417000        1.0080           0
   47425 WT2  8930 TIP3 H2   HT     0.417000        1.0080           0
   47426 WT2  8931 TIP3 OH2  OT    -0.834000       15.9994           0
   47427 WT2  8931 TIP3 H1   HT     0.417000        1.0080           0
   47428 WT2  8931 TIP3 H2   HT     0.417000        1.0080           0
   47429 WT2  8932 TIP3 OH2  OT    -0.834000       15.9994           0
   47430 WT2  8932 TIP3 H1   HT     0.417000        1.0080           0
   47431 WT2  8932 TIP3 H2   HT     0.417000        1.0080           0
   47432 WT2  8933 TIP3 OH2  OT    -0.834000       15.9994           0
   47433 WT2  8933 TIP3 H1   HT     0.417000        1.0080           0
   47434 WT2  8933 TIP3 H2   HT     0.417000        1.0080           0
   47435 WT2  8935 TIP3 OH2  OT    -0.834000       15.9994           0
   47436 WT2  8935 TIP3 H1   HT     0.417000        1.0080           0
   47437 WT2  8935 TIP3 H2   HT     0.417000        1.0080           0
   47438 WT2  8936 TIP3 OH2  OT    -0.834000       15.9994           0
   47439 WT2  8936 TIP3 H1   HT     0.417000        1.0080           0
   47440 WT2  8936 TIP3 H2   HT     0.417000        1.0080           0
   47441 WT2  8937 TIP3 OH2  OT    -0.834000       15.9994           0
   47442 WT2  8937 TIP3 H1   HT     0.417000        1.0080           0
   47443 WT2  8937 TIP3 H2   HT     0.417000        1.0080           0
   47444 WT2  8939 TIP3 OH2  OT    -0.834000       15.9994           0
   47445 WT2  8939 TIP3 H1   HT     0.417000        1.0080           0
   47446 WT2  8939 TIP3 H2   HT     0.417000        1.0080           0
   47447 WT2  8940 TIP3 OH2  OT    -0.834000       15.9994           0
   47448 WT2  8940 TIP3 H1   HT     0.417000        1.0080           0
   47449 WT2  8940 TIP3 H2   HT     0.417000        1.0080           0
   47450 WT2  8941 TIP3 OH2  OT    -0.834000       15.9994           0
   47451 WT2  8941 TIP3 H1   HT     0.417000        1.0080           0
   47452 WT2  8941 TIP3 H2   HT     0.417000        1.0080           0
   47453 WT2  8943 TIP3 OH2  OT    -0.834000       15.9994           0
   47454 WT2  8943 TIP3 H1   HT     0.417000        1.0080           0
   47455 WT2  8943 TIP3 H2   HT     0.417000        1.0080           0
   47456 WT2  8944 TIP3 OH2  OT    -0.834000       15.9994           0
   47457 WT2  8944 TIP3 H1   HT     0.417000        1.0080           0
   47458 WT2  8944 TIP3 H2   HT     0.417000        1.0080           0
   47459 WT2  8945 TIP3 OH2  OT    -0.834000       15.9994           0
   47460 WT2  8945 TIP3 H1   HT     0.417000        1.0080           0
   47461 WT2  8945 TIP3 H2   HT     0.417000        1.0080           0
   47462 WT2  8946 TIP3 OH2  OT    -0.834000       15.9994           0
   47463 WT2  8946 TIP3 H1   HT     0.417000        1.0080           0
   47464 WT2  8946 TIP3 H2   HT     0.417000        1.0080           0
   47465 WT2  8947 TIP3 OH2  OT    -0.834000       15.9994           0
   47466 WT2  8947 TIP3 H1   HT     0.417000        1.0080           0
   47467 WT2  8947 TIP3 H2   HT     0.417000        1.0080           0
   47468 WT2  8948 TIP3 OH2  OT    -0.834000       15.9994           0
   47469 WT2  8948 TIP3 H1   HT     0.417000        1.0080           0
   47470 WT2  8948 TIP3 H2   HT     0.417000        1.0080           0
   47471 WT2  8949 TIP3 OH2  OT    -0.834000       15.9994           0
   47472 WT2  8949 TIP3 H1   HT     0.417000        1.0080           0
   47473 WT2  8949 TIP3 H2   HT     0.417000        1.0080           0
   47474 WT2  8950 TIP3 OH2  OT    -0.834000       15.9994           0
   47475 WT2  8950 TIP3 H1   HT     0.417000        1.0080           0
   47476 WT2  8950 TIP3 H2   HT     0.417000        1.0080           0
   47477 WT2  8951 TIP3 OH2  OT    -0.834000       15.9994           0
   47478 WT2  8951 TIP3 H1   HT     0.417000        1.0080           0
   47479 WT2  8951 TIP3 H2   HT     0.417000        1.0080           0
   47480 WT2  8952 TIP3 OH2  OT    -0.834000       15.9994           0
   47481 WT2  8952 TIP3 H1   HT     0.417000        1.0080           0
   47482 WT2  8952 TIP3 H2   HT     0.417000        1.0080           0
   47483 WT2  8953 TIP3 OH2  OT    -0.834000       15.9994           0
   47484 WT2  8953 TIP3 H1   HT     0.417000        1.0080           0
   47485 WT2  8953 TIP3 H2   HT     0.417000        1.0080           0
   47486 WT2  8954 TIP3 OH2  OT    -0.834000       15.9994           0
   47487 WT2  8954 TIP3 H1   HT     0.417000        1.0080           0
   47488 WT2  8954 TIP3 H2   HT     0.417000        1.0080           0
   47489 WT2  8955 TIP3 OH2  OT    -0.834000       15.9994           0
   47490 WT2  8955 TIP3 H1   HT     0.417000        1.0080           0
   47491 WT2  8955 TIP3 H2   HT     0.417000        1.0080           0
   47492 WT2  8956 TIP3 OH2  OT    -0.834000       15.9994           0
   47493 WT2  8956 TIP3 H1   HT     0.417000        1.0080           0
   47494 WT2  8956 TIP3 H2   HT     0.417000        1.0080           0
   47495 WT2  8957 TIP3 OH2  OT    -0.834000       15.9994           0
   47496 WT2  8957 TIP3 H1   HT     0.417000        1.0080           0
   47497 WT2  8957 TIP3 H2   HT     0.417000        1.0080           0
   47498 WT2  8958 TIP3 OH2  OT    -0.834000       15.9994           0
   47499 WT2  8958 TIP3 H1   HT     0.417000        1.0080           0
   47500 WT2  8958 TIP3 H2   HT     0.417000        1.0080           0
   47501 WT2  8959 TIP3 OH2  OT    -0.834000       15.9994           0
   47502 WT2  8959 TIP3 H1   HT     0.417000        1.0080           0
   47503 WT2  8959 TIP3 H2   HT     0.417000        1.0080           0
   47504 WT2  8960 TIP3 OH2  OT    -0.834000       15.9994           0
   47505 WT2  8960 TIP3 H1   HT     0.417000        1.0080           0
   47506 WT2  8960 TIP3 H2   HT     0.417000        1.0080           0
   47507 WT2  8962 TIP3 OH2  OT    -0.834000       15.9994           0
   47508 WT2  8962 TIP3 H1   HT     0.417000        1.0080           0
   47509 WT2  8962 TIP3 H2   HT     0.417000        1.0080           0
   47510 WT2  8963 TIP3 OH2  OT    -0.834000       15.9994           0
   47511 WT2  8963 TIP3 H1   HT     0.417000        1.0080           0
   47512 WT2  8963 TIP3 H2   HT     0.417000        1.0080           0
   47513 WT2  8964 TIP3 OH2  OT    -0.834000       15.9994           0
   47514 WT2  8964 TIP3 H1   HT     0.417000        1.0080           0
   47515 WT2  8964 TIP3 H2   HT     0.417000        1.0080           0
   47516 WT2  8965 TIP3 OH2  OT    -0.834000       15.9994           0
   47517 WT2  8965 TIP3 H1   HT     0.417000        1.0080           0
   47518 WT2  8965 TIP3 H2   HT     0.417000        1.0080           0
   47519 WT2  8966 TIP3 OH2  OT    -0.834000       15.9994           0
   47520 WT2  8966 TIP3 H1   HT     0.417000        1.0080           0
   47521 WT2  8966 TIP3 H2   HT     0.417000        1.0080           0
   47522 WT2  8967 TIP3 OH2  OT    -0.834000       15.9994           0
   47523 WT2  8967 TIP3 H1   HT     0.417000        1.0080           0
   47524 WT2  8967 TIP3 H2   HT     0.417000        1.0080           0
   47525 WT2  8968 TIP3 OH2  OT    -0.834000       15.9994           0
   47526 WT2  8968 TIP3 H1   HT     0.417000        1.0080           0
   47527 WT2  8968 TIP3 H2   HT     0.417000        1.0080           0
   47528 WT2  8970 TIP3 OH2  OT    -0.834000       15.9994           0
   47529 WT2  8970 TIP3 H1   HT     0.417000        1.0080           0
   47530 WT2  8970 TIP3 H2   HT     0.417000        1.0080           0
   47531 WT2  8971 TIP3 OH2  OT    -0.834000       15.9994           0
   47532 WT2  8971 TIP3 H1   HT     0.417000        1.0080           0
   47533 WT2  8971 TIP3 H2   HT     0.417000        1.0080           0
   47534 WT2  8972 TIP3 OH2  OT    -0.834000       15.9994           0
   47535 WT2  8972 TIP3 H1   HT     0.417000        1.0080           0
   47536 WT2  8972 TIP3 H2   HT     0.417000        1.0080           0
   47537 WT2  8973 TIP3 OH2  OT    -0.834000       15.9994           0
   47538 WT2  8973 TIP3 H1   HT     0.417000        1.0080           0
   47539 WT2  8973 TIP3 H2   HT     0.417000        1.0080           0
   47540 WT2  8974 TIP3 OH2  OT    -0.834000       15.9994           0
   47541 WT2  8974 TIP3 H1   HT     0.417000        1.0080           0
   47542 WT2  8974 TIP3 H2   HT     0.417000        1.0080           0
   47543 WT2  8975 TIP3 OH2  OT    -0.834000       15.9994           0
   47544 WT2  8975 TIP3 H1   HT     0.417000        1.0080           0
   47545 WT2  8975 TIP3 H2   HT     0.417000        1.0080           0
   47546 WT2  8976 TIP3 OH2  OT    -0.834000       15.9994           0
   47547 WT2  8976 TIP3 H1   HT     0.417000        1.0080           0
   47548 WT2  8976 TIP3 H2   HT     0.417000        1.0080           0
   47549 WT2  8977 TIP3 OH2  OT    -0.834000       15.9994           0
   47550 WT2  8977 TIP3 H1   HT     0.417000        1.0080           0
   47551 WT2  8977 TIP3 H2   HT     0.417000        1.0080           0
   47552 WT2  8978 TIP3 OH2  OT    -0.834000       15.9994           0
   47553 WT2  8978 TIP3 H1   HT     0.417000        1.0080           0
   47554 WT2  8978 TIP3 H2   HT     0.417000        1.0080           0
   47555 WT2  8979 TIP3 OH2  OT    -0.834000       15.9994           0
   47556 WT2  8979 TIP3 H1   HT     0.417000        1.0080           0
   47557 WT2  8979 TIP3 H2   HT     0.417000        1.0080           0
   47558 WT2  8980 TIP3 OH2  OT    -0.834000       15.9994           0
   47559 WT2  8980 TIP3 H1   HT     0.417000        1.0080           0
   47560 WT2  8980 TIP3 H2   HT     0.417000        1.0080           0
   47561 WT2  8981 TIP3 OH2  OT    -0.834000       15.9994           0
   47562 WT2  8981 TIP3 H1   HT     0.417000        1.0080           0
   47563 WT2  8981 TIP3 H2   HT     0.417000        1.0080           0
   47564 WT2  8982 TIP3 OH2  OT    -0.834000       15.9994           0
   47565 WT2  8982 TIP3 H1   HT     0.417000        1.0080           0
   47566 WT2  8982 TIP3 H2   HT     0.417000        1.0080           0
   47567 WT2  8983 TIP3 OH2  OT    -0.834000       15.9994           0
   47568 WT2  8983 TIP3 H1   HT     0.417000        1.0080           0
   47569 WT2  8983 TIP3 H2   HT     0.417000        1.0080           0
   47570 WT2  8984 TIP3 OH2  OT    -0.834000       15.9994           0
   47571 WT2  8984 TIP3 H1   HT     0.417000        1.0080           0
   47572 WT2  8984 TIP3 H2   HT     0.417000        1.0080           0
   47573 WT2  8985 TIP3 OH2  OT    -0.834000       15.9994           0
   47574 WT2  8985 TIP3 H1   HT     0.417000        1.0080           0
   47575 WT2  8985 TIP3 H2   HT     0.417000        1.0080           0
   47576 WT2  8986 TIP3 OH2  OT    -0.834000       15.9994           0
   47577 WT2  8986 TIP3 H1   HT     0.417000        1.0080           0
   47578 WT2  8986 TIP3 H2   HT     0.417000        1.0080           0
   47579 WT2  8987 TIP3 OH2  OT    -0.834000       15.9994           0
   47580 WT2  8987 TIP3 H1   HT     0.417000        1.0080           0
   47581 WT2  8987 TIP3 H2   HT     0.417000        1.0080           0
   47582 WT2  8988 TIP3 OH2  OT    -0.834000       15.9994           0
   47583 WT2  8988 TIP3 H1   HT     0.417000        1.0080           0
   47584 WT2  8988 TIP3 H2   HT     0.417000        1.0080           0
   47585 WT2  8989 TIP3 OH2  OT    -0.834000       15.9994           0
   47586 WT2  8989 TIP3 H1   HT     0.417000        1.0080           0
   47587 WT2  8989 TIP3 H2   HT     0.417000        1.0080           0
   47588 WT2  8990 TIP3 OH2  OT    -0.834000       15.9994           0
   47589 WT2  8990 TIP3 H1   HT     0.417000        1.0080           0
   47590 WT2  8990 TIP3 H2   HT     0.417000        1.0080           0
   47591 WT2  8991 TIP3 OH2  OT    -0.834000       15.9994           0
   47592 WT2  8991 TIP3 H1   HT     0.417000        1.0080           0
   47593 WT2  8991 TIP3 H2   HT     0.417000        1.0080           0
   47594 WT2  8992 TIP3 OH2  OT    -0.834000       15.9994           0
   47595 WT2  8992 TIP3 H1   HT     0.417000        1.0080           0
   47596 WT2  8992 TIP3 H2   HT     0.417000        1.0080           0
   47597 WT2  8994 TIP3 OH2  OT    -0.834000       15.9994           0
   47598 WT2  8994 TIP3 H1   HT     0.417000        1.0080           0
   47599 WT2  8994 TIP3 H2   HT     0.417000        1.0080           0
   47600 WT2  8995 TIP3 OH2  OT    -0.834000       15.9994           0
   47601 WT2  8995 TIP3 H1   HT     0.417000        1.0080           0
   47602 WT2  8995 TIP3 H2   HT     0.417000        1.0080           0
   47603 WT2  8996 TIP3 OH2  OT    -0.834000       15.9994           0
   47604 WT2  8996 TIP3 H1   HT     0.417000        1.0080           0
   47605 WT2  8996 TIP3 H2   HT     0.417000        1.0080           0
   47606 WT2  8997 TIP3 OH2  OT    -0.834000       15.9994           0
   47607 WT2  8997 TIP3 H1   HT     0.417000        1.0080           0
   47608 WT2  8997 TIP3 H2   HT     0.417000        1.0080           0
   47609 WT2  8998 TIP3 OH2  OT    -0.834000       15.9994           0
   47610 WT2  8998 TIP3 H1   HT     0.417000        1.0080           0
   47611 WT2  8998 TIP3 H2   HT     0.417000        1.0080           0
   47612 WT2  9000 TIP3 OH2  OT    -0.834000       15.9994           0
   47613 WT2  9000 TIP3 H1   HT     0.417000        1.0080           0
   47614 WT2  9000 TIP3 H2   HT     0.417000        1.0080           0
   47615 WT2  9001 TIP3 OH2  OT    -0.834000       15.9994           0
   47616 WT2  9001 TIP3 H1   HT     0.417000        1.0080           0
   47617 WT2  9001 TIP3 H2   HT     0.417000        1.0080           0
   47618 WT2  9002 TIP3 OH2  OT    -0.834000       15.9994           0
   47619 WT2  9002 TIP3 H1   HT     0.417000        1.0080           0
   47620 WT2  9002 TIP3 H2   HT     0.417000        1.0080           0
   47621 WT2  9003 TIP3 OH2  OT    -0.834000       15.9994           0
   47622 WT2  9003 TIP3 H1   HT     0.417000        1.0080           0
   47623 WT2  9003 TIP3 H2   HT     0.417000        1.0080           0
   47624 WT2  9004 TIP3 OH2  OT    -0.834000       15.9994           0
   47625 WT2  9004 TIP3 H1   HT     0.417000        1.0080           0
   47626 WT2  9004 TIP3 H2   HT     0.417000        1.0080           0
   47627 WT2  9005 TIP3 OH2  OT    -0.834000       15.9994           0
   47628 WT2  9005 TIP3 H1   HT     0.417000        1.0080           0
   47629 WT2  9005 TIP3 H2   HT     0.417000        1.0080           0
   47630 WT2  9006 TIP3 OH2  OT    -0.834000       15.9994           0
   47631 WT2  9006 TIP3 H1   HT     0.417000        1.0080           0
   47632 WT2  9006 TIP3 H2   HT     0.417000        1.0080           0
   47633 WT2  9007 TIP3 OH2  OT    -0.834000       15.9994           0
   47634 WT2  9007 TIP3 H1   HT     0.417000        1.0080           0
   47635 WT2  9007 TIP3 H2   HT     0.417000        1.0080           0
   47636 WT2  9008 TIP3 OH2  OT    -0.834000       15.9994           0
   47637 WT2  9008 TIP3 H1   HT     0.417000        1.0080           0
   47638 WT2  9008 TIP3 H2   HT     0.417000        1.0080           0
   47639 WT2  9009 TIP3 OH2  OT    -0.834000       15.9994           0
   47640 WT2  9009 TIP3 H1   HT     0.417000        1.0080           0
   47641 WT2  9009 TIP3 H2   HT     0.417000        1.0080           0
   47642 WT2  9010 TIP3 OH2  OT    -0.834000       15.9994           0
   47643 WT2  9010 TIP3 H1   HT     0.417000        1.0080           0
   47644 WT2  9010 TIP3 H2   HT     0.417000        1.0080           0
   47645 WT2  9012 TIP3 OH2  OT    -0.834000       15.9994           0
   47646 WT2  9012 TIP3 H1   HT     0.417000        1.0080           0
   47647 WT2  9012 TIP3 H2   HT     0.417000        1.0080           0
   47648 WT2  9013 TIP3 OH2  OT    -0.834000       15.9994           0
   47649 WT2  9013 TIP3 H1   HT     0.417000        1.0080           0
   47650 WT2  9013 TIP3 H2   HT     0.417000        1.0080           0
   47651 WT2  9014 TIP3 OH2  OT    -0.834000       15.9994           0
   47652 WT2  9014 TIP3 H1   HT     0.417000        1.0080           0
   47653 WT2  9014 TIP3 H2   HT     0.417000        1.0080           0
   47654 WT2  9015 TIP3 OH2  OT    -0.834000       15.9994           0
   47655 WT2  9015 TIP3 H1   HT     0.417000        1.0080           0
   47656 WT2  9015 TIP3 H2   HT     0.417000        1.0080           0
   47657 WT2  9016 TIP3 OH2  OT    -0.834000       15.9994           0
   47658 WT2  9016 TIP3 H1   HT     0.417000        1.0080           0
   47659 WT2  9016 TIP3 H2   HT     0.417000        1.0080           0
   47660 WT2  9017 TIP3 OH2  OT    -0.834000       15.9994           0
   47661 WT2  9017 TIP3 H1   HT     0.417000        1.0080           0
   47662 WT2  9017 TIP3 H2   HT     0.417000        1.0080           0
   47663 WT2  9018 TIP3 OH2  OT    -0.834000       15.9994           0
   47664 WT2  9018 TIP3 H1   HT     0.417000        1.0080           0
   47665 WT2  9018 TIP3 H2   HT     0.417000        1.0080           0
   47666 WT2  9019 TIP3 OH2  OT    -0.834000       15.9994           0
   47667 WT2  9019 TIP3 H1   HT     0.417000        1.0080           0
   47668 WT2  9019 TIP3 H2   HT     0.417000        1.0080           0
   47669 WT2  9020 TIP3 OH2  OT    -0.834000       15.9994           0
   47670 WT2  9020 TIP3 H1   HT     0.417000        1.0080           0
   47671 WT2  9020 TIP3 H2   HT     0.417000        1.0080           0
   47672 WT2  9021 TIP3 OH2  OT    -0.834000       15.9994           0
   47673 WT2  9021 TIP3 H1   HT     0.417000        1.0080           0
   47674 WT2  9021 TIP3 H2   HT     0.417000        1.0080           0
   47675 WT2  9022 TIP3 OH2  OT    -0.834000       15.9994           0
   47676 WT2  9022 TIP3 H1   HT     0.417000        1.0080           0
   47677 WT2  9022 TIP3 H2   HT     0.417000        1.0080           0
   47678 WT2  9024 TIP3 OH2  OT    -0.834000       15.9994           0
   47679 WT2  9024 TIP3 H1   HT     0.417000        1.0080           0
   47680 WT2  9024 TIP3 H2   HT     0.417000        1.0080           0
   47681 WT2  9025 TIP3 OH2  OT    -0.834000       15.9994           0
   47682 WT2  9025 TIP3 H1   HT     0.417000        1.0080           0
   47683 WT2  9025 TIP3 H2   HT     0.417000        1.0080           0
   47684 WT2  9026 TIP3 OH2  OT    -0.834000       15.9994           0
   47685 WT2  9026 TIP3 H1   HT     0.417000        1.0080           0
   47686 WT2  9026 TIP3 H2   HT     0.417000        1.0080           0
   47687 WT2  9027 TIP3 OH2  OT    -0.834000       15.9994           0
   47688 WT2  9027 TIP3 H1   HT     0.417000        1.0080           0
   47689 WT2  9027 TIP3 H2   HT     0.417000        1.0080           0
   47690 WT2  9028 TIP3 OH2  OT    -0.834000       15.9994           0
   47691 WT2  9028 TIP3 H1   HT     0.417000        1.0080           0
   47692 WT2  9028 TIP3 H2   HT     0.417000        1.0080           0
   47693 WT2  9029 TIP3 OH2  OT    -0.834000       15.9994           0
   47694 WT2  9029 TIP3 H1   HT     0.417000        1.0080           0
   47695 WT2  9029 TIP3 H2   HT     0.417000        1.0080           0
   47696 WT2  9030 TIP3 OH2  OT    -0.834000       15.9994           0
   47697 WT2  9030 TIP3 H1   HT     0.417000        1.0080           0
   47698 WT2  9030 TIP3 H2   HT     0.417000        1.0080           0
   47699 WT2  9031 TIP3 OH2  OT    -0.834000       15.9994           0
   47700 WT2  9031 TIP3 H1   HT     0.417000        1.0080           0
   47701 WT2  9031 TIP3 H2   HT     0.417000        1.0080           0
   47702 WT2  9032 TIP3 OH2  OT    -0.834000       15.9994           0
   47703 WT2  9032 TIP3 H1   HT     0.417000        1.0080           0
   47704 WT2  9032 TIP3 H2   HT     0.417000        1.0080           0
   47705 WT2  9033 TIP3 OH2  OT    -0.834000       15.9994           0
   47706 WT2  9033 TIP3 H1   HT     0.417000        1.0080           0
   47707 WT2  9033 TIP3 H2   HT     0.417000        1.0080           0
   47708 WT2  9034 TIP3 OH2  OT    -0.834000       15.9994           0
   47709 WT2  9034 TIP3 H1   HT     0.417000        1.0080           0
   47710 WT2  9034 TIP3 H2   HT     0.417000        1.0080           0
   47711 WT2  9035 TIP3 OH2  OT    -0.834000       15.9994           0
   47712 WT2  9035 TIP3 H1   HT     0.417000        1.0080           0
   47713 WT2  9035 TIP3 H2   HT     0.417000        1.0080           0
   47714 WT2  9036 TIP3 OH2  OT    -0.834000       15.9994           0
   47715 WT2  9036 TIP3 H1   HT     0.417000        1.0080           0
   47716 WT2  9036 TIP3 H2   HT     0.417000        1.0080           0
   47717 WT2  9038 TIP3 OH2  OT    -0.834000       15.9994           0
   47718 WT2  9038 TIP3 H1   HT     0.417000        1.0080           0
   47719 WT2  9038 TIP3 H2   HT     0.417000        1.0080           0
   47720 WT2  9039 TIP3 OH2  OT    -0.834000       15.9994           0
   47721 WT2  9039 TIP3 H1   HT     0.417000        1.0080           0
   47722 WT2  9039 TIP3 H2   HT     0.417000        1.0080           0
   47723 WT2  9040 TIP3 OH2  OT    -0.834000       15.9994           0
   47724 WT2  9040 TIP3 H1   HT     0.417000        1.0080           0
   47725 WT2  9040 TIP3 H2   HT     0.417000        1.0080           0
   47726 WT2  9043 TIP3 OH2  OT    -0.834000       15.9994           0
   47727 WT2  9043 TIP3 H1   HT     0.417000        1.0080           0
   47728 WT2  9043 TIP3 H2   HT     0.417000        1.0080           0
   47729 WT2  9044 TIP3 OH2  OT    -0.834000       15.9994           0
   47730 WT2  9044 TIP3 H1   HT     0.417000        1.0080           0
   47731 WT2  9044 TIP3 H2   HT     0.417000        1.0080           0
   47732 WT2  9045 TIP3 OH2  OT    -0.834000       15.9994           0
   47733 WT2  9045 TIP3 H1   HT     0.417000        1.0080           0
   47734 WT2  9045 TIP3 H2   HT     0.417000        1.0080           0
   47735 WT2  9046 TIP3 OH2  OT    -0.834000       15.9994           0
   47736 WT2  9046 TIP3 H1   HT     0.417000        1.0080           0
   47737 WT2  9046 TIP3 H2   HT     0.417000        1.0080           0
   47738 WT2  9047 TIP3 OH2  OT    -0.834000       15.9994           0
   47739 WT2  9047 TIP3 H1   HT     0.417000        1.0080           0
   47740 WT2  9047 TIP3 H2   HT     0.417000        1.0080           0
   47741 WT2  9048 TIP3 OH2  OT    -0.834000       15.9994           0
   47742 WT2  9048 TIP3 H1   HT     0.417000        1.0080           0
   47743 WT2  9048 TIP3 H2   HT     0.417000        1.0080           0
   47744 WT2  9049 TIP3 OH2  OT    -0.834000       15.9994           0
   47745 WT2  9049 TIP3 H1   HT     0.417000        1.0080           0
   47746 WT2  9049 TIP3 H2   HT     0.417000        1.0080           0
   47747 WT2  9050 TIP3 OH2  OT    -0.834000       15.9994           0
   47748 WT2  9050 TIP3 H1   HT     0.417000        1.0080           0
   47749 WT2  9050 TIP3 H2   HT     0.417000        1.0080           0
   47750 WT2  9051 TIP3 OH2  OT    -0.834000       15.9994           0
   47751 WT2  9051 TIP3 H1   HT     0.417000        1.0080           0
   47752 WT2  9051 TIP3 H2   HT     0.417000        1.0080           0
   47753 WT2  9052 TIP3 OH2  OT    -0.834000       15.9994           0
   47754 WT2  9052 TIP3 H1   HT     0.417000        1.0080           0
   47755 WT2  9052 TIP3 H2   HT     0.417000        1.0080           0
   47756 WT2  9053 TIP3 OH2  OT    -0.834000       15.9994           0
   47757 WT2  9053 TIP3 H1   HT     0.417000        1.0080           0
   47758 WT2  9053 TIP3 H2   HT     0.417000        1.0080           0
   47759 WT2  9054 TIP3 OH2  OT    -0.834000       15.9994           0
   47760 WT2  9054 TIP3 H1   HT     0.417000        1.0080           0
   47761 WT2  9054 TIP3 H2   HT     0.417000        1.0080           0
   47762 WT2  9057 TIP3 OH2  OT    -0.834000       15.9994           0
   47763 WT2  9057 TIP3 H1   HT     0.417000        1.0080           0
   47764 WT2  9057 TIP3 H2   HT     0.417000        1.0080           0
   47765 WT2  9058 TIP3 OH2  OT    -0.834000       15.9994           0
   47766 WT2  9058 TIP3 H1   HT     0.417000        1.0080           0
   47767 WT2  9058 TIP3 H2   HT     0.417000        1.0080           0
   47768 WT2  9059 TIP3 OH2  OT    -0.834000       15.9994           0
   47769 WT2  9059 TIP3 H1   HT     0.417000        1.0080           0
   47770 WT2  9059 TIP3 H2   HT     0.417000        1.0080           0
   47771 WT2  9060 TIP3 OH2  OT    -0.834000       15.9994           0
   47772 WT2  9060 TIP3 H1   HT     0.417000        1.0080           0
   47773 WT2  9060 TIP3 H2   HT     0.417000        1.0080           0
   47774 WT2  9061 TIP3 OH2  OT    -0.834000       15.9994           0
   47775 WT2  9061 TIP3 H1   HT     0.417000        1.0080           0
   47776 WT2  9061 TIP3 H2   HT     0.417000        1.0080           0
   47777 WT2  9062 TIP3 OH2  OT    -0.834000       15.9994           0
   47778 WT2  9062 TIP3 H1   HT     0.417000        1.0080           0
   47779 WT2  9062 TIP3 H2   HT     0.417000        1.0080           0
   47780 WT2  9063 TIP3 OH2  OT    -0.834000       15.9994           0
   47781 WT2  9063 TIP3 H1   HT     0.417000        1.0080           0
   47782 WT2  9063 TIP3 H2   HT     0.417000        1.0080           0
   47783 WT2  9066 TIP3 OH2  OT    -0.834000       15.9994           0
   47784 WT2  9066 TIP3 H1   HT     0.417000        1.0080           0
   47785 WT2  9066 TIP3 H2   HT     0.417000        1.0080           0
   47786 WT2  9067 TIP3 OH2  OT    -0.834000       15.9994           0
   47787 WT2  9067 TIP3 H1   HT     0.417000        1.0080           0
   47788 WT2  9067 TIP3 H2   HT     0.417000        1.0080           0
   47789 WT2  9069 TIP3 OH2  OT    -0.834000       15.9994           0
   47790 WT2  9069 TIP3 H1   HT     0.417000        1.0080           0
   47791 WT2  9069 TIP3 H2   HT     0.417000        1.0080           0
   47792 WT2  9070 TIP3 OH2  OT    -0.834000       15.9994           0
   47793 WT2  9070 TIP3 H1   HT     0.417000        1.0080           0
   47794 WT2  9070 TIP3 H2   HT     0.417000        1.0080           0
   47795 WT2  9071 TIP3 OH2  OT    -0.834000       15.9994           0
   47796 WT2  9071 TIP3 H1   HT     0.417000        1.0080           0
   47797 WT2  9071 TIP3 H2   HT     0.417000        1.0080           0
   47798 WT2  9072 TIP3 OH2  OT    -0.834000       15.9994           0
   47799 WT2  9072 TIP3 H1   HT     0.417000        1.0080           0
   47800 WT2  9072 TIP3 H2   HT     0.417000        1.0080           0
   47801 WT2  9073 TIP3 OH2  OT    -0.834000       15.9994           0
   47802 WT2  9073 TIP3 H1   HT     0.417000        1.0080           0
   47803 WT2  9073 TIP3 H2   HT     0.417000        1.0080           0
   47804 WT2  9074 TIP3 OH2  OT    -0.834000       15.9994           0
   47805 WT2  9074 TIP3 H1   HT     0.417000        1.0080           0
   47806 WT2  9074 TIP3 H2   HT     0.417000        1.0080           0
   47807 WT2  9075 TIP3 OH2  OT    -0.834000       15.9994           0
   47808 WT2  9075 TIP3 H1   HT     0.417000        1.0080           0
   47809 WT2  9075 TIP3 H2   HT     0.417000        1.0080           0
   47810 WT2  9076 TIP3 OH2  OT    -0.834000       15.9994           0
   47811 WT2  9076 TIP3 H1   HT     0.417000        1.0080           0
   47812 WT2  9076 TIP3 H2   HT     0.417000        1.0080           0
   47813 WT2  9078 TIP3 OH2  OT    -0.834000       15.9994           0
   47814 WT2  9078 TIP3 H1   HT     0.417000        1.0080           0
   47815 WT2  9078 TIP3 H2   HT     0.417000        1.0080           0
   47816 WT2  9079 TIP3 OH2  OT    -0.834000       15.9994           0
   47817 WT2  9079 TIP3 H1   HT     0.417000        1.0080           0
   47818 WT2  9079 TIP3 H2   HT     0.417000        1.0080           0
   47819 WT2  9080 TIP3 OH2  OT    -0.834000       15.9994           0
   47820 WT2  9080 TIP3 H1   HT     0.417000        1.0080           0
   47821 WT2  9080 TIP3 H2   HT     0.417000        1.0080           0
   47822 WT2  9081 TIP3 OH2  OT    -0.834000       15.9994           0
   47823 WT2  9081 TIP3 H1   HT     0.417000        1.0080           0
   47824 WT2  9081 TIP3 H2   HT     0.417000        1.0080           0
   47825 WT2  9082 TIP3 OH2  OT    -0.834000       15.9994           0
   47826 WT2  9082 TIP3 H1   HT     0.417000        1.0080           0
   47827 WT2  9082 TIP3 H2   HT     0.417000        1.0080           0
   47828 WT2  9084 TIP3 OH2  OT    -0.834000       15.9994           0
   47829 WT2  9084 TIP3 H1   HT     0.417000        1.0080           0
   47830 WT2  9084 TIP3 H2   HT     0.417000        1.0080           0
   47831 WT2  9086 TIP3 OH2  OT    -0.834000       15.9994           0
   47832 WT2  9086 TIP3 H1   HT     0.417000        1.0080           0
   47833 WT2  9086 TIP3 H2   HT     0.417000        1.0080           0
   47834 WT2  9088 TIP3 OH2  OT    -0.834000       15.9994           0
   47835 WT2  9088 TIP3 H1   HT     0.417000        1.0080           0
   47836 WT2  9088 TIP3 H2   HT     0.417000        1.0080           0
   47837 WT2  9089 TIP3 OH2  OT    -0.834000       15.9994           0
   47838 WT2  9089 TIP3 H1   HT     0.417000        1.0080           0
   47839 WT2  9089 TIP3 H2   HT     0.417000        1.0080           0
   47840 WT2  9090 TIP3 OH2  OT    -0.834000       15.9994           0
   47841 WT2  9090 TIP3 H1   HT     0.417000        1.0080           0
   47842 WT2  9090 TIP3 H2   HT     0.417000        1.0080           0
   47843 WT2  9091 TIP3 OH2  OT    -0.834000       15.9994           0
   47844 WT2  9091 TIP3 H1   HT     0.417000        1.0080           0
   47845 WT2  9091 TIP3 H2   HT     0.417000        1.0080           0
   47846 WT2  9092 TIP3 OH2  OT    -0.834000       15.9994           0
   47847 WT2  9092 TIP3 H1   HT     0.417000        1.0080           0
   47848 WT2  9092 TIP3 H2   HT     0.417000        1.0080           0
   47849 WT2  9094 TIP3 OH2  OT    -0.834000       15.9994           0
   47850 WT2  9094 TIP3 H1   HT     0.417000        1.0080           0
   47851 WT2  9094 TIP3 H2   HT     0.417000        1.0080           0
   47852 WT2  9095 TIP3 OH2  OT    -0.834000       15.9994           0
   47853 WT2  9095 TIP3 H1   HT     0.417000        1.0080           0
   47854 WT2  9095 TIP3 H2   HT     0.417000        1.0080           0
   47855 WT2  9096 TIP3 OH2  OT    -0.834000       15.9994           0
   47856 WT2  9096 TIP3 H1   HT     0.417000        1.0080           0
   47857 WT2  9096 TIP3 H2   HT     0.417000        1.0080           0
   47858 WT2  9097 TIP3 OH2  OT    -0.834000       15.9994           0
   47859 WT2  9097 TIP3 H1   HT     0.417000        1.0080           0
   47860 WT2  9097 TIP3 H2   HT     0.417000        1.0080           0
   47861 WT2  9098 TIP3 OH2  OT    -0.834000       15.9994           0
   47862 WT2  9098 TIP3 H1   HT     0.417000        1.0080           0
   47863 WT2  9098 TIP3 H2   HT     0.417000        1.0080           0
   47864 WT2  9099 TIP3 OH2  OT    -0.834000       15.9994           0
   47865 WT2  9099 TIP3 H1   HT     0.417000        1.0080           0
   47866 WT2  9099 TIP3 H2   HT     0.417000        1.0080           0
   47867 WT2  9100 TIP3 OH2  OT    -0.834000       15.9994           0
   47868 WT2  9100 TIP3 H1   HT     0.417000        1.0080           0
   47869 WT2  9100 TIP3 H2   HT     0.417000        1.0080           0
   47870 WT2  9101 TIP3 OH2  OT    -0.834000       15.9994           0
   47871 WT2  9101 TIP3 H1   HT     0.417000        1.0080           0
   47872 WT2  9101 TIP3 H2   HT     0.417000        1.0080           0
   47873 WT2  9102 TIP3 OH2  OT    -0.834000       15.9994           0
   47874 WT2  9102 TIP3 H1   HT     0.417000        1.0080           0
   47875 WT2  9102 TIP3 H2   HT     0.417000        1.0080           0
   47876 WT2  9103 TIP3 OH2  OT    -0.834000       15.9994           0
   47877 WT2  9103 TIP3 H1   HT     0.417000        1.0080           0
   47878 WT2  9103 TIP3 H2   HT     0.417000        1.0080           0
   47879 WT2  9104 TIP3 OH2  OT    -0.834000       15.9994           0
   47880 WT2  9104 TIP3 H1   HT     0.417000        1.0080           0
   47881 WT2  9104 TIP3 H2   HT     0.417000        1.0080           0
   47882 WT2  9105 TIP3 OH2  OT    -0.834000       15.9994           0
   47883 WT2  9105 TIP3 H1   HT     0.417000        1.0080           0
   47884 WT2  9105 TIP3 H2   HT     0.417000        1.0080           0
   47885 WT2  9107 TIP3 OH2  OT    -0.834000       15.9994           0
   47886 WT2  9107 TIP3 H1   HT     0.417000        1.0080           0
   47887 WT2  9107 TIP3 H2   HT     0.417000        1.0080           0
   47888 WT2  9108 TIP3 OH2  OT    -0.834000       15.9994           0
   47889 WT2  9108 TIP3 H1   HT     0.417000        1.0080           0
   47890 WT2  9108 TIP3 H2   HT     0.417000        1.0080           0
   47891 WT2  9110 TIP3 OH2  OT    -0.834000       15.9994           0
   47892 WT2  9110 TIP3 H1   HT     0.417000        1.0080           0
   47893 WT2  9110 TIP3 H2   HT     0.417000        1.0080           0
   47894 WT2  9111 TIP3 OH2  OT    -0.834000       15.9994           0
   47895 WT2  9111 TIP3 H1   HT     0.417000        1.0080           0
   47896 WT2  9111 TIP3 H2   HT     0.417000        1.0080           0
   47897 WT2  9112 TIP3 OH2  OT    -0.834000       15.9994           0
   47898 WT2  9112 TIP3 H1   HT     0.417000        1.0080           0
   47899 WT2  9112 TIP3 H2   HT     0.417000        1.0080           0
   47900 WT2  9113 TIP3 OH2  OT    -0.834000       15.9994           0
   47901 WT2  9113 TIP3 H1   HT     0.417000        1.0080           0
   47902 WT2  9113 TIP3 H2   HT     0.417000        1.0080           0
   47903 WT2  9114 TIP3 OH2  OT    -0.834000       15.9994           0
   47904 WT2  9114 TIP3 H1   HT     0.417000        1.0080           0
   47905 WT2  9114 TIP3 H2   HT     0.417000        1.0080           0
   47906 WT2  9115 TIP3 OH2  OT    -0.834000       15.9994           0
   47907 WT2  9115 TIP3 H1   HT     0.417000        1.0080           0
   47908 WT2  9115 TIP3 H2   HT     0.417000        1.0080           0
   47909 WT2  9116 TIP3 OH2  OT    -0.834000       15.9994           0
   47910 WT2  9116 TIP3 H1   HT     0.417000        1.0080           0
   47911 WT2  9116 TIP3 H2   HT     0.417000        1.0080           0
   47912 WT2  9117 TIP3 OH2  OT    -0.834000       15.9994           0
   47913 WT2  9117 TIP3 H1   HT     0.417000        1.0080           0
   47914 WT2  9117 TIP3 H2   HT     0.417000        1.0080           0
   47915 WT2  9118 TIP3 OH2  OT    -0.834000       15.9994           0
   47916 WT2  9118 TIP3 H1   HT     0.417000        1.0080           0
   47917 WT2  9118 TIP3 H2   HT     0.417000        1.0080           0
   47918 WT2  9119 TIP3 OH2  OT    -0.834000       15.9994           0
   47919 WT2  9119 TIP3 H1   HT     0.417000        1.0080           0
   47920 WT2  9119 TIP3 H2   HT     0.417000        1.0080           0
   47921 WT2  9120 TIP3 OH2  OT    -0.834000       15.9994           0
   47922 WT2  9120 TIP3 H1   HT     0.417000        1.0080           0
   47923 WT2  9120 TIP3 H2   HT     0.417000        1.0080           0
   47924 WT2  9121 TIP3 OH2  OT    -0.834000       15.9994           0
   47925 WT2  9121 TIP3 H1   HT     0.417000        1.0080           0
   47926 WT2  9121 TIP3 H2   HT     0.417000        1.0080           0
   47927 WT2  9122 TIP3 OH2  OT    -0.834000       15.9994           0
   47928 WT2  9122 TIP3 H1   HT     0.417000        1.0080           0
   47929 WT2  9122 TIP3 H2   HT     0.417000        1.0080           0
   47930 WT2  9123 TIP3 OH2  OT    -0.834000       15.9994           0
   47931 WT2  9123 TIP3 H1   HT     0.417000        1.0080           0
   47932 WT2  9123 TIP3 H2   HT     0.417000        1.0080           0
   47933 WT2  9124 TIP3 OH2  OT    -0.834000       15.9994           0
   47934 WT2  9124 TIP3 H1   HT     0.417000        1.0080           0
   47935 WT2  9124 TIP3 H2   HT     0.417000        1.0080           0
   47936 WT2  9125 TIP3 OH2  OT    -0.834000       15.9994           0
   47937 WT2  9125 TIP3 H1   HT     0.417000        1.0080           0
   47938 WT2  9125 TIP3 H2   HT     0.417000        1.0080           0
   47939 WT2  9127 TIP3 OH2  OT    -0.834000       15.9994           0
   47940 WT2  9127 TIP3 H1   HT     0.417000        1.0080           0
   47941 WT2  9127 TIP3 H2   HT     0.417000        1.0080           0
   47942 WT2  9129 TIP3 OH2  OT    -0.834000       15.9994           0
   47943 WT2  9129 TIP3 H1   HT     0.417000        1.0080           0
   47944 WT2  9129 TIP3 H2   HT     0.417000        1.0080           0
   47945 WT2  9130 TIP3 OH2  OT    -0.834000       15.9994           0
   47946 WT2  9130 TIP3 H1   HT     0.417000        1.0080           0
   47947 WT2  9130 TIP3 H2   HT     0.417000        1.0080           0
   47948 WT2  9132 TIP3 OH2  OT    -0.834000       15.9994           0
   47949 WT2  9132 TIP3 H1   HT     0.417000        1.0080           0
   47950 WT2  9132 TIP3 H2   HT     0.417000        1.0080           0
   47951 WT2  9134 TIP3 OH2  OT    -0.834000       15.9994           0
   47952 WT2  9134 TIP3 H1   HT     0.417000        1.0080           0
   47953 WT2  9134 TIP3 H2   HT     0.417000        1.0080           0
   47954 WT2  9135 TIP3 OH2  OT    -0.834000       15.9994           0
   47955 WT2  9135 TIP3 H1   HT     0.417000        1.0080           0
   47956 WT2  9135 TIP3 H2   HT     0.417000        1.0080           0
   47957 WT2  9136 TIP3 OH2  OT    -0.834000       15.9994           0
   47958 WT2  9136 TIP3 H1   HT     0.417000        1.0080           0
   47959 WT2  9136 TIP3 H2   HT     0.417000        1.0080           0
   47960 WT2  9138 TIP3 OH2  OT    -0.834000       15.9994           0
   47961 WT2  9138 TIP3 H1   HT     0.417000        1.0080           0
   47962 WT2  9138 TIP3 H2   HT     0.417000        1.0080           0
   47963 WT2  9139 TIP3 OH2  OT    -0.834000       15.9994           0
   47964 WT2  9139 TIP3 H1   HT     0.417000        1.0080           0
   47965 WT2  9139 TIP3 H2   HT     0.417000        1.0080           0
   47966 WT2  9140 TIP3 OH2  OT    -0.834000       15.9994           0
   47967 WT2  9140 TIP3 H1   HT     0.417000        1.0080           0
   47968 WT2  9140 TIP3 H2   HT     0.417000        1.0080           0
   47969 WT2  9141 TIP3 OH2  OT    -0.834000       15.9994           0
   47970 WT2  9141 TIP3 H1   HT     0.417000        1.0080           0
   47971 WT2  9141 TIP3 H2   HT     0.417000        1.0080           0
   47972 WT2  9142 TIP3 OH2  OT    -0.834000       15.9994           0
   47973 WT2  9142 TIP3 H1   HT     0.417000        1.0080           0
   47974 WT2  9142 TIP3 H2   HT     0.417000        1.0080           0
   47975 WT2  9144 TIP3 OH2  OT    -0.834000       15.9994           0
   47976 WT2  9144 TIP3 H1   HT     0.417000        1.0080           0
   47977 WT2  9144 TIP3 H2   HT     0.417000        1.0080           0
   47978 WT2  9145 TIP3 OH2  OT    -0.834000       15.9994           0
   47979 WT2  9145 TIP3 H1   HT     0.417000        1.0080           0
   47980 WT2  9145 TIP3 H2   HT     0.417000        1.0080           0
   47981 WT2  9146 TIP3 OH2  OT    -0.834000       15.9994           0
   47982 WT2  9146 TIP3 H1   HT     0.417000        1.0080           0
   47983 WT2  9146 TIP3 H2   HT     0.417000        1.0080           0
   47984 WT2  9147 TIP3 OH2  OT    -0.834000       15.9994           0
   47985 WT2  9147 TIP3 H1   HT     0.417000        1.0080           0
   47986 WT2  9147 TIP3 H2   HT     0.417000        1.0080           0
   47987 WT2  9149 TIP3 OH2  OT    -0.834000       15.9994           0
   47988 WT2  9149 TIP3 H1   HT     0.417000        1.0080           0
   47989 WT2  9149 TIP3 H2   HT     0.417000        1.0080           0
   47990 WT2  9150 TIP3 OH2  OT    -0.834000       15.9994           0
   47991 WT2  9150 TIP3 H1   HT     0.417000        1.0080           0
   47992 WT2  9150 TIP3 H2   HT     0.417000        1.0080           0
   47993 WT2  9152 TIP3 OH2  OT    -0.834000       15.9994           0
   47994 WT2  9152 TIP3 H1   HT     0.417000        1.0080           0
   47995 WT2  9152 TIP3 H2   HT     0.417000        1.0080           0
   47996 WT2  9154 TIP3 OH2  OT    -0.834000       15.9994           0
   47997 WT2  9154 TIP3 H1   HT     0.417000        1.0080           0
   47998 WT2  9154 TIP3 H2   HT     0.417000        1.0080           0
   47999 WT2  9155 TIP3 OH2  OT    -0.834000       15.9994           0
   48000 WT2  9155 TIP3 H1   HT     0.417000        1.0080           0
   48001 WT2  9155 TIP3 H2   HT     0.417000        1.0080           0
   48002 WT2  9156 TIP3 OH2  OT    -0.834000       15.9994           0
   48003 WT2  9156 TIP3 H1   HT     0.417000        1.0080           0
   48004 WT2  9156 TIP3 H2   HT     0.417000        1.0080           0
   48005 WT2  9157 TIP3 OH2  OT    -0.834000       15.9994           0
   48006 WT2  9157 TIP3 H1   HT     0.417000        1.0080           0
   48007 WT2  9157 TIP3 H2   HT     0.417000        1.0080           0
   48008 WT2  9158 TIP3 OH2  OT    -0.834000       15.9994           0
   48009 WT2  9158 TIP3 H1   HT     0.417000        1.0080           0
   48010 WT2  9158 TIP3 H2   HT     0.417000        1.0080           0
   48011 WT2  9159 TIP3 OH2  OT    -0.834000       15.9994           0
   48012 WT2  9159 TIP3 H1   HT     0.417000        1.0080           0
   48013 WT2  9159 TIP3 H2   HT     0.417000        1.0080           0
   48014 WT2  9160 TIP3 OH2  OT    -0.834000       15.9994           0
   48015 WT2  9160 TIP3 H1   HT     0.417000        1.0080           0
   48016 WT2  9160 TIP3 H2   HT     0.417000        1.0080           0
   48017 WT2  9161 TIP3 OH2  OT    -0.834000       15.9994           0
   48018 WT2  9161 TIP3 H1   HT     0.417000        1.0080           0
   48019 WT2  9161 TIP3 H2   HT     0.417000        1.0080           0
   48020 WT2  9162 TIP3 OH2  OT    -0.834000       15.9994           0
   48021 WT2  9162 TIP3 H1   HT     0.417000        1.0080           0
   48022 WT2  9162 TIP3 H2   HT     0.417000        1.0080           0
   48023 WT2  9163 TIP3 OH2  OT    -0.834000       15.9994           0
   48024 WT2  9163 TIP3 H1   HT     0.417000        1.0080           0
   48025 WT2  9163 TIP3 H2   HT     0.417000        1.0080           0
   48026 WT2  9164 TIP3 OH2  OT    -0.834000       15.9994           0
   48027 WT2  9164 TIP3 H1   HT     0.417000        1.0080           0
   48028 WT2  9164 TIP3 H2   HT     0.417000        1.0080           0
   48029 WT2  9165 TIP3 OH2  OT    -0.834000       15.9994           0
   48030 WT2  9165 TIP3 H1   HT     0.417000        1.0080           0
   48031 WT2  9165 TIP3 H2   HT     0.417000        1.0080           0
   48032 WT2  9166 TIP3 OH2  OT    -0.834000       15.9994           0
   48033 WT2  9166 TIP3 H1   HT     0.417000        1.0080           0
   48034 WT2  9166 TIP3 H2   HT     0.417000        1.0080           0
   48035 WT2  9167 TIP3 OH2  OT    -0.834000       15.9994           0
   48036 WT2  9167 TIP3 H1   HT     0.417000        1.0080           0
   48037 WT2  9167 TIP3 H2   HT     0.417000        1.0080           0
   48038 WT2  9168 TIP3 OH2  OT    -0.834000       15.9994           0
   48039 WT2  9168 TIP3 H1   HT     0.417000        1.0080           0
   48040 WT2  9168 TIP3 H2   HT     0.417000        1.0080           0
   48041 WT2  9169 TIP3 OH2  OT    -0.834000       15.9994           0
   48042 WT2  9169 TIP3 H1   HT     0.417000        1.0080           0
   48043 WT2  9169 TIP3 H2   HT     0.417000        1.0080           0
   48044 WT2  9170 TIP3 OH2  OT    -0.834000       15.9994           0
   48045 WT2  9170 TIP3 H1   HT     0.417000        1.0080           0
   48046 WT2  9170 TIP3 H2   HT     0.417000        1.0080           0
   48047 WT2  9171 TIP3 OH2  OT    -0.834000       15.9994           0
   48048 WT2  9171 TIP3 H1   HT     0.417000        1.0080           0
   48049 WT2  9171 TIP3 H2   HT     0.417000        1.0080           0
   48050 WT2  9172 TIP3 OH2  OT    -0.834000       15.9994           0
   48051 WT2  9172 TIP3 H1   HT     0.417000        1.0080           0
   48052 WT2  9172 TIP3 H2   HT     0.417000        1.0080           0
   48053 WT2  9173 TIP3 OH2  OT    -0.834000       15.9994           0
   48054 WT2  9173 TIP3 H1   HT     0.417000        1.0080           0
   48055 WT2  9173 TIP3 H2   HT     0.417000        1.0080           0
   48056 WT2  9174 TIP3 OH2  OT    -0.834000       15.9994           0
   48057 WT2  9174 TIP3 H1   HT     0.417000        1.0080           0
   48058 WT2  9174 TIP3 H2   HT     0.417000        1.0080           0
   48059 WT2  9175 TIP3 OH2  OT    -0.834000       15.9994           0
   48060 WT2  9175 TIP3 H1   HT     0.417000        1.0080           0
   48061 WT2  9175 TIP3 H2   HT     0.417000        1.0080           0
   48062 WT2  9176 TIP3 OH2  OT    -0.834000       15.9994           0
   48063 WT2  9176 TIP3 H1   HT     0.417000        1.0080           0
   48064 WT2  9176 TIP3 H2   HT     0.417000        1.0080           0
   48065 WT2  9177 TIP3 OH2  OT    -0.834000       15.9994           0
   48066 WT2  9177 TIP3 H1   HT     0.417000        1.0080           0
   48067 WT2  9177 TIP3 H2   HT     0.417000        1.0080           0
   48068 WT2  9178 TIP3 OH2  OT    -0.834000       15.9994           0
   48069 WT2  9178 TIP3 H1   HT     0.417000        1.0080           0
   48070 WT2  9178 TIP3 H2   HT     0.417000        1.0080           0
   48071 WT2  9179 TIP3 OH2  OT    -0.834000       15.9994           0
   48072 WT2  9179 TIP3 H1   HT     0.417000        1.0080           0
   48073 WT2  9179 TIP3 H2   HT     0.417000        1.0080           0
   48074 WT2  9180 TIP3 OH2  OT    -0.834000       15.9994           0
   48075 WT2  9180 TIP3 H1   HT     0.417000        1.0080           0
   48076 WT2  9180 TIP3 H2   HT     0.417000        1.0080           0
   48077 WT2  9182 TIP3 OH2  OT    -0.834000       15.9994           0
   48078 WT2  9182 TIP3 H1   HT     0.417000        1.0080           0
   48079 WT2  9182 TIP3 H2   HT     0.417000        1.0080           0
   48080 WT2  9183 TIP3 OH2  OT    -0.834000       15.9994           0
   48081 WT2  9183 TIP3 H1   HT     0.417000        1.0080           0
   48082 WT2  9183 TIP3 H2   HT     0.417000        1.0080           0
   48083 WT2  9184 TIP3 OH2  OT    -0.834000       15.9994           0
   48084 WT2  9184 TIP3 H1   HT     0.417000        1.0080           0
   48085 WT2  9184 TIP3 H2   HT     0.417000        1.0080           0
   48086 WT2  9185 TIP3 OH2  OT    -0.834000       15.9994           0
   48087 WT2  9185 TIP3 H1   HT     0.417000        1.0080           0
   48088 WT2  9185 TIP3 H2   HT     0.417000        1.0080           0
   48089 WT2  9187 TIP3 OH2  OT    -0.834000       15.9994           0
   48090 WT2  9187 TIP3 H1   HT     0.417000        1.0080           0
   48091 WT2  9187 TIP3 H2   HT     0.417000        1.0080           0
   48092 WT2  9189 TIP3 OH2  OT    -0.834000       15.9994           0
   48093 WT2  9189 TIP3 H1   HT     0.417000        1.0080           0
   48094 WT2  9189 TIP3 H2   HT     0.417000        1.0080           0
   48095 WT2  9191 TIP3 OH2  OT    -0.834000       15.9994           0
   48096 WT2  9191 TIP3 H1   HT     0.417000        1.0080           0
   48097 WT2  9191 TIP3 H2   HT     0.417000        1.0080           0
   48098 WT2  9192 TIP3 OH2  OT    -0.834000       15.9994           0
   48099 WT2  9192 TIP3 H1   HT     0.417000        1.0080           0
   48100 WT2  9192 TIP3 H2   HT     0.417000        1.0080           0
   48101 WT2  9193 TIP3 OH2  OT    -0.834000       15.9994           0
   48102 WT2  9193 TIP3 H1   HT     0.417000        1.0080           0
   48103 WT2  9193 TIP3 H2   HT     0.417000        1.0080           0
   48104 WT2  9194 TIP3 OH2  OT    -0.834000       15.9994           0
   48105 WT2  9194 TIP3 H1   HT     0.417000        1.0080           0
   48106 WT2  9194 TIP3 H2   HT     0.417000        1.0080           0
   48107 WT2  9195 TIP3 OH2  OT    -0.834000       15.9994           0
   48108 WT2  9195 TIP3 H1   HT     0.417000        1.0080           0
   48109 WT2  9195 TIP3 H2   HT     0.417000        1.0080           0
   48110 WT2  9196 TIP3 OH2  OT    -0.834000       15.9994           0
   48111 WT2  9196 TIP3 H1   HT     0.417000        1.0080           0
   48112 WT2  9196 TIP3 H2   HT     0.417000        1.0080           0
   48113 WT2  9197 TIP3 OH2  OT    -0.834000       15.9994           0
   48114 WT2  9197 TIP3 H1   HT     0.417000        1.0080           0
   48115 WT2  9197 TIP3 H2   HT     0.417000        1.0080           0
   48116 WT2  9198 TIP3 OH2  OT    -0.834000       15.9994           0
   48117 WT2  9198 TIP3 H1   HT     0.417000        1.0080           0
   48118 WT2  9198 TIP3 H2   HT     0.417000        1.0080           0
   48119 WT2  9199 TIP3 OH2  OT    -0.834000       15.9994           0
   48120 WT2  9199 TIP3 H1   HT     0.417000        1.0080           0
   48121 WT2  9199 TIP3 H2   HT     0.417000        1.0080           0
   48122 WT2  9201 TIP3 OH2  OT    -0.834000       15.9994           0
   48123 WT2  9201 TIP3 H1   HT     0.417000        1.0080           0
   48124 WT2  9201 TIP3 H2   HT     0.417000        1.0080           0
   48125 WT2  9202 TIP3 OH2  OT    -0.834000       15.9994           0
   48126 WT2  9202 TIP3 H1   HT     0.417000        1.0080           0
   48127 WT2  9202 TIP3 H2   HT     0.417000        1.0080           0
   48128 WT2  9203 TIP3 OH2  OT    -0.834000       15.9994           0
   48129 WT2  9203 TIP3 H1   HT     0.417000        1.0080           0
   48130 WT2  9203 TIP3 H2   HT     0.417000        1.0080           0
   48131 WT2  9204 TIP3 OH2  OT    -0.834000       15.9994           0
   48132 WT2  9204 TIP3 H1   HT     0.417000        1.0080           0
   48133 WT2  9204 TIP3 H2   HT     0.417000        1.0080           0
   48134 WT2  9205 TIP3 OH2  OT    -0.834000       15.9994           0
   48135 WT2  9205 TIP3 H1   HT     0.417000        1.0080           0
   48136 WT2  9205 TIP3 H2   HT     0.417000        1.0080           0
   48137 WT2  9206 TIP3 OH2  OT    -0.834000       15.9994           0
   48138 WT2  9206 TIP3 H1   HT     0.417000        1.0080           0
   48139 WT2  9206 TIP3 H2   HT     0.417000        1.0080           0
   48140 WT2  9207 TIP3 OH2  OT    -0.834000       15.9994           0
   48141 WT2  9207 TIP3 H1   HT     0.417000        1.0080           0
   48142 WT2  9207 TIP3 H2   HT     0.417000        1.0080           0
   48143 WT2  9208 TIP3 OH2  OT    -0.834000       15.9994           0
   48144 WT2  9208 TIP3 H1   HT     0.417000        1.0080           0
   48145 WT2  9208 TIP3 H2   HT     0.417000        1.0080           0
   48146 WT2  9209 TIP3 OH2  OT    -0.834000       15.9994           0
   48147 WT2  9209 TIP3 H1   HT     0.417000        1.0080           0
   48148 WT2  9209 TIP3 H2   HT     0.417000        1.0080           0
   48149 WT2  9210 TIP3 OH2  OT    -0.834000       15.9994           0
   48150 WT2  9210 TIP3 H1   HT     0.417000        1.0080           0
   48151 WT2  9210 TIP3 H2   HT     0.417000        1.0080           0
   48152 WT2  9211 TIP3 OH2  OT    -0.834000       15.9994           0
   48153 WT2  9211 TIP3 H1   HT     0.417000        1.0080           0
   48154 WT2  9211 TIP3 H2   HT     0.417000        1.0080           0
   48155 WT2  9212 TIP3 OH2  OT    -0.834000       15.9994           0
   48156 WT2  9212 TIP3 H1   HT     0.417000        1.0080           0
   48157 WT2  9212 TIP3 H2   HT     0.417000        1.0080           0
   48158 WT2  9213 TIP3 OH2  OT    -0.834000       15.9994           0
   48159 WT2  9213 TIP3 H1   HT     0.417000        1.0080           0
   48160 WT2  9213 TIP3 H2   HT     0.417000        1.0080           0
   48161 WT2  9214 TIP3 OH2  OT    -0.834000       15.9994           0
   48162 WT2  9214 TIP3 H1   HT     0.417000        1.0080           0
   48163 WT2  9214 TIP3 H2   HT     0.417000        1.0080           0
   48164 WT2  9215 TIP3 OH2  OT    -0.834000       15.9994           0
   48165 WT2  9215 TIP3 H1   HT     0.417000        1.0080           0
   48166 WT2  9215 TIP3 H2   HT     0.417000        1.0080           0
   48167 WT2  9216 TIP3 OH2  OT    -0.834000       15.9994           0
   48168 WT2  9216 TIP3 H1   HT     0.417000        1.0080           0
   48169 WT2  9216 TIP3 H2   HT     0.417000        1.0080           0
   48170 WT2  9217 TIP3 OH2  OT    -0.834000       15.9994           0
   48171 WT2  9217 TIP3 H1   HT     0.417000        1.0080           0
   48172 WT2  9217 TIP3 H2   HT     0.417000        1.0080           0
   48173 WT2  9218 TIP3 OH2  OT    -0.834000       15.9994           0
   48174 WT2  9218 TIP3 H1   HT     0.417000        1.0080           0
   48175 WT2  9218 TIP3 H2   HT     0.417000        1.0080           0
   48176 WT2  9219 TIP3 OH2  OT    -0.834000       15.9994           0
   48177 WT2  9219 TIP3 H1   HT     0.417000        1.0080           0
   48178 WT2  9219 TIP3 H2   HT     0.417000        1.0080           0
   48179 WT2  9220 TIP3 OH2  OT    -0.834000       15.9994           0
   48180 WT2  9220 TIP3 H1   HT     0.417000        1.0080           0
   48181 WT2  9220 TIP3 H2   HT     0.417000        1.0080           0
   48182 WT2  9221 TIP3 OH2  OT    -0.834000       15.9994           0
   48183 WT2  9221 TIP3 H1   HT     0.417000        1.0080           0
   48184 WT2  9221 TIP3 H2   HT     0.417000        1.0080           0
   48185 WT2  9222 TIP3 OH2  OT    -0.834000       15.9994           0
   48186 WT2  9222 TIP3 H1   HT     0.417000        1.0080           0
   48187 WT2  9222 TIP3 H2   HT     0.417000        1.0080           0
   48188 WT2  9223 TIP3 OH2  OT    -0.834000       15.9994           0
   48189 WT2  9223 TIP3 H1   HT     0.417000        1.0080           0
   48190 WT2  9223 TIP3 H2   HT     0.417000        1.0080           0
   48191 WT2  9224 TIP3 OH2  OT    -0.834000       15.9994           0
   48192 WT2  9224 TIP3 H1   HT     0.417000        1.0080           0
   48193 WT2  9224 TIP3 H2   HT     0.417000        1.0080           0
   48194 WT2  9225 TIP3 OH2  OT    -0.834000       15.9994           0
   48195 WT2  9225 TIP3 H1   HT     0.417000        1.0080           0
   48196 WT2  9225 TIP3 H2   HT     0.417000        1.0080           0
   48197 WT2  9226 TIP3 OH2  OT    -0.834000       15.9994           0
   48198 WT2  9226 TIP3 H1   HT     0.417000        1.0080           0
   48199 WT2  9226 TIP3 H2   HT     0.417000        1.0080           0
   48200 WT2  9227 TIP3 OH2  OT    -0.834000       15.9994           0
   48201 WT2  9227 TIP3 H1   HT     0.417000        1.0080           0
   48202 WT2  9227 TIP3 H2   HT     0.417000        1.0080           0
   48203 WT2  9228 TIP3 OH2  OT    -0.834000       15.9994           0
   48204 WT2  9228 TIP3 H1   HT     0.417000        1.0080           0
   48205 WT2  9228 TIP3 H2   HT     0.417000        1.0080           0
   48206 WT2  9229 TIP3 OH2  OT    -0.834000       15.9994           0
   48207 WT2  9229 TIP3 H1   HT     0.417000        1.0080           0
   48208 WT2  9229 TIP3 H2   HT     0.417000        1.0080           0
   48209 WT2  9230 TIP3 OH2  OT    -0.834000       15.9994           0
   48210 WT2  9230 TIP3 H1   HT     0.417000        1.0080           0
   48211 WT2  9230 TIP3 H2   HT     0.417000        1.0080           0
   48212 WT2  9231 TIP3 OH2  OT    -0.834000       15.9994           0
   48213 WT2  9231 TIP3 H1   HT     0.417000        1.0080           0
   48214 WT2  9231 TIP3 H2   HT     0.417000        1.0080           0
   48215 WT2  9233 TIP3 OH2  OT    -0.834000       15.9994           0
   48216 WT2  9233 TIP3 H1   HT     0.417000        1.0080           0
   48217 WT2  9233 TIP3 H2   HT     0.417000        1.0080           0
   48218 WT2  9235 TIP3 OH2  OT    -0.834000       15.9994           0
   48219 WT2  9235 TIP3 H1   HT     0.417000        1.0080           0
   48220 WT2  9235 TIP3 H2   HT     0.417000        1.0080           0
   48221 WT2  9236 TIP3 OH2  OT    -0.834000       15.9994           0
   48222 WT2  9236 TIP3 H1   HT     0.417000        1.0080           0
   48223 WT2  9236 TIP3 H2   HT     0.417000        1.0080           0
   48224 WT2  9237 TIP3 OH2  OT    -0.834000       15.9994           0
   48225 WT2  9237 TIP3 H1   HT     0.417000        1.0080           0
   48226 WT2  9237 TIP3 H2   HT     0.417000        1.0080           0
   48227 WT2  9238 TIP3 OH2  OT    -0.834000       15.9994           0
   48228 WT2  9238 TIP3 H1   HT     0.417000        1.0080           0
   48229 WT2  9238 TIP3 H2   HT     0.417000        1.0080           0
   48230 WT2  9239 TIP3 OH2  OT    -0.834000       15.9994           0
   48231 WT2  9239 TIP3 H1   HT     0.417000        1.0080           0
   48232 WT2  9239 TIP3 H2   HT     0.417000        1.0080           0
   48233 WT2  9240 TIP3 OH2  OT    -0.834000       15.9994           0
   48234 WT2  9240 TIP3 H1   HT     0.417000        1.0080           0
   48235 WT2  9240 TIP3 H2   HT     0.417000        1.0080           0
   48236 WT2  9242 TIP3 OH2  OT    -0.834000       15.9994           0
   48237 WT2  9242 TIP3 H1   HT     0.417000        1.0080           0
   48238 WT2  9242 TIP3 H2   HT     0.417000        1.0080           0
   48239 WT2  9243 TIP3 OH2  OT    -0.834000       15.9994           0
   48240 WT2  9243 TIP3 H1   HT     0.417000        1.0080           0
   48241 WT2  9243 TIP3 H2   HT     0.417000        1.0080           0
   48242 WT2  9244 TIP3 OH2  OT    -0.834000       15.9994           0
   48243 WT2  9244 TIP3 H1   HT     0.417000        1.0080           0
   48244 WT2  9244 TIP3 H2   HT     0.417000        1.0080           0
   48245 WT2  9247 TIP3 OH2  OT    -0.834000       15.9994           0
   48246 WT2  9247 TIP3 H1   HT     0.417000        1.0080           0
   48247 WT2  9247 TIP3 H2   HT     0.417000        1.0080           0
   48248 WT2  9248 TIP3 OH2  OT    -0.834000       15.9994           0
   48249 WT2  9248 TIP3 H1   HT     0.417000        1.0080           0
   48250 WT2  9248 TIP3 H2   HT     0.417000        1.0080           0
   48251 WT2  9249 TIP3 OH2  OT    -0.834000       15.9994           0
   48252 WT2  9249 TIP3 H1   HT     0.417000        1.0080           0
   48253 WT2  9249 TIP3 H2   HT     0.417000        1.0080           0
   48254 WT2  9250 TIP3 OH2  OT    -0.834000       15.9994           0
   48255 WT2  9250 TIP3 H1   HT     0.417000        1.0080           0
   48256 WT2  9250 TIP3 H2   HT     0.417000        1.0080           0
   48257 WT2  9251 TIP3 OH2  OT    -0.834000       15.9994           0
   48258 WT2  9251 TIP3 H1   HT     0.417000        1.0080           0
   48259 WT2  9251 TIP3 H2   HT     0.417000        1.0080           0
   48260 WT2  9252 TIP3 OH2  OT    -0.834000       15.9994           0
   48261 WT2  9252 TIP3 H1   HT     0.417000        1.0080           0
   48262 WT2  9252 TIP3 H2   HT     0.417000        1.0080           0
   48263 WT2  9253 TIP3 OH2  OT    -0.834000       15.9994           0
   48264 WT2  9253 TIP3 H1   HT     0.417000        1.0080           0
   48265 WT2  9253 TIP3 H2   HT     0.417000        1.0080           0
   48266 WT2  9254 TIP3 OH2  OT    -0.834000       15.9994           0
   48267 WT2  9254 TIP3 H1   HT     0.417000        1.0080           0
   48268 WT2  9254 TIP3 H2   HT     0.417000        1.0080           0
   48269 WT2  9255 TIP3 OH2  OT    -0.834000       15.9994           0
   48270 WT2  9255 TIP3 H1   HT     0.417000        1.0080           0
   48271 WT2  9255 TIP3 H2   HT     0.417000        1.0080           0
   48272 WT2  9256 TIP3 OH2  OT    -0.834000       15.9994           0
   48273 WT2  9256 TIP3 H1   HT     0.417000        1.0080           0
   48274 WT2  9256 TIP3 H2   HT     0.417000        1.0080           0
   48275 WT2  9257 TIP3 OH2  OT    -0.834000       15.9994           0
   48276 WT2  9257 TIP3 H1   HT     0.417000        1.0080           0
   48277 WT2  9257 TIP3 H2   HT     0.417000        1.0080           0
   48278 WT2  9258 TIP3 OH2  OT    -0.834000       15.9994           0
   48279 WT2  9258 TIP3 H1   HT     0.417000        1.0080           0
   48280 WT2  9258 TIP3 H2   HT     0.417000        1.0080           0
   48281 WT2  9259 TIP3 OH2  OT    -0.834000       15.9994           0
   48282 WT2  9259 TIP3 H1   HT     0.417000        1.0080           0
   48283 WT2  9259 TIP3 H2   HT     0.417000        1.0080           0
   48284 WT2  9261 TIP3 OH2  OT    -0.834000       15.9994           0
   48285 WT2  9261 TIP3 H1   HT     0.417000        1.0080           0
   48286 WT2  9261 TIP3 H2   HT     0.417000        1.0080           0
   48287 WT3  2    TIP3 OH2  OT    -0.834000       15.9994           0
   48288 WT3  2    TIP3 H1   HT     0.417000        1.0080           0
   48289 WT3  2    TIP3 H2   HT     0.417000        1.0080           0
   48290 WT3  3    TIP3 OH2  OT    -0.834000       15.9994           0
   48291 WT3  3    TIP3 H1   HT     0.417000        1.0080           0
   48292 WT3  3    TIP3 H2   HT     0.417000        1.0080           0
   48293 WT3  4    TIP3 OH2  OT    -0.834000       15.9994           0
   48294 WT3  4    TIP3 H1   HT     0.417000        1.0080           0
   48295 WT3  4    TIP3 H2   HT     0.417000        1.0080           0
   48296 WT3  5    TIP3 OH2  OT    -0.834000       15.9994           0
   48297 WT3  5    TIP3 H1   HT     0.417000        1.0080           0
   48298 WT3  5    TIP3 H2   HT     0.417000        1.0080           0
   48299 WT3  7    TIP3 OH2  OT    -0.834000       15.9994           0
   48300 WT3  7    TIP3 H1   HT     0.417000        1.0080           0
   48301 WT3  7    TIP3 H2   HT     0.417000        1.0080           0
   48302 WT3  8    TIP3 OH2  OT    -0.834000       15.9994           0
   48303 WT3  8    TIP3 H1   HT     0.417000        1.0080           0
   48304 WT3  8    TIP3 H2   HT     0.417000        1.0080           0
   48305 WT3  9    TIP3 OH2  OT    -0.834000       15.9994           0
   48306 WT3  9    TIP3 H1   HT     0.417000        1.0080           0
   48307 WT3  9    TIP3 H2   HT     0.417000        1.0080           0
   48308 WT3  10   TIP3 OH2  OT    -0.834000       15.9994           0
   48309 WT3  10   TIP3 H1   HT     0.417000        1.0080           0
   48310 WT3  10   TIP3 H2   HT     0.417000        1.0080           0
   48311 WT3  11   TIP3 OH2  OT    -0.834000       15.9994           0
   48312 WT3  11   TIP3 H1   HT     0.417000        1.0080           0
   48313 WT3  11   TIP3 H2   HT     0.417000        1.0080           0
   48314 WT3  12   TIP3 OH2  OT    -0.834000       15.9994           0
   48315 WT3  12   TIP3 H1   HT     0.417000        1.0080           0
   48316 WT3  12   TIP3 H2   HT     0.417000        1.0080           0
   48317 WT3  15   TIP3 OH2  OT    -0.834000       15.9994           0
   48318 WT3  15   TIP3 H1   HT     0.417000        1.0080           0
   48319 WT3  15   TIP3 H2   HT     0.417000        1.0080           0
   48320 WT3  16   TIP3 OH2  OT    -0.834000       15.9994           0
   48321 WT3  16   TIP3 H1   HT     0.417000        1.0080           0
   48322 WT3  16   TIP3 H2   HT     0.417000        1.0080           0
   48323 WT3  22   TIP3 OH2  OT    -0.834000       15.9994           0
   48324 WT3  22   TIP3 H1   HT     0.417000        1.0080           0
   48325 WT3  22   TIP3 H2   HT     0.417000        1.0080           0
   48326 WT3  23   TIP3 OH2  OT    -0.834000       15.9994           0
   48327 WT3  23   TIP3 H1   HT     0.417000        1.0080           0
   48328 WT3  23   TIP3 H2   HT     0.417000        1.0080           0
   48329 WT3  24   TIP3 OH2  OT    -0.834000       15.9994           0
   48330 WT3  24   TIP3 H1   HT     0.417000        1.0080           0
   48331 WT3  24   TIP3 H2   HT     0.417000        1.0080           0
   48332 WT3  25   TIP3 OH2  OT    -0.834000       15.9994           0
   48333 WT3  25   TIP3 H1   HT     0.417000        1.0080           0
   48334 WT3  25   TIP3 H2   HT     0.417000        1.0080           0
   48335 WT3  26   TIP3 OH2  OT    -0.834000       15.9994           0
   48336 WT3  26   TIP3 H1   HT     0.417000        1.0080           0
   48337 WT3  26   TIP3 H2   HT     0.417000        1.0080           0
   48338 WT3  27   TIP3 OH2  OT    -0.834000       15.9994           0
   48339 WT3  27   TIP3 H1   HT     0.417000        1.0080           0
   48340 WT3  27   TIP3 H2   HT     0.417000        1.0080           0
   48341 WT3  28   TIP3 OH2  OT    -0.834000       15.9994           0
   48342 WT3  28   TIP3 H1   HT     0.417000        1.0080           0
   48343 WT3  28   TIP3 H2   HT     0.417000        1.0080           0
   48344 WT3  29   TIP3 OH2  OT    -0.834000       15.9994           0
   48345 WT3  29   TIP3 H1   HT     0.417000        1.0080           0
   48346 WT3  29   TIP3 H2   HT     0.417000        1.0080           0
   48347 WT3  30   TIP3 OH2  OT    -0.834000       15.9994           0
   48348 WT3  30   TIP3 H1   HT     0.417000        1.0080           0
   48349 WT3  30   TIP3 H2   HT     0.417000        1.0080           0
   48350 WT3  31   TIP3 OH2  OT    -0.834000       15.9994           0
   48351 WT3  31   TIP3 H1   HT     0.417000        1.0080           0
   48352 WT3  31   TIP3 H2   HT     0.417000        1.0080           0
   48353 WT3  32   TIP3 OH2  OT    -0.834000       15.9994           0
   48354 WT3  32   TIP3 H1   HT     0.417000        1.0080           0
   48355 WT3  32   TIP3 H2   HT     0.417000        1.0080           0
   48356 WT3  33   TIP3 OH2  OT    -0.834000       15.9994           0
   48357 WT3  33   TIP3 H1   HT     0.417000        1.0080           0
   48358 WT3  33   TIP3 H2   HT     0.417000        1.0080           0
   48359 WT3  35   TIP3 OH2  OT    -0.834000       15.9994           0
   48360 WT3  35   TIP3 H1   HT     0.417000        1.0080           0
   48361 WT3  35   TIP3 H2   HT     0.417000        1.0080           0
   48362 WT3  36   TIP3 OH2  OT    -0.834000       15.9994           0
   48363 WT3  36   TIP3 H1   HT     0.417000        1.0080           0
   48364 WT3  36   TIP3 H2   HT     0.417000        1.0080           0
   48365 WT3  38   TIP3 OH2  OT    -0.834000       15.9994           0
   48366 WT3  38   TIP3 H1   HT     0.417000        1.0080           0
   48367 WT3  38   TIP3 H2   HT     0.417000        1.0080           0
   48368 WT3  40   TIP3 OH2  OT    -0.834000       15.9994           0
   48369 WT3  40   TIP3 H1   HT     0.417000        1.0080           0
   48370 WT3  40   TIP3 H2   HT     0.417000        1.0080           0
   48371 WT3  43   TIP3 OH2  OT    -0.834000       15.9994           0
   48372 WT3  43   TIP3 H1   HT     0.417000        1.0080           0
   48373 WT3  43   TIP3 H2   HT     0.417000        1.0080           0
   48374 WT3  44   TIP3 OH2  OT    -0.834000       15.9994           0
   48375 WT3  44   TIP3 H1   HT     0.417000        1.0080           0
   48376 WT3  44   TIP3 H2   HT     0.417000        1.0080           0
   48377 WT3  45   TIP3 OH2  OT    -0.834000       15.9994           0
   48378 WT3  45   TIP3 H1   HT     0.417000        1.0080           0
   48379 WT3  45   TIP3 H2   HT     0.417000        1.0080           0
   48380 WT3  46   TIP3 OH2  OT    -0.834000       15.9994           0
   48381 WT3  46   TIP3 H1   HT     0.417000        1.0080           0
   48382 WT3  46   TIP3 H2   HT     0.417000        1.0080           0
   48383 WT3  47   TIP3 OH2  OT    -0.834000       15.9994           0
   48384 WT3  47   TIP3 H1   HT     0.417000        1.0080           0
   48385 WT3  47   TIP3 H2   HT     0.417000        1.0080           0
   48386 WT3  48   TIP3 OH2  OT    -0.834000       15.9994           0
   48387 WT3  48   TIP3 H1   HT     0.417000        1.0080           0
   48388 WT3  48   TIP3 H2   HT     0.417000        1.0080           0
   48389 WT3  49   TIP3 OH2  OT    -0.834000       15.9994           0
   48390 WT3  49   TIP3 H1   HT     0.417000        1.0080           0
   48391 WT3  49   TIP3 H2   HT     0.417000        1.0080           0
   48392 WT3  50   TIP3 OH2  OT    -0.834000       15.9994           0
   48393 WT3  50   TIP3 H1   HT     0.417000        1.0080           0
   48394 WT3  50   TIP3 H2   HT     0.417000        1.0080           0
   48395 WT3  51   TIP3 OH2  OT    -0.834000       15.9994           0
   48396 WT3  51   TIP3 H1   HT     0.417000        1.0080           0
   48397 WT3  51   TIP3 H2   HT     0.417000        1.0080           0
   48398 WT3  52   TIP3 OH2  OT    -0.834000       15.9994           0
   48399 WT3  52   TIP3 H1   HT     0.417000        1.0080           0
   48400 WT3  52   TIP3 H2   HT     0.417000        1.0080           0
   48401 WT3  53   TIP3 OH2  OT    -0.834000       15.9994           0
   48402 WT3  53   TIP3 H1   HT     0.417000        1.0080           0
   48403 WT3  53   TIP3 H2   HT     0.417000        1.0080           0
   48404 WT3  54   TIP3 OH2  OT    -0.834000       15.9994           0
   48405 WT3  54   TIP3 H1   HT     0.417000        1.0080           0
   48406 WT3  54   TIP3 H2   HT     0.417000        1.0080           0
   48407 WT3  55   TIP3 OH2  OT    -0.834000       15.9994           0
   48408 WT3  55   TIP3 H1   HT     0.417000        1.0080           0
   48409 WT3  55   TIP3 H2   HT     0.417000        1.0080           0
   48410 WT3  56   TIP3 OH2  OT    -0.834000       15.9994           0
   48411 WT3  56   TIP3 H1   HT     0.417000        1.0080           0
   48412 WT3  56   TIP3 H2   HT     0.417000        1.0080           0
   48413 WT3  57   TIP3 OH2  OT    -0.834000       15.9994           0
   48414 WT3  57   TIP3 H1   HT     0.417000        1.0080           0
   48415 WT3  57   TIP3 H2   HT     0.417000        1.0080           0
   48416 WT3  59   TIP3 OH2  OT    -0.834000       15.9994           0
   48417 WT3  59   TIP3 H1   HT     0.417000        1.0080           0
   48418 WT3  59   TIP3 H2   HT     0.417000        1.0080           0
   48419 WT3  65   TIP3 OH2  OT    -0.834000       15.9994           0
   48420 WT3  65   TIP3 H1   HT     0.417000        1.0080           0
   48421 WT3  65   TIP3 H2   HT     0.417000        1.0080           0
   48422 WT3  66   TIP3 OH2  OT    -0.834000       15.9994           0
   48423 WT3  66   TIP3 H1   HT     0.417000        1.0080           0
   48424 WT3  66   TIP3 H2   HT     0.417000        1.0080           0
   48425 WT3  67   TIP3 OH2  OT    -0.834000       15.9994           0
   48426 WT3  67   TIP3 H1   HT     0.417000        1.0080           0
   48427 WT3  67   TIP3 H2   HT     0.417000        1.0080           0
   48428 WT3  68   TIP3 OH2  OT    -0.834000       15.9994           0
   48429 WT3  68   TIP3 H1   HT     0.417000        1.0080           0
   48430 WT3  68   TIP3 H2   HT     0.417000        1.0080           0
   48431 WT3  70   TIP3 OH2  OT    -0.834000       15.9994           0
   48432 WT3  70   TIP3 H1   HT     0.417000        1.0080           0
   48433 WT3  70   TIP3 H2   HT     0.417000        1.0080           0
   48434 WT3  71   TIP3 OH2  OT    -0.834000       15.9994           0
   48435 WT3  71   TIP3 H1   HT     0.417000        1.0080           0
   48436 WT3  71   TIP3 H2   HT     0.417000        1.0080           0
   48437 WT3  72   TIP3 OH2  OT    -0.834000       15.9994           0
   48438 WT3  72   TIP3 H1   HT     0.417000        1.0080           0
   48439 WT3  72   TIP3 H2   HT     0.417000        1.0080           0
   48440 WT3  73   TIP3 OH2  OT    -0.834000       15.9994           0
   48441 WT3  73   TIP3 H1   HT     0.417000        1.0080           0
   48442 WT3  73   TIP3 H2   HT     0.417000        1.0080           0
   48443 WT3  74   TIP3 OH2  OT    -0.834000       15.9994           0
   48444 WT3  74   TIP3 H1   HT     0.417000        1.0080           0
   48445 WT3  74   TIP3 H2   HT     0.417000        1.0080           0
   48446 WT3  75   TIP3 OH2  OT    -0.834000       15.9994           0
   48447 WT3  75   TIP3 H1   HT     0.417000        1.0080           0
   48448 WT3  75   TIP3 H2   HT     0.417000        1.0080           0
   48449 WT3  76   TIP3 OH2  OT    -0.834000       15.9994           0
   48450 WT3  76   TIP3 H1   HT     0.417000        1.0080           0
   48451 WT3  76   TIP3 H2   HT     0.417000        1.0080           0
   48452 WT3  77   TIP3 OH2  OT    -0.834000       15.9994           0
   48453 WT3  77   TIP3 H1   HT     0.417000        1.0080           0
   48454 WT3  77   TIP3 H2   HT     0.417000        1.0080           0
   48455 WT3  79   TIP3 OH2  OT    -0.834000       15.9994           0
   48456 WT3  79   TIP3 H1   HT     0.417000        1.0080           0
   48457 WT3  79   TIP3 H2   HT     0.417000        1.0080           0
   48458 WT3  83   TIP3 OH2  OT    -0.834000       15.9994           0
   48459 WT3  83   TIP3 H1   HT     0.417000        1.0080           0
   48460 WT3  83   TIP3 H2   HT     0.417000        1.0080           0
   48461 WT3  85   TIP3 OH2  OT    -0.834000       15.9994           0
   48462 WT3  85   TIP3 H1   HT     0.417000        1.0080           0
   48463 WT3  85   TIP3 H2   HT     0.417000        1.0080           0
   48464 WT3  86   TIP3 OH2  OT    -0.834000       15.9994           0
   48465 WT3  86   TIP3 H1   HT     0.417000        1.0080           0
   48466 WT3  86   TIP3 H2   HT     0.417000        1.0080           0
   48467 WT3  87   TIP3 OH2  OT    -0.834000       15.9994           0
   48468 WT3  87   TIP3 H1   HT     0.417000        1.0080           0
   48469 WT3  87   TIP3 H2   HT     0.417000        1.0080           0
   48470 WT3  88   TIP3 OH2  OT    -0.834000       15.9994           0
   48471 WT3  88   TIP3 H1   HT     0.417000        1.0080           0
   48472 WT3  88   TIP3 H2   HT     0.417000        1.0080           0
   48473 WT3  89   TIP3 OH2  OT    -0.834000       15.9994           0
   48474 WT3  89   TIP3 H1   HT     0.417000        1.0080           0
   48475 WT3  89   TIP3 H2   HT     0.417000        1.0080           0
   48476 WT3  90   TIP3 OH2  OT    -0.834000       15.9994           0
   48477 WT3  90   TIP3 H1   HT     0.417000        1.0080           0
   48478 WT3  90   TIP3 H2   HT     0.417000        1.0080           0
   48479 WT3  91   TIP3 OH2  OT    -0.834000       15.9994           0
   48480 WT3  91   TIP3 H1   HT     0.417000        1.0080           0
   48481 WT3  91   TIP3 H2   HT     0.417000        1.0080           0
   48482 WT3  92   TIP3 OH2  OT    -0.834000       15.9994           0
   48483 WT3  92   TIP3 H1   HT     0.417000        1.0080           0
   48484 WT3  92   TIP3 H2   HT     0.417000        1.0080           0
   48485 WT3  93   TIP3 OH2  OT    -0.834000       15.9994           0
   48486 WT3  93   TIP3 H1   HT     0.417000        1.0080           0
   48487 WT3  93   TIP3 H2   HT     0.417000        1.0080           0
   48488 WT3  94   TIP3 OH2  OT    -0.834000       15.9994           0
   48489 WT3  94   TIP3 H1   HT     0.417000        1.0080           0
   48490 WT3  94   TIP3 H2   HT     0.417000        1.0080           0
   48491 WT3  95   TIP3 OH2  OT    -0.834000       15.9994           0
   48492 WT3  95   TIP3 H1   HT     0.417000        1.0080           0
   48493 WT3  95   TIP3 H2   HT     0.417000        1.0080           0
   48494 WT3  96   TIP3 OH2  OT    -0.834000       15.9994           0
   48495 WT3  96   TIP3 H1   HT     0.417000        1.0080           0
   48496 WT3  96   TIP3 H2   HT     0.417000        1.0080           0
   48497 WT3  98   TIP3 OH2  OT    -0.834000       15.9994           0
   48498 WT3  98   TIP3 H1   HT     0.417000        1.0080           0
   48499 WT3  98   TIP3 H2   HT     0.417000        1.0080           0
   48500 WT3  99   TIP3 OH2  OT    -0.834000       15.9994           0
   48501 WT3  99   TIP3 H1   HT     0.417000        1.0080           0
   48502 WT3  99   TIP3 H2   HT     0.417000        1.0080           0
   48503 WT3  100  TIP3 OH2  OT    -0.834000       15.9994           0
   48504 WT3  100  TIP3 H1   HT     0.417000        1.0080           0
   48505 WT3  100  TIP3 H2   HT     0.417000        1.0080           0
   48506 WT3  101  TIP3 OH2  OT    -0.834000       15.9994           0
   48507 WT3  101  TIP3 H1   HT     0.417000        1.0080           0
   48508 WT3  101  TIP3 H2   HT     0.417000        1.0080           0
   48509 WT3  107  TIP3 OH2  OT    -0.834000       15.9994           0
   48510 WT3  107  TIP3 H1   HT     0.417000        1.0080           0
   48511 WT3  107  TIP3 H2   HT     0.417000        1.0080           0
   48512 WT3  109  TIP3 OH2  OT    -0.834000       15.9994           0
   48513 WT3  109  TIP3 H1   HT     0.417000        1.0080           0
   48514 WT3  109  TIP3 H2   HT     0.417000        1.0080           0
   48515 WT3  110  TIP3 OH2  OT    -0.834000       15.9994           0
   48516 WT3  110  TIP3 H1   HT     0.417000        1.0080           0
   48517 WT3  110  TIP3 H2   HT     0.417000        1.0080           0
   48518 WT3  111  TIP3 OH2  OT    -0.834000       15.9994           0
   48519 WT3  111  TIP3 H1   HT     0.417000        1.0080           0
   48520 WT3  111  TIP3 H2   HT     0.417000        1.0080           0
   48521 WT3  112  TIP3 OH2  OT    -0.834000       15.9994           0
   48522 WT3  112  TIP3 H1   HT     0.417000        1.0080           0
   48523 WT3  112  TIP3 H2   HT     0.417000        1.0080           0
   48524 WT3  113  TIP3 OH2  OT    -0.834000       15.9994           0
   48525 WT3  113  TIP3 H1   HT     0.417000        1.0080           0
   48526 WT3  113  TIP3 H2   HT     0.417000        1.0080           0
   48527 WT3  114  TIP3 OH2  OT    -0.834000       15.9994           0
   48528 WT3  114  TIP3 H1   HT     0.417000        1.0080           0
   48529 WT3  114  TIP3 H2   HT     0.417000        1.0080           0
   48530 WT3  115  TIP3 OH2  OT    -0.834000       15.9994           0
   48531 WT3  115  TIP3 H1   HT     0.417000        1.0080           0
   48532 WT3  115  TIP3 H2   HT     0.417000        1.0080           0
   48533 WT3  116  TIP3 OH2  OT    -0.834000       15.9994           0
   48534 WT3  116  TIP3 H1   HT     0.417000        1.0080           0
   48535 WT3  116  TIP3 H2   HT     0.417000        1.0080           0
   48536 WT3  117  TIP3 OH2  OT    -0.834000       15.9994           0
   48537 WT3  117  TIP3 H1   HT     0.417000        1.0080           0
   48538 WT3  117  TIP3 H2   HT     0.417000        1.0080           0
   48539 WT3  118  TIP3 OH2  OT    -0.834000       15.9994           0
   48540 WT3  118  TIP3 H1   HT     0.417000        1.0080           0
   48541 WT3  118  TIP3 H2   HT     0.417000        1.0080           0
   48542 WT3  119  TIP3 OH2  OT    -0.834000       15.9994           0
   48543 WT3  119  TIP3 H1   HT     0.417000        1.0080           0
   48544 WT3  119  TIP3 H2   HT     0.417000        1.0080           0
   48545 WT3  123  TIP3 OH2  OT    -0.834000       15.9994           0
   48546 WT3  123  TIP3 H1   HT     0.417000        1.0080           0
   48547 WT3  123  TIP3 H2   HT     0.417000        1.0080           0
   48548 WT3  125  TIP3 OH2  OT    -0.834000       15.9994           0
   48549 WT3  125  TIP3 H1   HT     0.417000        1.0080           0
   48550 WT3  125  TIP3 H2   HT     0.417000        1.0080           0
   48551 WT3  129  TIP3 OH2  OT    -0.834000       15.9994           0
   48552 WT3  129  TIP3 H1   HT     0.417000        1.0080           0
   48553 WT3  129  TIP3 H2   HT     0.417000        1.0080           0
   48554 WT3  130  TIP3 OH2  OT    -0.834000       15.9994           0
   48555 WT3  130  TIP3 H1   HT     0.417000        1.0080           0
   48556 WT3  130  TIP3 H2   HT     0.417000        1.0080           0
   48557 WT3  131  TIP3 OH2  OT    -0.834000       15.9994           0
   48558 WT3  131  TIP3 H1   HT     0.417000        1.0080           0
   48559 WT3  131  TIP3 H2   HT     0.417000        1.0080           0
   48560 WT3  133  TIP3 OH2  OT    -0.834000       15.9994           0
   48561 WT3  133  TIP3 H1   HT     0.417000        1.0080           0
   48562 WT3  133  TIP3 H2   HT     0.417000        1.0080           0
   48563 WT3  134  TIP3 OH2  OT    -0.834000       15.9994           0
   48564 WT3  134  TIP3 H1   HT     0.417000        1.0080           0
   48565 WT3  134  TIP3 H2   HT     0.417000        1.0080           0
   48566 WT3  135  TIP3 OH2  OT    -0.834000       15.9994           0
   48567 WT3  135  TIP3 H1   HT     0.417000        1.0080           0
   48568 WT3  135  TIP3 H2   HT     0.417000        1.0080           0
   48569 WT3  136  TIP3 OH2  OT    -0.834000       15.9994           0
   48570 WT3  136  TIP3 H1   HT     0.417000        1.0080           0
   48571 WT3  136  TIP3 H2   HT     0.417000        1.0080           0
   48572 WT3  137  TIP3 OH2  OT    -0.834000       15.9994           0
   48573 WT3  137  TIP3 H1   HT     0.417000        1.0080           0
   48574 WT3  137  TIP3 H2   HT     0.417000        1.0080           0
   48575 WT3  139  TIP3 OH2  OT    -0.834000       15.9994           0
   48576 WT3  139  TIP3 H1   HT     0.417000        1.0080           0
   48577 WT3  139  TIP3 H2   HT     0.417000        1.0080           0
   48578 WT3  140  TIP3 OH2  OT    -0.834000       15.9994           0
   48579 WT3  140  TIP3 H1   HT     0.417000        1.0080           0
   48580 WT3  140  TIP3 H2   HT     0.417000        1.0080           0
   48581 WT3  142  TIP3 OH2  OT    -0.834000       15.9994           0
   48582 WT3  142  TIP3 H1   HT     0.417000        1.0080           0
   48583 WT3  142  TIP3 H2   HT     0.417000        1.0080           0
   48584 WT3  144  TIP3 OH2  OT    -0.834000       15.9994           0
   48585 WT3  144  TIP3 H1   HT     0.417000        1.0080           0
   48586 WT3  144  TIP3 H2   HT     0.417000        1.0080           0
   48587 WT3  145  TIP3 OH2  OT    -0.834000       15.9994           0
   48588 WT3  145  TIP3 H1   HT     0.417000        1.0080           0
   48589 WT3  145  TIP3 H2   HT     0.417000        1.0080           0
   48590 WT3  146  TIP3 OH2  OT    -0.834000       15.9994           0
   48591 WT3  146  TIP3 H1   HT     0.417000        1.0080           0
   48592 WT3  146  TIP3 H2   HT     0.417000        1.0080           0
   48593 WT3  149  TIP3 OH2  OT    -0.834000       15.9994           0
   48594 WT3  149  TIP3 H1   HT     0.417000        1.0080           0
   48595 WT3  149  TIP3 H2   HT     0.417000        1.0080           0
   48596 WT3  150  TIP3 OH2  OT    -0.834000       15.9994           0
   48597 WT3  150  TIP3 H1   HT     0.417000        1.0080           0
   48598 WT3  150  TIP3 H2   HT     0.417000        1.0080           0
   48599 WT3  151  TIP3 OH2  OT    -0.834000       15.9994           0
   48600 WT3  151  TIP3 H1   HT     0.417000        1.0080           0
   48601 WT3  151  TIP3 H2   HT     0.417000        1.0080           0
   48602 WT3  152  TIP3 OH2  OT    -0.834000       15.9994           0
   48603 WT3  152  TIP3 H1   HT     0.417000        1.0080           0
   48604 WT3  152  TIP3 H2   HT     0.417000        1.0080           0
   48605 WT3  153  TIP3 OH2  OT    -0.834000       15.9994           0
   48606 WT3  153  TIP3 H1   HT     0.417000        1.0080           0
   48607 WT3  153  TIP3 H2   HT     0.417000        1.0080           0
   48608 WT3  154  TIP3 OH2  OT    -0.834000       15.9994           0
   48609 WT3  154  TIP3 H1   HT     0.417000        1.0080           0
   48610 WT3  154  TIP3 H2   HT     0.417000        1.0080           0
   48611 WT3  155  TIP3 OH2  OT    -0.834000       15.9994           0
   48612 WT3  155  TIP3 H1   HT     0.417000        1.0080           0
   48613 WT3  155  TIP3 H2   HT     0.417000        1.0080           0
   48614 WT3  156  TIP3 OH2  OT    -0.834000       15.9994           0
   48615 WT3  156  TIP3 H1   HT     0.417000        1.0080           0
   48616 WT3  156  TIP3 H2   HT     0.417000        1.0080           0
   48617 WT3  157  TIP3 OH2  OT    -0.834000       15.9994           0
   48618 WT3  157  TIP3 H1   HT     0.417000        1.0080           0
   48619 WT3  157  TIP3 H2   HT     0.417000        1.0080           0
   48620 WT3  158  TIP3 OH2  OT    -0.834000       15.9994           0
   48621 WT3  158  TIP3 H1   HT     0.417000        1.0080           0
   48622 WT3  158  TIP3 H2   HT     0.417000        1.0080           0
   48623 WT3  159  TIP3 OH2  OT    -0.834000       15.9994           0
   48624 WT3  159  TIP3 H1   HT     0.417000        1.0080           0
   48625 WT3  159  TIP3 H2   HT     0.417000        1.0080           0
   48626 WT3  161  TIP3 OH2  OT    -0.834000       15.9994           0
   48627 WT3  161  TIP3 H1   HT     0.417000        1.0080           0
   48628 WT3  161  TIP3 H2   HT     0.417000        1.0080           0
   48629 WT3  163  TIP3 OH2  OT    -0.834000       15.9994           0
   48630 WT3  163  TIP3 H1   HT     0.417000        1.0080           0
   48631 WT3  163  TIP3 H2   HT     0.417000        1.0080           0
   48632 WT3  164  TIP3 OH2  OT    -0.834000       15.9994           0
   48633 WT3  164  TIP3 H1   HT     0.417000        1.0080           0
   48634 WT3  164  TIP3 H2   HT     0.417000        1.0080           0
   48635 WT3  170  TIP3 OH2  OT    -0.834000       15.9994           0
   48636 WT3  170  TIP3 H1   HT     0.417000        1.0080           0
   48637 WT3  170  TIP3 H2   HT     0.417000        1.0080           0
   48638 WT3  171  TIP3 OH2  OT    -0.834000       15.9994           0
   48639 WT3  171  TIP3 H1   HT     0.417000        1.0080           0
   48640 WT3  171  TIP3 H2   HT     0.417000        1.0080           0
   48641 WT3  173  TIP3 OH2  OT    -0.834000       15.9994           0
   48642 WT3  173  TIP3 H1   HT     0.417000        1.0080           0
   48643 WT3  173  TIP3 H2   HT     0.417000        1.0080           0
   48644 WT3  174  TIP3 OH2  OT    -0.834000       15.9994           0
   48645 WT3  174  TIP3 H1   HT     0.417000        1.0080           0
   48646 WT3  174  TIP3 H2   HT     0.417000        1.0080           0
   48647 WT3  176  TIP3 OH2  OT    -0.834000       15.9994           0
   48648 WT3  176  TIP3 H1   HT     0.417000        1.0080           0
   48649 WT3  176  TIP3 H2   HT     0.417000        1.0080           0
   48650 WT3  177  TIP3 OH2  OT    -0.834000       15.9994           0
   48651 WT3  177  TIP3 H1   HT     0.417000        1.0080           0
   48652 WT3  177  TIP3 H2   HT     0.417000        1.0080           0
   48653 WT3  178  TIP3 OH2  OT    -0.834000       15.9994           0
   48654 WT3  178  TIP3 H1   HT     0.417000        1.0080           0
   48655 WT3  178  TIP3 H2   HT     0.417000        1.0080           0
   48656 WT3  179  TIP3 OH2  OT    -0.834000       15.9994           0
   48657 WT3  179  TIP3 H1   HT     0.417000        1.0080           0
   48658 WT3  179  TIP3 H2   HT     0.417000        1.0080           0
   48659 WT3  180  TIP3 OH2  OT    -0.834000       15.9994           0
   48660 WT3  180  TIP3 H1   HT     0.417000        1.0080           0
   48661 WT3  180  TIP3 H2   HT     0.417000        1.0080           0
   48662 WT3  181  TIP3 OH2  OT    -0.834000       15.9994           0
   48663 WT3  181  TIP3 H1   HT     0.417000        1.0080           0
   48664 WT3  181  TIP3 H2   HT     0.417000        1.0080           0
   48665 WT3  182  TIP3 OH2  OT    -0.834000       15.9994           0
   48666 WT3  182  TIP3 H1   HT     0.417000        1.0080           0
   48667 WT3  182  TIP3 H2   HT     0.417000        1.0080           0
   48668 WT3  185  TIP3 OH2  OT    -0.834000       15.9994           0
   48669 WT3  185  TIP3 H1   HT     0.417000        1.0080           0
   48670 WT3  185  TIP3 H2   HT     0.417000        1.0080           0
   48671 WT3  189  TIP3 OH2  OT    -0.834000       15.9994           0
   48672 WT3  189  TIP3 H1   HT     0.417000        1.0080           0
   48673 WT3  189  TIP3 H2   HT     0.417000        1.0080           0
   48674 WT3  190  TIP3 OH2  OT    -0.834000       15.9994           0
   48675 WT3  190  TIP3 H1   HT     0.417000        1.0080           0
   48676 WT3  190  TIP3 H2   HT     0.417000        1.0080           0
   48677 WT3  191  TIP3 OH2  OT    -0.834000       15.9994           0
   48678 WT3  191  TIP3 H1   HT     0.417000        1.0080           0
   48679 WT3  191  TIP3 H2   HT     0.417000        1.0080           0
   48680 WT3  192  TIP3 OH2  OT    -0.834000       15.9994           0
   48681 WT3  192  TIP3 H1   HT     0.417000        1.0080           0
   48682 WT3  192  TIP3 H2   HT     0.417000        1.0080           0
   48683 WT3  193  TIP3 OH2  OT    -0.834000       15.9994           0
   48684 WT3  193  TIP3 H1   HT     0.417000        1.0080           0
   48685 WT3  193  TIP3 H2   HT     0.417000        1.0080           0
   48686 WT3  195  TIP3 OH2  OT    -0.834000       15.9994           0
   48687 WT3  195  TIP3 H1   HT     0.417000        1.0080           0
   48688 WT3  195  TIP3 H2   HT     0.417000        1.0080           0
   48689 WT3  196  TIP3 OH2  OT    -0.834000       15.9994           0
   48690 WT3  196  TIP3 H1   HT     0.417000        1.0080           0
   48691 WT3  196  TIP3 H2   HT     0.417000        1.0080           0
   48692 WT3  197  TIP3 OH2  OT    -0.834000       15.9994           0
   48693 WT3  197  TIP3 H1   HT     0.417000        1.0080           0
   48694 WT3  197  TIP3 H2   HT     0.417000        1.0080           0
   48695 WT3  198  TIP3 OH2  OT    -0.834000       15.9994           0
   48696 WT3  198  TIP3 H1   HT     0.417000        1.0080           0
   48697 WT3  198  TIP3 H2   HT     0.417000        1.0080           0
   48698 WT3  199  TIP3 OH2  OT    -0.834000       15.9994           0
   48699 WT3  199  TIP3 H1   HT     0.417000        1.0080           0
   48700 WT3  199  TIP3 H2   HT     0.417000        1.0080           0
   48701 WT3  201  TIP3 OH2  OT    -0.834000       15.9994           0
   48702 WT3  201  TIP3 H1   HT     0.417000        1.0080           0
   48703 WT3  201  TIP3 H2   HT     0.417000        1.0080           0
   48704 WT3  202  TIP3 OH2  OT    -0.834000       15.9994           0
   48705 WT3  202  TIP3 H1   HT     0.417000        1.0080           0
   48706 WT3  202  TIP3 H2   HT     0.417000        1.0080           0
   48707 WT3  203  TIP3 OH2  OT    -0.834000       15.9994           0
   48708 WT3  203  TIP3 H1   HT     0.417000        1.0080           0
   48709 WT3  203  TIP3 H2   HT     0.417000        1.0080           0
   48710 WT3  204  TIP3 OH2  OT    -0.834000       15.9994           0
   48711 WT3  204  TIP3 H1   HT     0.417000        1.0080           0
   48712 WT3  204  TIP3 H2   HT     0.417000        1.0080           0
   48713 WT3  205  TIP3 OH2  OT    -0.834000       15.9994           0
   48714 WT3  205  TIP3 H1   HT     0.417000        1.0080           0
   48715 WT3  205  TIP3 H2   HT     0.417000        1.0080           0
   48716 WT3  212  TIP3 OH2  OT    -0.834000       15.9994           0
   48717 WT3  212  TIP3 H1   HT     0.417000        1.0080           0
   48718 WT3  212  TIP3 H2   HT     0.417000        1.0080           0
   48719 WT3  214  TIP3 OH2  OT    -0.834000       15.9994           0
   48720 WT3  214  TIP3 H1   HT     0.417000        1.0080           0
   48721 WT3  214  TIP3 H2   HT     0.417000        1.0080           0
   48722 WT3  215  TIP3 OH2  OT    -0.834000       15.9994           0
   48723 WT3  215  TIP3 H1   HT     0.417000        1.0080           0
   48724 WT3  215  TIP3 H2   HT     0.417000        1.0080           0
   48725 WT3  218  TIP3 OH2  OT    -0.834000       15.9994           0
   48726 WT3  218  TIP3 H1   HT     0.417000        1.0080           0
   48727 WT3  218  TIP3 H2   HT     0.417000        1.0080           0
   48728 WT3  219  TIP3 OH2  OT    -0.834000       15.9994           0
   48729 WT3  219  TIP3 H1   HT     0.417000        1.0080           0
   48730 WT3  219  TIP3 H2   HT     0.417000        1.0080           0
   48731 WT3  220  TIP3 OH2  OT    -0.834000       15.9994           0
   48732 WT3  220  TIP3 H1   HT     0.417000        1.0080           0
   48733 WT3  220  TIP3 H2   HT     0.417000        1.0080           0
   48734 WT3  221  TIP3 OH2  OT    -0.834000       15.9994           0
   48735 WT3  221  TIP3 H1   HT     0.417000        1.0080           0
   48736 WT3  221  TIP3 H2   HT     0.417000        1.0080           0
   48737 WT3  222  TIP3 OH2  OT    -0.834000       15.9994           0
   48738 WT3  222  TIP3 H1   HT     0.417000        1.0080           0
   48739 WT3  222  TIP3 H2   HT     0.417000        1.0080           0
   48740 WT3  223  TIP3 OH2  OT    -0.834000       15.9994           0
   48741 WT3  223  TIP3 H1   HT     0.417000        1.0080           0
   48742 WT3  223  TIP3 H2   HT     0.417000        1.0080           0
   48743 WT3  224  TIP3 OH2  OT    -0.834000       15.9994           0
   48744 WT3  224  TIP3 H1   HT     0.417000        1.0080           0
   48745 WT3  224  TIP3 H2   HT     0.417000        1.0080           0
   48746 WT3  225  TIP3 OH2  OT    -0.834000       15.9994           0
   48747 WT3  225  TIP3 H1   HT     0.417000        1.0080           0
   48748 WT3  225  TIP3 H2   HT     0.417000        1.0080           0
   48749 WT3  231  TIP3 OH2  OT    -0.834000       15.9994           0
   48750 WT3  231  TIP3 H1   HT     0.417000        1.0080           0
   48751 WT3  231  TIP3 H2   HT     0.417000        1.0080           0
   48752 WT3  233  TIP3 OH2  OT    -0.834000       15.9994           0
   48753 WT3  233  TIP3 H1   HT     0.417000        1.0080           0
   48754 WT3  233  TIP3 H2   HT     0.417000        1.0080           0
   48755 WT3  236  TIP3 OH2  OT    -0.834000       15.9994           0
   48756 WT3  236  TIP3 H1   HT     0.417000        1.0080           0
   48757 WT3  236  TIP3 H2   HT     0.417000        1.0080           0
   48758 WT3  237  TIP3 OH2  OT    -0.834000       15.9994           0
   48759 WT3  237  TIP3 H1   HT     0.417000        1.0080           0
   48760 WT3  237  TIP3 H2   HT     0.417000        1.0080           0
   48761 WT3  238  TIP3 OH2  OT    -0.834000       15.9994           0
   48762 WT3  238  TIP3 H1   HT     0.417000        1.0080           0
   48763 WT3  238  TIP3 H2   HT     0.417000        1.0080           0
   48764 WT3  239  TIP3 OH2  OT    -0.834000       15.9994           0
   48765 WT3  239  TIP3 H1   HT     0.417000        1.0080           0
   48766 WT3  239  TIP3 H2   HT     0.417000        1.0080           0
   48767 WT3  240  TIP3 OH2  OT    -0.834000       15.9994           0
   48768 WT3  240  TIP3 H1   HT     0.417000        1.0080           0
   48769 WT3  240  TIP3 H2   HT     0.417000        1.0080           0
   48770 WT3  241  TIP3 OH2  OT    -0.834000       15.9994           0
   48771 WT3  241  TIP3 H1   HT     0.417000        1.0080           0
   48772 WT3  241  TIP3 H2   HT     0.417000        1.0080           0
   48773 WT3  242  TIP3 OH2  OT    -0.834000       15.9994           0
   48774 WT3  242  TIP3 H1   HT     0.417000        1.0080           0
   48775 WT3  242  TIP3 H2   HT     0.417000        1.0080           0
   48776 WT3  243  TIP3 OH2  OT    -0.834000       15.9994           0
   48777 WT3  243  TIP3 H1   HT     0.417000        1.0080           0
   48778 WT3  243  TIP3 H2   HT     0.417000        1.0080           0
   48779 WT3  244  TIP3 OH2  OT    -0.834000       15.9994           0
   48780 WT3  244  TIP3 H1   HT     0.417000        1.0080           0
   48781 WT3  244  TIP3 H2   HT     0.417000        1.0080           0
   48782 WT3  245  TIP3 OH2  OT    -0.834000       15.9994           0
   48783 WT3  245  TIP3 H1   HT     0.417000        1.0080           0
   48784 WT3  245  TIP3 H2   HT     0.417000        1.0080           0
   48785 WT3  246  TIP3 OH2  OT    -0.834000       15.9994           0
   48786 WT3  246  TIP3 H1   HT     0.417000        1.0080           0
   48787 WT3  246  TIP3 H2   HT     0.417000        1.0080           0
   48788 WT3  253  TIP3 OH2  OT    -0.834000       15.9994           0
   48789 WT3  253  TIP3 H1   HT     0.417000        1.0080           0
   48790 WT3  253  TIP3 H2   HT     0.417000        1.0080           0
   48791 WT3  255  TIP3 OH2  OT    -0.834000       15.9994           0
   48792 WT3  255  TIP3 H1   HT     0.417000        1.0080           0
   48793 WT3  255  TIP3 H2   HT     0.417000        1.0080           0
   48794 WT3  256  TIP3 OH2  OT    -0.834000       15.9994           0
   48795 WT3  256  TIP3 H1   HT     0.417000        1.0080           0
   48796 WT3  256  TIP3 H2   HT     0.417000        1.0080           0
   48797 WT3  258  TIP3 OH2  OT    -0.834000       15.9994           0
   48798 WT3  258  TIP3 H1   HT     0.417000        1.0080           0
   48799 WT3  258  TIP3 H2   HT     0.417000        1.0080           0
   48800 WT3  259  TIP3 OH2  OT    -0.834000       15.9994           0
   48801 WT3  259  TIP3 H1   HT     0.417000        1.0080           0
   48802 WT3  259  TIP3 H2   HT     0.417000        1.0080           0
   48803 WT3  260  TIP3 OH2  OT    -0.834000       15.9994           0
   48804 WT3  260  TIP3 H1   HT     0.417000        1.0080           0
   48805 WT3  260  TIP3 H2   HT     0.417000        1.0080           0
   48806 WT3  261  TIP3 OH2  OT    -0.834000       15.9994           0
   48807 WT3  261  TIP3 H1   HT     0.417000        1.0080           0
   48808 WT3  261  TIP3 H2   HT     0.417000        1.0080           0
   48809 WT3  262  TIP3 OH2  OT    -0.834000       15.9994           0
   48810 WT3  262  TIP3 H1   HT     0.417000        1.0080           0
   48811 WT3  262  TIP3 H2   HT     0.417000        1.0080           0
   48812 WT3  264  TIP3 OH2  OT    -0.834000       15.9994           0
   48813 WT3  264  TIP3 H1   HT     0.417000        1.0080           0
   48814 WT3  264  TIP3 H2   HT     0.417000        1.0080           0
   48815 WT3  278  TIP3 OH2  OT    -0.834000       15.9994           0
   48816 WT3  278  TIP3 H1   HT     0.417000        1.0080           0
   48817 WT3  278  TIP3 H2   HT     0.417000        1.0080           0
   48818 WT3  279  TIP3 OH2  OT    -0.834000       15.9994           0
   48819 WT3  279  TIP3 H1   HT     0.417000        1.0080           0
   48820 WT3  279  TIP3 H2   HT     0.417000        1.0080           0
   48821 WT3  280  TIP3 OH2  OT    -0.834000       15.9994           0
   48822 WT3  280  TIP3 H1   HT     0.417000        1.0080           0
   48823 WT3  280  TIP3 H2   HT     0.417000        1.0080           0
   48824 WT3  281  TIP3 OH2  OT    -0.834000       15.9994           0
   48825 WT3  281  TIP3 H1   HT     0.417000        1.0080           0
   48826 WT3  281  TIP3 H2   HT     0.417000        1.0080           0
   48827 WT3  282  TIP3 OH2  OT    -0.834000       15.9994           0
   48828 WT3  282  TIP3 H1   HT     0.417000        1.0080           0
   48829 WT3  282  TIP3 H2   HT     0.417000        1.0080           0
   48830 WT3  283  TIP3 OH2  OT    -0.834000       15.9994           0
   48831 WT3  283  TIP3 H1   HT     0.417000        1.0080           0
   48832 WT3  283  TIP3 H2   HT     0.417000        1.0080           0
   48833 WT3  284  TIP3 OH2  OT    -0.834000       15.9994           0
   48834 WT3  284  TIP3 H1   HT     0.417000        1.0080           0
   48835 WT3  284  TIP3 H2   HT     0.417000        1.0080           0
   48836 WT3  285  TIP3 OH2  OT    -0.834000       15.9994           0
   48837 WT3  285  TIP3 H1   HT     0.417000        1.0080           0
   48838 WT3  285  TIP3 H2   HT     0.417000        1.0080           0
   48839 WT3  291  TIP3 OH2  OT    -0.834000       15.9994           0
   48840 WT3  291  TIP3 H1   HT     0.417000        1.0080           0
   48841 WT3  291  TIP3 H2   HT     0.417000        1.0080           0
   48842 WT3  296  TIP3 OH2  OT    -0.834000       15.9994           0
   48843 WT3  296  TIP3 H1   HT     0.417000        1.0080           0
   48844 WT3  296  TIP3 H2   HT     0.417000        1.0080           0
   48845 WT3  297  TIP3 OH2  OT    -0.834000       15.9994           0
   48846 WT3  297  TIP3 H1   HT     0.417000        1.0080           0
   48847 WT3  297  TIP3 H2   HT     0.417000        1.0080           0
   48848 WT3  298  TIP3 OH2  OT    -0.834000       15.9994           0
   48849 WT3  298  TIP3 H1   HT     0.417000        1.0080           0
   48850 WT3  298  TIP3 H2   HT     0.417000        1.0080           0
   48851 WT3  300  TIP3 OH2  OT    -0.834000       15.9994           0
   48852 WT3  300  TIP3 H1   HT     0.417000        1.0080           0
   48853 WT3  300  TIP3 H2   HT     0.417000        1.0080           0
   48854 WT3  302  TIP3 OH2  OT    -0.834000       15.9994           0
   48855 WT3  302  TIP3 H1   HT     0.417000        1.0080           0
   48856 WT3  302  TIP3 H2   HT     0.417000        1.0080           0
   48857 WT3  304  TIP3 OH2  OT    -0.834000       15.9994           0
   48858 WT3  304  TIP3 H1   HT     0.417000        1.0080           0
   48859 WT3  304  TIP3 H2   HT     0.417000        1.0080           0
   48860 WT3  305  TIP3 OH2  OT    -0.834000       15.9994           0
   48861 WT3  305  TIP3 H1   HT     0.417000        1.0080           0
   48862 WT3  305  TIP3 H2   HT     0.417000        1.0080           0
   48863 WT3  306  TIP3 OH2  OT    -0.834000       15.9994           0
   48864 WT3  306  TIP3 H1   HT     0.417000        1.0080           0
   48865 WT3  306  TIP3 H2   HT     0.417000        1.0080           0
   48866 WT3  309  TIP3 OH2  OT    -0.834000       15.9994           0
   48867 WT3  309  TIP3 H1   HT     0.417000        1.0080           0
   48868 WT3  309  TIP3 H2   HT     0.417000        1.0080           0
   48869 WT3  315  TIP3 OH2  OT    -0.834000       15.9994           0
   48870 WT3  315  TIP3 H1   HT     0.417000        1.0080           0
   48871 WT3  315  TIP3 H2   HT     0.417000        1.0080           0
   48872 WT3  317  TIP3 OH2  OT    -0.834000       15.9994           0
   48873 WT3  317  TIP3 H1   HT     0.417000        1.0080           0
   48874 WT3  317  TIP3 H2   HT     0.417000        1.0080           0
   48875 WT3  319  TIP3 OH2  OT    -0.834000       15.9994           0
   48876 WT3  319  TIP3 H1   HT     0.417000        1.0080           0
   48877 WT3  319  TIP3 H2   HT     0.417000        1.0080           0
   48878 WT3  320  TIP3 OH2  OT    -0.834000       15.9994           0
   48879 WT3  320  TIP3 H1   HT     0.417000        1.0080           0
   48880 WT3  320  TIP3 H2   HT     0.417000        1.0080           0
   48881 WT3  321  TIP3 OH2  OT    -0.834000       15.9994           0
   48882 WT3  321  TIP3 H1   HT     0.417000        1.0080           0
   48883 WT3  321  TIP3 H2   HT     0.417000        1.0080           0
   48884 WT3  324  TIP3 OH2  OT    -0.834000       15.9994           0
   48885 WT3  324  TIP3 H1   HT     0.417000        1.0080           0
   48886 WT3  324  TIP3 H2   HT     0.417000        1.0080           0
   48887 WT3  325  TIP3 OH2  OT    -0.834000       15.9994           0
   48888 WT3  325  TIP3 H1   HT     0.417000        1.0080           0
   48889 WT3  325  TIP3 H2   HT     0.417000        1.0080           0
   48890 WT3  326  TIP3 OH2  OT    -0.834000       15.9994           0
   48891 WT3  326  TIP3 H1   HT     0.417000        1.0080           0
   48892 WT3  326  TIP3 H2   HT     0.417000        1.0080           0
   48893 WT3  327  TIP3 OH2  OT    -0.834000       15.9994           0
   48894 WT3  327  TIP3 H1   HT     0.417000        1.0080           0
   48895 WT3  327  TIP3 H2   HT     0.417000        1.0080           0
   48896 WT3  329  TIP3 OH2  OT    -0.834000       15.9994           0
   48897 WT3  329  TIP3 H1   HT     0.417000        1.0080           0
   48898 WT3  329  TIP3 H2   HT     0.417000        1.0080           0
   48899 WT3  332  TIP3 OH2  OT    -0.834000       15.9994           0
   48900 WT3  332  TIP3 H1   HT     0.417000        1.0080           0
   48901 WT3  332  TIP3 H2   HT     0.417000        1.0080           0
   48902 WT3  334  TIP3 OH2  OT    -0.834000       15.9994           0
   48903 WT3  334  TIP3 H1   HT     0.417000        1.0080           0
   48904 WT3  334  TIP3 H2   HT     0.417000        1.0080           0
   48905 WT3  335  TIP3 OH2  OT    -0.834000       15.9994           0
   48906 WT3  335  TIP3 H1   HT     0.417000        1.0080           0
   48907 WT3  335  TIP3 H2   HT     0.417000        1.0080           0
   48908 WT3  337  TIP3 OH2  OT    -0.834000       15.9994           0
   48909 WT3  337  TIP3 H1   HT     0.417000        1.0080           0
   48910 WT3  337  TIP3 H2   HT     0.417000        1.0080           0
   48911 WT3  338  TIP3 OH2  OT    -0.834000       15.9994           0
   48912 WT3  338  TIP3 H1   HT     0.417000        1.0080           0
   48913 WT3  338  TIP3 H2   HT     0.417000        1.0080           0
   48914 WT3  339  TIP3 OH2  OT    -0.834000       15.9994           0
   48915 WT3  339  TIP3 H1   HT     0.417000        1.0080           0
   48916 WT3  339  TIP3 H2   HT     0.417000        1.0080           0
   48917 WT3  340  TIP3 OH2  OT    -0.834000       15.9994           0
   48918 WT3  340  TIP3 H1   HT     0.417000        1.0080           0
   48919 WT3  340  TIP3 H2   HT     0.417000        1.0080           0
   48920 WT3  341  TIP3 OH2  OT    -0.834000       15.9994           0
   48921 WT3  341  TIP3 H1   HT     0.417000        1.0080           0
   48922 WT3  341  TIP3 H2   HT     0.417000        1.0080           0
   48923 WT3  342  TIP3 OH2  OT    -0.834000       15.9994           0
   48924 WT3  342  TIP3 H1   HT     0.417000        1.0080           0
   48925 WT3  342  TIP3 H2   HT     0.417000        1.0080           0
   48926 WT3  343  TIP3 OH2  OT    -0.834000       15.9994           0
   48927 WT3  343  TIP3 H1   HT     0.417000        1.0080           0
   48928 WT3  343  TIP3 H2   HT     0.417000        1.0080           0
   48929 WT3  344  TIP3 OH2  OT    -0.834000       15.9994           0
   48930 WT3  344  TIP3 H1   HT     0.417000        1.0080           0
   48931 WT3  344  TIP3 H2   HT     0.417000        1.0080           0
   48932 WT3  345  TIP3 OH2  OT    -0.834000       15.9994           0
   48933 WT3  345  TIP3 H1   HT     0.417000        1.0080           0
   48934 WT3  345  TIP3 H2   HT     0.417000        1.0080           0
   48935 WT3  348  TIP3 OH2  OT    -0.834000       15.9994           0
   48936 WT3  348  TIP3 H1   HT     0.417000        1.0080           0
   48937 WT3  348  TIP3 H2   HT     0.417000        1.0080           0
   48938 WT3  349  TIP3 OH2  OT    -0.834000       15.9994           0
   48939 WT3  349  TIP3 H1   HT     0.417000        1.0080           0
   48940 WT3  349  TIP3 H2   HT     0.417000        1.0080           0
   48941 WT3  350  TIP3 OH2  OT    -0.834000       15.9994           0
   48942 WT3  350  TIP3 H1   HT     0.417000        1.0080           0
   48943 WT3  350  TIP3 H2   HT     0.417000        1.0080           0
   48944 WT3  361  TIP3 OH2  OT    -0.834000       15.9994           0
   48945 WT3  361  TIP3 H1   HT     0.417000        1.0080           0
   48946 WT3  361  TIP3 H2   HT     0.417000        1.0080           0
   48947 WT3  362  TIP3 OH2  OT    -0.834000       15.9994           0
   48948 WT3  362  TIP3 H1   HT     0.417000        1.0080           0
   48949 WT3  362  TIP3 H2   HT     0.417000        1.0080           0
   48950 WT3  363  TIP3 OH2  OT    -0.834000       15.9994           0
   48951 WT3  363  TIP3 H1   HT     0.417000        1.0080           0
   48952 WT3  363  TIP3 H2   HT     0.417000        1.0080           0
   48953 WT3  364  TIP3 OH2  OT    -0.834000       15.9994           0
   48954 WT3  364  TIP3 H1   HT     0.417000        1.0080           0
   48955 WT3  364  TIP3 H2   HT     0.417000        1.0080           0
   48956 WT3  365  TIP3 OH2  OT    -0.834000       15.9994           0
   48957 WT3  365  TIP3 H1   HT     0.417000        1.0080           0
   48958 WT3  365  TIP3 H2   HT     0.417000        1.0080           0
   48959 WT3  368  TIP3 OH2  OT    -0.834000       15.9994           0
   48960 WT3  368  TIP3 H1   HT     0.417000        1.0080           0
   48961 WT3  368  TIP3 H2   HT     0.417000        1.0080           0
   48962 WT3  369  TIP3 OH2  OT    -0.834000       15.9994           0
   48963 WT3  369  TIP3 H1   HT     0.417000        1.0080           0
   48964 WT3  369  TIP3 H2   HT     0.417000        1.0080           0
   48965 WT3  370  TIP3 OH2  OT    -0.834000       15.9994           0
   48966 WT3  370  TIP3 H1   HT     0.417000        1.0080           0
   48967 WT3  370  TIP3 H2   HT     0.417000        1.0080           0
   48968 WT3  371  TIP3 OH2  OT    -0.834000       15.9994           0
   48969 WT3  371  TIP3 H1   HT     0.417000        1.0080           0
   48970 WT3  371  TIP3 H2   HT     0.417000        1.0080           0
   48971 WT3  372  TIP3 OH2  OT    -0.834000       15.9994           0
   48972 WT3  372  TIP3 H1   HT     0.417000        1.0080           0
   48973 WT3  372  TIP3 H2   HT     0.417000        1.0080           0
   48974 WT3  373  TIP3 OH2  OT    -0.834000       15.9994           0
   48975 WT3  373  TIP3 H1   HT     0.417000        1.0080           0
   48976 WT3  373  TIP3 H2   HT     0.417000        1.0080           0
   48977 WT3  375  TIP3 OH2  OT    -0.834000       15.9994           0
   48978 WT3  375  TIP3 H1   HT     0.417000        1.0080           0
   48979 WT3  375  TIP3 H2   HT     0.417000        1.0080           0
   48980 WT3  381  TIP3 OH2  OT    -0.834000       15.9994           0
   48981 WT3  381  TIP3 H1   HT     0.417000        1.0080           0
   48982 WT3  381  TIP3 H2   HT     0.417000        1.0080           0
   48983 WT3  383  TIP3 OH2  OT    -0.834000       15.9994           0
   48984 WT3  383  TIP3 H1   HT     0.417000        1.0080           0
   48985 WT3  383  TIP3 H2   HT     0.417000        1.0080           0
   48986 WT3  385  TIP3 OH2  OT    -0.834000       15.9994           0
   48987 WT3  385  TIP3 H1   HT     0.417000        1.0080           0
   48988 WT3  385  TIP3 H2   HT     0.417000        1.0080           0
   48989 WT3  386  TIP3 OH2  OT    -0.834000       15.9994           0
   48990 WT3  386  TIP3 H1   HT     0.417000        1.0080           0
   48991 WT3  386  TIP3 H2   HT     0.417000        1.0080           0
   48992 WT3  388  TIP3 OH2  OT    -0.834000       15.9994           0
   48993 WT3  388  TIP3 H1   HT     0.417000        1.0080           0
   48994 WT3  388  TIP3 H2   HT     0.417000        1.0080           0
   48995 WT3  389  TIP3 OH2  OT    -0.834000       15.9994           0
   48996 WT3  389  TIP3 H1   HT     0.417000        1.0080           0
   48997 WT3  389  TIP3 H2   HT     0.417000        1.0080           0
   48998 WT3  390  TIP3 OH2  OT    -0.834000       15.9994           0
   48999 WT3  390  TIP3 H1   HT     0.417000        1.0080           0
   49000 WT3  390  TIP3 H2   HT     0.417000        1.0080           0
   49001 WT3  391  TIP3 OH2  OT    -0.834000       15.9994           0
   49002 WT3  391  TIP3 H1   HT     0.417000        1.0080           0
   49003 WT3  391  TIP3 H2   HT     0.417000        1.0080           0
   49004 WT3  392  TIP3 OH2  OT    -0.834000       15.9994           0
   49005 WT3  392  TIP3 H1   HT     0.417000        1.0080           0
   49006 WT3  392  TIP3 H2   HT     0.417000        1.0080           0
   49007 WT3  393  TIP3 OH2  OT    -0.834000       15.9994           0
   49008 WT3  393  TIP3 H1   HT     0.417000        1.0080           0
   49009 WT3  393  TIP3 H2   HT     0.417000        1.0080           0
   49010 WT3  394  TIP3 OH2  OT    -0.834000       15.9994           0
   49011 WT3  394  TIP3 H1   HT     0.417000        1.0080           0
   49012 WT3  394  TIP3 H2   HT     0.417000        1.0080           0
   49013 WT3  397  TIP3 OH2  OT    -0.834000       15.9994           0
   49014 WT3  397  TIP3 H1   HT     0.417000        1.0080           0
   49015 WT3  397  TIP3 H2   HT     0.417000        1.0080           0
   49016 WT3  398  TIP3 OH2  OT    -0.834000       15.9994           0
   49017 WT3  398  TIP3 H1   HT     0.417000        1.0080           0
   49018 WT3  398  TIP3 H2   HT     0.417000        1.0080           0
   49019 WT3  401  TIP3 OH2  OT    -0.834000       15.9994           0
   49020 WT3  401  TIP3 H1   HT     0.417000        1.0080           0
   49021 WT3  401  TIP3 H2   HT     0.417000        1.0080           0
   49022 WT3  403  TIP3 OH2  OT    -0.834000       15.9994           0
   49023 WT3  403  TIP3 H1   HT     0.417000        1.0080           0
   49024 WT3  403  TIP3 H2   HT     0.417000        1.0080           0
   49025 WT3  404  TIP3 OH2  OT    -0.834000       15.9994           0
   49026 WT3  404  TIP3 H1   HT     0.417000        1.0080           0
   49027 WT3  404  TIP3 H2   HT     0.417000        1.0080           0
   49028 WT3  405  TIP3 OH2  OT    -0.834000       15.9994           0
   49029 WT3  405  TIP3 H1   HT     0.417000        1.0080           0
   49030 WT3  405  TIP3 H2   HT     0.417000        1.0080           0
   49031 WT3  406  TIP3 OH2  OT    -0.834000       15.9994           0
   49032 WT3  406  TIP3 H1   HT     0.417000        1.0080           0
   49033 WT3  406  TIP3 H2   HT     0.417000        1.0080           0
   49034 WT3  407  TIP3 OH2  OT    -0.834000       15.9994           0
   49035 WT3  407  TIP3 H1   HT     0.417000        1.0080           0
   49036 WT3  407  TIP3 H2   HT     0.417000        1.0080           0
   49037 WT3  408  TIP3 OH2  OT    -0.834000       15.9994           0
   49038 WT3  408  TIP3 H1   HT     0.417000        1.0080           0
   49039 WT3  408  TIP3 H2   HT     0.417000        1.0080           0
   49040 WT3  409  TIP3 OH2  OT    -0.834000       15.9994           0
   49041 WT3  409  TIP3 H1   HT     0.417000        1.0080           0
   49042 WT3  409  TIP3 H2   HT     0.417000        1.0080           0
   49043 WT3  410  TIP3 OH2  OT    -0.834000       15.9994           0
   49044 WT3  410  TIP3 H1   HT     0.417000        1.0080           0
   49045 WT3  410  TIP3 H2   HT     0.417000        1.0080           0
   49046 WT3  411  TIP3 OH2  OT    -0.834000       15.9994           0
   49047 WT3  411  TIP3 H1   HT     0.417000        1.0080           0
   49048 WT3  411  TIP3 H2   HT     0.417000        1.0080           0
   49049 WT3  414  TIP3 OH2  OT    -0.834000       15.9994           0
   49050 WT3  414  TIP3 H1   HT     0.417000        1.0080           0
   49051 WT3  414  TIP3 H2   HT     0.417000        1.0080           0
   49052 WT3  416  TIP3 OH2  OT    -0.834000       15.9994           0
   49053 WT3  416  TIP3 H1   HT     0.417000        1.0080           0
   49054 WT3  416  TIP3 H2   HT     0.417000        1.0080           0
   49055 WT3  420  TIP3 OH2  OT    -0.834000       15.9994           0
   49056 WT3  420  TIP3 H1   HT     0.417000        1.0080           0
   49057 WT3  420  TIP3 H2   HT     0.417000        1.0080           0
   49058 WT3  424  TIP3 OH2  OT    -0.834000       15.9994           0
   49059 WT3  424  TIP3 H1   HT     0.417000        1.0080           0
   49060 WT3  424  TIP3 H2   HT     0.417000        1.0080           0
   49061 WT3  425  TIP3 OH2  OT    -0.834000       15.9994           0
   49062 WT3  425  TIP3 H1   HT     0.417000        1.0080           0
   49063 WT3  425  TIP3 H2   HT     0.417000        1.0080           0
   49064 WT3  426  TIP3 OH2  OT    -0.834000       15.9994           0
   49065 WT3  426  TIP3 H1   HT     0.417000        1.0080           0
   49066 WT3  426  TIP3 H2   HT     0.417000        1.0080           0
   49067 WT3  427  TIP3 OH2  OT    -0.834000       15.9994           0
   49068 WT3  427  TIP3 H1   HT     0.417000        1.0080           0
   49069 WT3  427  TIP3 H2   HT     0.417000        1.0080           0
   49070 WT3  428  TIP3 OH2  OT    -0.834000       15.9994           0
   49071 WT3  428  TIP3 H1   HT     0.417000        1.0080           0
   49072 WT3  428  TIP3 H2   HT     0.417000        1.0080           0
   49073 WT3  429  TIP3 OH2  OT    -0.834000       15.9994           0
   49074 WT3  429  TIP3 H1   HT     0.417000        1.0080           0
   49075 WT3  429  TIP3 H2   HT     0.417000        1.0080           0
   49076 WT3  430  TIP3 OH2  OT    -0.834000       15.9994           0
   49077 WT3  430  TIP3 H1   HT     0.417000        1.0080           0
   49078 WT3  430  TIP3 H2   HT     0.417000        1.0080           0
   49079 WT3  431  TIP3 OH2  OT    -0.834000       15.9994           0
   49080 WT3  431  TIP3 H1   HT     0.417000        1.0080           0
   49081 WT3  431  TIP3 H2   HT     0.417000        1.0080           0
   49082 WT3  432  TIP3 OH2  OT    -0.834000       15.9994           0
   49083 WT3  432  TIP3 H1   HT     0.417000        1.0080           0
   49084 WT3  432  TIP3 H2   HT     0.417000        1.0080           0
   49085 WT3  433  TIP3 OH2  OT    -0.834000       15.9994           0
   49086 WT3  433  TIP3 H1   HT     0.417000        1.0080           0
   49087 WT3  433  TIP3 H2   HT     0.417000        1.0080           0
   49088 WT3  435  TIP3 OH2  OT    -0.834000       15.9994           0
   49089 WT3  435  TIP3 H1   HT     0.417000        1.0080           0
   49090 WT3  435  TIP3 H2   HT     0.417000        1.0080           0
   49091 WT3  439  TIP3 OH2  OT    -0.834000       15.9994           0
   49092 WT3  439  TIP3 H1   HT     0.417000        1.0080           0
   49093 WT3  439  TIP3 H2   HT     0.417000        1.0080           0
   49094 WT3  443  TIP3 OH2  OT    -0.834000       15.9994           0
   49095 WT3  443  TIP3 H1   HT     0.417000        1.0080           0
   49096 WT3  443  TIP3 H2   HT     0.417000        1.0080           0
   49097 WT3  444  TIP3 OH2  OT    -0.834000       15.9994           0
   49098 WT3  444  TIP3 H1   HT     0.417000        1.0080           0
   49099 WT3  444  TIP3 H2   HT     0.417000        1.0080           0
   49100 WT3  445  TIP3 OH2  OT    -0.834000       15.9994           0
   49101 WT3  445  TIP3 H1   HT     0.417000        1.0080           0
   49102 WT3  445  TIP3 H2   HT     0.417000        1.0080           0
   49103 WT3  446  TIP3 OH2  OT    -0.834000       15.9994           0
   49104 WT3  446  TIP3 H1   HT     0.417000        1.0080           0
   49105 WT3  446  TIP3 H2   HT     0.417000        1.0080           0
   49106 WT3  447  TIP3 OH2  OT    -0.834000       15.9994           0
   49107 WT3  447  TIP3 H1   HT     0.417000        1.0080           0
   49108 WT3  447  TIP3 H2   HT     0.417000        1.0080           0
   49109 WT3  448  TIP3 OH2  OT    -0.834000       15.9994           0
   49110 WT3  448  TIP3 H1   HT     0.417000        1.0080           0
   49111 WT3  448  TIP3 H2   HT     0.417000        1.0080           0
   49112 WT3  450  TIP3 OH2  OT    -0.834000       15.9994           0
   49113 WT3  450  TIP3 H1   HT     0.417000        1.0080           0
   49114 WT3  450  TIP3 H2   HT     0.417000        1.0080           0
   49115 WT3  452  TIP3 OH2  OT    -0.834000       15.9994           0
   49116 WT3  452  TIP3 H1   HT     0.417000        1.0080           0
   49117 WT3  452  TIP3 H2   HT     0.417000        1.0080           0
   49118 WT3  453  TIP3 OH2  OT    -0.834000       15.9994           0
   49119 WT3  453  TIP3 H1   HT     0.417000        1.0080           0
   49120 WT3  453  TIP3 H2   HT     0.417000        1.0080           0
   49121 WT3  454  TIP3 OH2  OT    -0.834000       15.9994           0
   49122 WT3  454  TIP3 H1   HT     0.417000        1.0080           0
   49123 WT3  454  TIP3 H2   HT     0.417000        1.0080           0
   49124 WT3  455  TIP3 OH2  OT    -0.834000       15.9994           0
   49125 WT3  455  TIP3 H1   HT     0.417000        1.0080           0
   49126 WT3  455  TIP3 H2   HT     0.417000        1.0080           0
   49127 WT3  458  TIP3 OH2  OT    -0.834000       15.9994           0
   49128 WT3  458  TIP3 H1   HT     0.417000        1.0080           0
   49129 WT3  458  TIP3 H2   HT     0.417000        1.0080           0
   49130 WT3  460  TIP3 OH2  OT    -0.834000       15.9994           0
   49131 WT3  460  TIP3 H1   HT     0.417000        1.0080           0
   49132 WT3  460  TIP3 H2   HT     0.417000        1.0080           0
   49133 WT3  465  TIP3 OH2  OT    -0.834000       15.9994           0
   49134 WT3  465  TIP3 H1   HT     0.417000        1.0080           0
   49135 WT3  465  TIP3 H2   HT     0.417000        1.0080           0
   49136 WT3  467  TIP3 OH2  OT    -0.834000       15.9994           0
   49137 WT3  467  TIP3 H1   HT     0.417000        1.0080           0
   49138 WT3  467  TIP3 H2   HT     0.417000        1.0080           0
   49139 WT3  468  TIP3 OH2  OT    -0.834000       15.9994           0
   49140 WT3  468  TIP3 H1   HT     0.417000        1.0080           0
   49141 WT3  468  TIP3 H2   HT     0.417000        1.0080           0
   49142 WT3  469  TIP3 OH2  OT    -0.834000       15.9994           0
   49143 WT3  469  TIP3 H1   HT     0.417000        1.0080           0
   49144 WT3  469  TIP3 H2   HT     0.417000        1.0080           0
   49145 WT3  470  TIP3 OH2  OT    -0.834000       15.9994           0
   49146 WT3  470  TIP3 H1   HT     0.417000        1.0080           0
   49147 WT3  470  TIP3 H2   HT     0.417000        1.0080           0
   49148 WT3  471  TIP3 OH2  OT    -0.834000       15.9994           0
   49149 WT3  471  TIP3 H1   HT     0.417000        1.0080           0
   49150 WT3  471  TIP3 H2   HT     0.417000        1.0080           0
   49151 WT3  473  TIP3 OH2  OT    -0.834000       15.9994           0
   49152 WT3  473  TIP3 H1   HT     0.417000        1.0080           0
   49153 WT3  473  TIP3 H2   HT     0.417000        1.0080           0
   49154 WT3  474  TIP3 OH2  OT    -0.834000       15.9994           0
   49155 WT3  474  TIP3 H1   HT     0.417000        1.0080           0
   49156 WT3  474  TIP3 H2   HT     0.417000        1.0080           0
   49157 WT3  475  TIP3 OH2  OT    -0.834000       15.9994           0
   49158 WT3  475  TIP3 H1   HT     0.417000        1.0080           0
   49159 WT3  475  TIP3 H2   HT     0.417000        1.0080           0
   49160 WT3  476  TIP3 OH2  OT    -0.834000       15.9994           0
   49161 WT3  476  TIP3 H1   HT     0.417000        1.0080           0
   49162 WT3  476  TIP3 H2   HT     0.417000        1.0080           0
   49163 WT3  477  TIP3 OH2  OT    -0.834000       15.9994           0
   49164 WT3  477  TIP3 H1   HT     0.417000        1.0080           0
   49165 WT3  477  TIP3 H2   HT     0.417000        1.0080           0
   49166 WT3  478  TIP3 OH2  OT    -0.834000       15.9994           0
   49167 WT3  478  TIP3 H1   HT     0.417000        1.0080           0
   49168 WT3  478  TIP3 H2   HT     0.417000        1.0080           0
   49169 WT3  480  TIP3 OH2  OT    -0.834000       15.9994           0
   49170 WT3  480  TIP3 H1   HT     0.417000        1.0080           0
   49171 WT3  480  TIP3 H2   HT     0.417000        1.0080           0
   49172 WT3  481  TIP3 OH2  OT    -0.834000       15.9994           0
   49173 WT3  481  TIP3 H1   HT     0.417000        1.0080           0
   49174 WT3  481  TIP3 H2   HT     0.417000        1.0080           0
   49175 WT3  483  TIP3 OH2  OT    -0.834000       15.9994           0
   49176 WT3  483  TIP3 H1   HT     0.417000        1.0080           0
   49177 WT3  483  TIP3 H2   HT     0.417000        1.0080           0
   49178 WT3  484  TIP3 OH2  OT    -0.834000       15.9994           0
   49179 WT3  484  TIP3 H1   HT     0.417000        1.0080           0
   49180 WT3  484  TIP3 H2   HT     0.417000        1.0080           0
   49181 WT3  489  TIP3 OH2  OT    -0.834000       15.9994           0
   49182 WT3  489  TIP3 H1   HT     0.417000        1.0080           0
   49183 WT3  489  TIP3 H2   HT     0.417000        1.0080           0
   49184 WT3  490  TIP3 OH2  OT    -0.834000       15.9994           0
   49185 WT3  490  TIP3 H1   HT     0.417000        1.0080           0
   49186 WT3  490  TIP3 H2   HT     0.417000        1.0080           0
   49187 WT3  491  TIP3 OH2  OT    -0.834000       15.9994           0
   49188 WT3  491  TIP3 H1   HT     0.417000        1.0080           0
   49189 WT3  491  TIP3 H2   HT     0.417000        1.0080           0
   49190 WT3  492  TIP3 OH2  OT    -0.834000       15.9994           0
   49191 WT3  492  TIP3 H1   HT     0.417000        1.0080           0
   49192 WT3  492  TIP3 H2   HT     0.417000        1.0080           0
   49193 WT3  493  TIP3 OH2  OT    -0.834000       15.9994           0
   49194 WT3  493  TIP3 H1   HT     0.417000        1.0080           0
   49195 WT3  493  TIP3 H2   HT     0.417000        1.0080           0
   49196 WT3  494  TIP3 OH2  OT    -0.834000       15.9994           0
   49197 WT3  494  TIP3 H1   HT     0.417000        1.0080           0
   49198 WT3  494  TIP3 H2   HT     0.417000        1.0080           0
   49199 WT3  495  TIP3 OH2  OT    -0.834000       15.9994           0
   49200 WT3  495  TIP3 H1   HT     0.417000        1.0080           0
   49201 WT3  495  TIP3 H2   HT     0.417000        1.0080           0
   49202 WT3  496  TIP3 OH2  OT    -0.834000       15.9994           0
   49203 WT3  496  TIP3 H1   HT     0.417000        1.0080           0
   49204 WT3  496  TIP3 H2   HT     0.417000        1.0080           0
   49205 WT3  498  TIP3 OH2  OT    -0.834000       15.9994           0
   49206 WT3  498  TIP3 H1   HT     0.417000        1.0080           0
   49207 WT3  498  TIP3 H2   HT     0.417000        1.0080           0
   49208 WT3  499  TIP3 OH2  OT    -0.834000       15.9994           0
   49209 WT3  499  TIP3 H1   HT     0.417000        1.0080           0
   49210 WT3  499  TIP3 H2   HT     0.417000        1.0080           0
   49211 WT3  503  TIP3 OH2  OT    -0.834000       15.9994           0
   49212 WT3  503  TIP3 H1   HT     0.417000        1.0080           0
   49213 WT3  503  TIP3 H2   HT     0.417000        1.0080           0
   49214 WT3  506  TIP3 OH2  OT    -0.834000       15.9994           0
   49215 WT3  506  TIP3 H1   HT     0.417000        1.0080           0
   49216 WT3  506  TIP3 H2   HT     0.417000        1.0080           0
   49217 WT3  507  TIP3 OH2  OT    -0.834000       15.9994           0
   49218 WT3  507  TIP3 H1   HT     0.417000        1.0080           0
   49219 WT3  507  TIP3 H2   HT     0.417000        1.0080           0
   49220 WT3  508  TIP3 OH2  OT    -0.834000       15.9994           0
   49221 WT3  508  TIP3 H1   HT     0.417000        1.0080           0
   49222 WT3  508  TIP3 H2   HT     0.417000        1.0080           0
   49223 WT3  509  TIP3 OH2  OT    -0.834000       15.9994           0
   49224 WT3  509  TIP3 H1   HT     0.417000        1.0080           0
   49225 WT3  509  TIP3 H2   HT     0.417000        1.0080           0
   49226 WT3  510  TIP3 OH2  OT    -0.834000       15.9994           0
   49227 WT3  510  TIP3 H1   HT     0.417000        1.0080           0
   49228 WT3  510  TIP3 H2   HT     0.417000        1.0080           0
   49229 WT3  511  TIP3 OH2  OT    -0.834000       15.9994           0
   49230 WT3  511  TIP3 H1   HT     0.417000        1.0080           0
   49231 WT3  511  TIP3 H2   HT     0.417000        1.0080           0
   49232 WT3  512  TIP3 OH2  OT    -0.834000       15.9994           0
   49233 WT3  512  TIP3 H1   HT     0.417000        1.0080           0
   49234 WT3  512  TIP3 H2   HT     0.417000        1.0080           0
   49235 WT3  513  TIP3 OH2  OT    -0.834000       15.9994           0
   49236 WT3  513  TIP3 H1   HT     0.417000        1.0080           0
   49237 WT3  513  TIP3 H2   HT     0.417000        1.0080           0
   49238 WT3  514  TIP3 OH2  OT    -0.834000       15.9994           0
   49239 WT3  514  TIP3 H1   HT     0.417000        1.0080           0
   49240 WT3  514  TIP3 H2   HT     0.417000        1.0080           0
   49241 WT3  515  TIP3 OH2  OT    -0.834000       15.9994           0
   49242 WT3  515  TIP3 H1   HT     0.417000        1.0080           0
   49243 WT3  515  TIP3 H2   HT     0.417000        1.0080           0
   49244 WT3  516  TIP3 OH2  OT    -0.834000       15.9994           0
   49245 WT3  516  TIP3 H1   HT     0.417000        1.0080           0
   49246 WT3  516  TIP3 H2   HT     0.417000        1.0080           0
   49247 WT3  519  TIP3 OH2  OT    -0.834000       15.9994           0
   49248 WT3  519  TIP3 H1   HT     0.417000        1.0080           0
   49249 WT3  519  TIP3 H2   HT     0.417000        1.0080           0
   49250 WT3  529  TIP3 OH2  OT    -0.834000       15.9994           0
   49251 WT3  529  TIP3 H1   HT     0.417000        1.0080           0
   49252 WT3  529  TIP3 H2   HT     0.417000        1.0080           0
   49253 WT3  531  TIP3 OH2  OT    -0.834000       15.9994           0
   49254 WT3  531  TIP3 H1   HT     0.417000        1.0080           0
   49255 WT3  531  TIP3 H2   HT     0.417000        1.0080           0
   49256 WT3  532  TIP3 OH2  OT    -0.834000       15.9994           0
   49257 WT3  532  TIP3 H1   HT     0.417000        1.0080           0
   49258 WT3  532  TIP3 H2   HT     0.417000        1.0080           0
   49259 WT3  533  TIP3 OH2  OT    -0.834000       15.9994           0
   49260 WT3  533  TIP3 H1   HT     0.417000        1.0080           0
   49261 WT3  533  TIP3 H2   HT     0.417000        1.0080           0
   49262 WT3  537  TIP3 OH2  OT    -0.834000       15.9994           0
   49263 WT3  537  TIP3 H1   HT     0.417000        1.0080           0
   49264 WT3  537  TIP3 H2   HT     0.417000        1.0080           0
   49265 WT3  538  TIP3 OH2  OT    -0.834000       15.9994           0
   49266 WT3  538  TIP3 H1   HT     0.417000        1.0080           0
   49267 WT3  538  TIP3 H2   HT     0.417000        1.0080           0
   49268 WT3  540  TIP3 OH2  OT    -0.834000       15.9994           0
   49269 WT3  540  TIP3 H1   HT     0.417000        1.0080           0
   49270 WT3  540  TIP3 H2   HT     0.417000        1.0080           0
   49271 WT3  543  TIP3 OH2  OT    -0.834000       15.9994           0
   49272 WT3  543  TIP3 H1   HT     0.417000        1.0080           0
   49273 WT3  543  TIP3 H2   HT     0.417000        1.0080           0
   49274 WT3  547  TIP3 OH2  OT    -0.834000       15.9994           0
   49275 WT3  547  TIP3 H1   HT     0.417000        1.0080           0
   49276 WT3  547  TIP3 H2   HT     0.417000        1.0080           0
   49277 WT3  549  TIP3 OH2  OT    -0.834000       15.9994           0
   49278 WT3  549  TIP3 H1   HT     0.417000        1.0080           0
   49279 WT3  549  TIP3 H2   HT     0.417000        1.0080           0
   49280 WT3  550  TIP3 OH2  OT    -0.834000       15.9994           0
   49281 WT3  550  TIP3 H1   HT     0.417000        1.0080           0
   49282 WT3  550  TIP3 H2   HT     0.417000        1.0080           0
   49283 WT3  551  TIP3 OH2  OT    -0.834000       15.9994           0
   49284 WT3  551  TIP3 H1   HT     0.417000        1.0080           0
   49285 WT3  551  TIP3 H2   HT     0.417000        1.0080           0
   49286 WT3  553  TIP3 OH2  OT    -0.834000       15.9994           0
   49287 WT3  553  TIP3 H1   HT     0.417000        1.0080           0
   49288 WT3  553  TIP3 H2   HT     0.417000        1.0080           0
   49289 WT3  554  TIP3 OH2  OT    -0.834000       15.9994           0
   49290 WT3  554  TIP3 H1   HT     0.417000        1.0080           0
   49291 WT3  554  TIP3 H2   HT     0.417000        1.0080           0
   49292 WT3  556  TIP3 OH2  OT    -0.834000       15.9994           0
   49293 WT3  556  TIP3 H1   HT     0.417000        1.0080           0
   49294 WT3  556  TIP3 H2   HT     0.417000        1.0080           0
   49295 WT3  557  TIP3 OH2  OT    -0.834000       15.9994           0
   49296 WT3  557  TIP3 H1   HT     0.417000        1.0080           0
   49297 WT3  557  TIP3 H2   HT     0.417000        1.0080           0
   49298 WT3  558  TIP3 OH2  OT    -0.834000       15.9994           0
   49299 WT3  558  TIP3 H1   HT     0.417000        1.0080           0
   49300 WT3  558  TIP3 H2   HT     0.417000        1.0080           0
   49301 WT3  562  TIP3 OH2  OT    -0.834000       15.9994           0
   49302 WT3  562  TIP3 H1   HT     0.417000        1.0080           0
   49303 WT3  562  TIP3 H2   HT     0.417000        1.0080           0
   49304 WT3  563  TIP3 OH2  OT    -0.834000       15.9994           0
   49305 WT3  563  TIP3 H1   HT     0.417000        1.0080           0
   49306 WT3  563  TIP3 H2   HT     0.417000        1.0080           0
   49307 WT3  568  TIP3 OH2  OT    -0.834000       15.9994           0
   49308 WT3  568  TIP3 H1   HT     0.417000        1.0080           0
   49309 WT3  568  TIP3 H2   HT     0.417000        1.0080           0
   49310 WT3  570  TIP3 OH2  OT    -0.834000       15.9994           0
   49311 WT3  570  TIP3 H1   HT     0.417000        1.0080           0
   49312 WT3  570  TIP3 H2   HT     0.417000        1.0080           0
   49313 WT3  572  TIP3 OH2  OT    -0.834000       15.9994           0
   49314 WT3  572  TIP3 H1   HT     0.417000        1.0080           0
   49315 WT3  572  TIP3 H2   HT     0.417000        1.0080           0
   49316 WT3  573  TIP3 OH2  OT    -0.834000       15.9994           0
   49317 WT3  573  TIP3 H1   HT     0.417000        1.0080           0
   49318 WT3  573  TIP3 H2   HT     0.417000        1.0080           0
   49319 WT3  574  TIP3 OH2  OT    -0.834000       15.9994           0
   49320 WT3  574  TIP3 H1   HT     0.417000        1.0080           0
   49321 WT3  574  TIP3 H2   HT     0.417000        1.0080           0
   49322 WT3  575  TIP3 OH2  OT    -0.834000       15.9994           0
   49323 WT3  575  TIP3 H1   HT     0.417000        1.0080           0
   49324 WT3  575  TIP3 H2   HT     0.417000        1.0080           0
   49325 WT3  576  TIP3 OH2  OT    -0.834000       15.9994           0
   49326 WT3  576  TIP3 H1   HT     0.417000        1.0080           0
   49327 WT3  576  TIP3 H2   HT     0.417000        1.0080           0
   49328 WT3  577  TIP3 OH2  OT    -0.834000       15.9994           0
   49329 WT3  577  TIP3 H1   HT     0.417000        1.0080           0
   49330 WT3  577  TIP3 H2   HT     0.417000        1.0080           0
   49331 WT3  578  TIP3 OH2  OT    -0.834000       15.9994           0
   49332 WT3  578  TIP3 H1   HT     0.417000        1.0080           0
   49333 WT3  578  TIP3 H2   HT     0.417000        1.0080           0
   49334 WT3  580  TIP3 OH2  OT    -0.834000       15.9994           0
   49335 WT3  580  TIP3 H1   HT     0.417000        1.0080           0
   49336 WT3  580  TIP3 H2   HT     0.417000        1.0080           0
   49337 WT3  584  TIP3 OH2  OT    -0.834000       15.9994           0
   49338 WT3  584  TIP3 H1   HT     0.417000        1.0080           0
   49339 WT3  584  TIP3 H2   HT     0.417000        1.0080           0
   49340 WT3  588  TIP3 OH2  OT    -0.834000       15.9994           0
   49341 WT3  588  TIP3 H1   HT     0.417000        1.0080           0
   49342 WT3  588  TIP3 H2   HT     0.417000        1.0080           0
   49343 WT3  591  TIP3 OH2  OT    -0.834000       15.9994           0
   49344 WT3  591  TIP3 H1   HT     0.417000        1.0080           0
   49345 WT3  591  TIP3 H2   HT     0.417000        1.0080           0
   49346 WT3  592  TIP3 OH2  OT    -0.834000       15.9994           0
   49347 WT3  592  TIP3 H1   HT     0.417000        1.0080           0
   49348 WT3  592  TIP3 H2   HT     0.417000        1.0080           0
   49349 WT3  593  TIP3 OH2  OT    -0.834000       15.9994           0
   49350 WT3  593  TIP3 H1   HT     0.417000        1.0080           0
   49351 WT3  593  TIP3 H2   HT     0.417000        1.0080           0
   49352 WT3  594  TIP3 OH2  OT    -0.834000       15.9994           0
   49353 WT3  594  TIP3 H1   HT     0.417000        1.0080           0
   49354 WT3  594  TIP3 H2   HT     0.417000        1.0080           0
   49355 WT3  595  TIP3 OH2  OT    -0.834000       15.9994           0
   49356 WT3  595  TIP3 H1   HT     0.417000        1.0080           0
   49357 WT3  595  TIP3 H2   HT     0.417000        1.0080           0
   49358 WT3  596  TIP3 OH2  OT    -0.834000       15.9994           0
   49359 WT3  596  TIP3 H1   HT     0.417000        1.0080           0
   49360 WT3  596  TIP3 H2   HT     0.417000        1.0080           0
   49361 WT3  597  TIP3 OH2  OT    -0.834000       15.9994           0
   49362 WT3  597  TIP3 H1   HT     0.417000        1.0080           0
   49363 WT3  597  TIP3 H2   HT     0.417000        1.0080           0
   49364 WT3  600  TIP3 OH2  OT    -0.834000       15.9994           0
   49365 WT3  600  TIP3 H1   HT     0.417000        1.0080           0
   49366 WT3  600  TIP3 H2   HT     0.417000        1.0080           0
   49367 WT3  601  TIP3 OH2  OT    -0.834000       15.9994           0
   49368 WT3  601  TIP3 H1   HT     0.417000        1.0080           0
   49369 WT3  601  TIP3 H2   HT     0.417000        1.0080           0
   49370 WT3  602  TIP3 OH2  OT    -0.834000       15.9994           0
   49371 WT3  602  TIP3 H1   HT     0.417000        1.0080           0
   49372 WT3  602  TIP3 H2   HT     0.417000        1.0080           0
   49373 WT3  611  TIP3 OH2  OT    -0.834000       15.9994           0
   49374 WT3  611  TIP3 H1   HT     0.417000        1.0080           0
   49375 WT3  611  TIP3 H2   HT     0.417000        1.0080           0
   49376 WT3  612  TIP3 OH2  OT    -0.834000       15.9994           0
   49377 WT3  612  TIP3 H1   HT     0.417000        1.0080           0
   49378 WT3  612  TIP3 H2   HT     0.417000        1.0080           0
   49379 WT3  613  TIP3 OH2  OT    -0.834000       15.9994           0
   49380 WT3  613  TIP3 H1   HT     0.417000        1.0080           0
   49381 WT3  613  TIP3 H2   HT     0.417000        1.0080           0
   49382 WT3  615  TIP3 OH2  OT    -0.834000       15.9994           0
   49383 WT3  615  TIP3 H1   HT     0.417000        1.0080           0
   49384 WT3  615  TIP3 H2   HT     0.417000        1.0080           0
   49385 WT3  616  TIP3 OH2  OT    -0.834000       15.9994           0
   49386 WT3  616  TIP3 H1   HT     0.417000        1.0080           0
   49387 WT3  616  TIP3 H2   HT     0.417000        1.0080           0
   49388 WT3  617  TIP3 OH2  OT    -0.834000       15.9994           0
   49389 WT3  617  TIP3 H1   HT     0.417000        1.0080           0
   49390 WT3  617  TIP3 H2   HT     0.417000        1.0080           0
   49391 WT3  618  TIP3 OH2  OT    -0.834000       15.9994           0
   49392 WT3  618  TIP3 H1   HT     0.417000        1.0080           0
   49393 WT3  618  TIP3 H2   HT     0.417000        1.0080           0
   49394 WT3  619  TIP3 OH2  OT    -0.834000       15.9994           0
   49395 WT3  619  TIP3 H1   HT     0.417000        1.0080           0
   49396 WT3  619  TIP3 H2   HT     0.417000        1.0080           0
   49397 WT3  620  TIP3 OH2  OT    -0.834000       15.9994           0
   49398 WT3  620  TIP3 H1   HT     0.417000        1.0080           0
   49399 WT3  620  TIP3 H2   HT     0.417000        1.0080           0
   49400 WT3  621  TIP3 OH2  OT    -0.834000       15.9994           0
   49401 WT3  621  TIP3 H1   HT     0.417000        1.0080           0
   49402 WT3  621  TIP3 H2   HT     0.417000        1.0080           0
   49403 WT3  623  TIP3 OH2  OT    -0.834000       15.9994           0
   49404 WT3  623  TIP3 H1   HT     0.417000        1.0080           0
   49405 WT3  623  TIP3 H2   HT     0.417000        1.0080           0
   49406 WT3  624  TIP3 OH2  OT    -0.834000       15.9994           0
   49407 WT3  624  TIP3 H1   HT     0.417000        1.0080           0
   49408 WT3  624  TIP3 H2   HT     0.417000        1.0080           0
   49409 WT3  625  TIP3 OH2  OT    -0.834000       15.9994           0
   49410 WT3  625  TIP3 H1   HT     0.417000        1.0080           0
   49411 WT3  625  TIP3 H2   HT     0.417000        1.0080           0
   49412 WT3  626  TIP3 OH2  OT    -0.834000       15.9994           0
   49413 WT3  626  TIP3 H1   HT     0.417000        1.0080           0
   49414 WT3  626  TIP3 H2   HT     0.417000        1.0080           0
   49415 WT3  632  TIP3 OH2  OT    -0.834000       15.9994           0
   49416 WT3  632  TIP3 H1   HT     0.417000        1.0080           0
   49417 WT3  632  TIP3 H2   HT     0.417000        1.0080           0
   49418 WT3  634  TIP3 OH2  OT    -0.834000       15.9994           0
   49419 WT3  634  TIP3 H1   HT     0.417000        1.0080           0
   49420 WT3  634  TIP3 H2   HT     0.417000        1.0080           0
   49421 WT3  635  TIP3 OH2  OT    -0.834000       15.9994           0
   49422 WT3  635  TIP3 H1   HT     0.417000        1.0080           0
   49423 WT3  635  TIP3 H2   HT     0.417000        1.0080           0
   49424 WT3  636  TIP3 OH2  OT    -0.834000       15.9994           0
   49425 WT3  636  TIP3 H1   HT     0.417000        1.0080           0
   49426 WT3  636  TIP3 H2   HT     0.417000        1.0080           0
   49427 WT3  638  TIP3 OH2  OT    -0.834000       15.9994           0
   49428 WT3  638  TIP3 H1   HT     0.417000        1.0080           0
   49429 WT3  638  TIP3 H2   HT     0.417000        1.0080           0
   49430 WT3  639  TIP3 OH2  OT    -0.834000       15.9994           0
   49431 WT3  639  TIP3 H1   HT     0.417000        1.0080           0
   49432 WT3  639  TIP3 H2   HT     0.417000        1.0080           0
   49433 WT3  640  TIP3 OH2  OT    -0.834000       15.9994           0
   49434 WT3  640  TIP3 H1   HT     0.417000        1.0080           0
   49435 WT3  640  TIP3 H2   HT     0.417000        1.0080           0
   49436 WT3  641  TIP3 OH2  OT    -0.834000       15.9994           0
   49437 WT3  641  TIP3 H1   HT     0.417000        1.0080           0
   49438 WT3  641  TIP3 H2   HT     0.417000        1.0080           0
   49439 WT3  642  TIP3 OH2  OT    -0.834000       15.9994           0
   49440 WT3  642  TIP3 H1   HT     0.417000        1.0080           0
   49441 WT3  642  TIP3 H2   HT     0.417000        1.0080           0
   49442 WT3  643  TIP3 OH2  OT    -0.834000       15.9994           0
   49443 WT3  643  TIP3 H1   HT     0.417000        1.0080           0
   49444 WT3  643  TIP3 H2   HT     0.417000        1.0080           0
   49445 WT3  645  TIP3 OH2  OT    -0.834000       15.9994           0
   49446 WT3  645  TIP3 H1   HT     0.417000        1.0080           0
   49447 WT3  645  TIP3 H2   HT     0.417000        1.0080           0
   49448 WT3  648  TIP3 OH2  OT    -0.834000       15.9994           0
   49449 WT3  648  TIP3 H1   HT     0.417000        1.0080           0
   49450 WT3  648  TIP3 H2   HT     0.417000        1.0080           0
   49451 WT3  653  TIP3 OH2  OT    -0.834000       15.9994           0
   49452 WT3  653  TIP3 H1   HT     0.417000        1.0080           0
   49453 WT3  653  TIP3 H2   HT     0.417000        1.0080           0
   49454 WT3  654  TIP3 OH2  OT    -0.834000       15.9994           0
   49455 WT3  654  TIP3 H1   HT     0.417000        1.0080           0
   49456 WT3  654  TIP3 H2   HT     0.417000        1.0080           0
   49457 WT3  656  TIP3 OH2  OT    -0.834000       15.9994           0
   49458 WT3  656  TIP3 H1   HT     0.417000        1.0080           0
   49459 WT3  656  TIP3 H2   HT     0.417000        1.0080           0
   49460 WT3  657  TIP3 OH2  OT    -0.834000       15.9994           0
   49461 WT3  657  TIP3 H1   HT     0.417000        1.0080           0
   49462 WT3  657  TIP3 H2   HT     0.417000        1.0080           0
   49463 WT3  658  TIP3 OH2  OT    -0.834000       15.9994           0
   49464 WT3  658  TIP3 H1   HT     0.417000        1.0080           0
   49465 WT3  658  TIP3 H2   HT     0.417000        1.0080           0
   49466 WT3  659  TIP3 OH2  OT    -0.834000       15.9994           0
   49467 WT3  659  TIP3 H1   HT     0.417000        1.0080           0
   49468 WT3  659  TIP3 H2   HT     0.417000        1.0080           0
   49469 WT3  660  TIP3 OH2  OT    -0.834000       15.9994           0
   49470 WT3  660  TIP3 H1   HT     0.417000        1.0080           0
   49471 WT3  660  TIP3 H2   HT     0.417000        1.0080           0
   49472 WT3  661  TIP3 OH2  OT    -0.834000       15.9994           0
   49473 WT3  661  TIP3 H1   HT     0.417000        1.0080           0
   49474 WT3  661  TIP3 H2   HT     0.417000        1.0080           0
   49475 WT3  662  TIP3 OH2  OT    -0.834000       15.9994           0
   49476 WT3  662  TIP3 H1   HT     0.417000        1.0080           0
   49477 WT3  662  TIP3 H2   HT     0.417000        1.0080           0
   49478 WT3  663  TIP3 OH2  OT    -0.834000       15.9994           0
   49479 WT3  663  TIP3 H1   HT     0.417000        1.0080           0
   49480 WT3  663  TIP3 H2   HT     0.417000        1.0080           0
   49481 WT3  666  TIP3 OH2  OT    -0.834000       15.9994           0
   49482 WT3  666  TIP3 H1   HT     0.417000        1.0080           0
   49483 WT3  666  TIP3 H2   HT     0.417000        1.0080           0
   49484 WT3  672  TIP3 OH2  OT    -0.834000       15.9994           0
   49485 WT3  672  TIP3 H1   HT     0.417000        1.0080           0
   49486 WT3  672  TIP3 H2   HT     0.417000        1.0080           0
   49487 WT3  674  TIP3 OH2  OT    -0.834000       15.9994           0
   49488 WT3  674  TIP3 H1   HT     0.417000        1.0080           0
   49489 WT3  674  TIP3 H2   HT     0.417000        1.0080           0
   49490 WT3  675  TIP3 OH2  OT    -0.834000       15.9994           0
   49491 WT3  675  TIP3 H1   HT     0.417000        1.0080           0
   49492 WT3  675  TIP3 H2   HT     0.417000        1.0080           0
   49493 WT3  676  TIP3 OH2  OT    -0.834000       15.9994           0
   49494 WT3  676  TIP3 H1   HT     0.417000        1.0080           0
   49495 WT3  676  TIP3 H2   HT     0.417000        1.0080           0
   49496 WT3  677  TIP3 OH2  OT    -0.834000       15.9994           0
   49497 WT3  677  TIP3 H1   HT     0.417000        1.0080           0
   49498 WT3  677  TIP3 H2   HT     0.417000        1.0080           0
   49499 WT3  679  TIP3 OH2  OT    -0.834000       15.9994           0
   49500 WT3  679  TIP3 H1   HT     0.417000        1.0080           0
   49501 WT3  679  TIP3 H2   HT     0.417000        1.0080           0
   49502 WT3  680  TIP3 OH2  OT    -0.834000       15.9994           0
   49503 WT3  680  TIP3 H1   HT     0.417000        1.0080           0
   49504 WT3  680  TIP3 H2   HT     0.417000        1.0080           0
   49505 WT3  681  TIP3 OH2  OT    -0.834000       15.9994           0
   49506 WT3  681  TIP3 H1   HT     0.417000        1.0080           0
   49507 WT3  681  TIP3 H2   HT     0.417000        1.0080           0
   49508 WT3  682  TIP3 OH2  OT    -0.834000       15.9994           0
   49509 WT3  682  TIP3 H1   HT     0.417000        1.0080           0
   49510 WT3  682  TIP3 H2   HT     0.417000        1.0080           0
   49511 WT3  683  TIP3 OH2  OT    -0.834000       15.9994           0
   49512 WT3  683  TIP3 H1   HT     0.417000        1.0080           0
   49513 WT3  683  TIP3 H2   HT     0.417000        1.0080           0
   49514 WT3  684  TIP3 OH2  OT    -0.834000       15.9994           0
   49515 WT3  684  TIP3 H1   HT     0.417000        1.0080           0
   49516 WT3  684  TIP3 H2   HT     0.417000        1.0080           0
   49517 WT3  685  TIP3 OH2  OT    -0.834000       15.9994           0
   49518 WT3  685  TIP3 H1   HT     0.417000        1.0080           0
   49519 WT3  685  TIP3 H2   HT     0.417000        1.0080           0
   49520 WT3  686  TIP3 OH2  OT    -0.834000       15.9994           0
   49521 WT3  686  TIP3 H1   HT     0.417000        1.0080           0
   49522 WT3  686  TIP3 H2   HT     0.417000        1.0080           0
   49523 WT3  687  TIP3 OH2  OT    -0.834000       15.9994           0
   49524 WT3  687  TIP3 H1   HT     0.417000        1.0080           0
   49525 WT3  687  TIP3 H2   HT     0.417000        1.0080           0
   49526 WT3  690  TIP3 OH2  OT    -0.834000       15.9994           0
   49527 WT3  690  TIP3 H1   HT     0.417000        1.0080           0
   49528 WT3  690  TIP3 H2   HT     0.417000        1.0080           0
   49529 WT3  692  TIP3 OH2  OT    -0.834000       15.9994           0
   49530 WT3  692  TIP3 H1   HT     0.417000        1.0080           0
   49531 WT3  692  TIP3 H2   HT     0.417000        1.0080           0
   49532 WT3  696  TIP3 OH2  OT    -0.834000       15.9994           0
   49533 WT3  696  TIP3 H1   HT     0.417000        1.0080           0
   49534 WT3  696  TIP3 H2   HT     0.417000        1.0080           0
   49535 WT3  697  TIP3 OH2  OT    -0.834000       15.9994           0
   49536 WT3  697  TIP3 H1   HT     0.417000        1.0080           0
   49537 WT3  697  TIP3 H2   HT     0.417000        1.0080           0
   49538 WT3  698  TIP3 OH2  OT    -0.834000       15.9994           0
   49539 WT3  698  TIP3 H1   HT     0.417000        1.0080           0
   49540 WT3  698  TIP3 H2   HT     0.417000        1.0080           0
   49541 WT3  699  TIP3 OH2  OT    -0.834000       15.9994           0
   49542 WT3  699  TIP3 H1   HT     0.417000        1.0080           0
   49543 WT3  699  TIP3 H2   HT     0.417000        1.0080           0
   49544 WT3  702  TIP3 OH2  OT    -0.834000       15.9994           0
   49545 WT3  702  TIP3 H1   HT     0.417000        1.0080           0
   49546 WT3  702  TIP3 H2   HT     0.417000        1.0080           0
   49547 WT3  703  TIP3 OH2  OT    -0.834000       15.9994           0
   49548 WT3  703  TIP3 H1   HT     0.417000        1.0080           0
   49549 WT3  703  TIP3 H2   HT     0.417000        1.0080           0
   49550 WT3  704  TIP3 OH2  OT    -0.834000       15.9994           0
   49551 WT3  704  TIP3 H1   HT     0.417000        1.0080           0
   49552 WT3  704  TIP3 H2   HT     0.417000        1.0080           0
   49553 WT3  705  TIP3 OH2  OT    -0.834000       15.9994           0
   49554 WT3  705  TIP3 H1   HT     0.417000        1.0080           0
   49555 WT3  705  TIP3 H2   HT     0.417000        1.0080           0
   49556 WT3  706  TIP3 OH2  OT    -0.834000       15.9994           0
   49557 WT3  706  TIP3 H1   HT     0.417000        1.0080           0
   49558 WT3  706  TIP3 H2   HT     0.417000        1.0080           0
   49559 WT3  707  TIP3 OH2  OT    -0.834000       15.9994           0
   49560 WT3  707  TIP3 H1   HT     0.417000        1.0080           0
   49561 WT3  707  TIP3 H2   HT     0.417000        1.0080           0
   49562 WT3  708  TIP3 OH2  OT    -0.834000       15.9994           0
   49563 WT3  708  TIP3 H1   HT     0.417000        1.0080           0
   49564 WT3  708  TIP3 H2   HT     0.417000        1.0080           0
   49565 WT3  710  TIP3 OH2  OT    -0.834000       15.9994           0
   49566 WT3  710  TIP3 H1   HT     0.417000        1.0080           0
   49567 WT3  710  TIP3 H2   HT     0.417000        1.0080           0
   49568 WT3  713  TIP3 OH2  OT    -0.834000       15.9994           0
   49569 WT3  713  TIP3 H1   HT     0.417000        1.0080           0
   49570 WT3  713  TIP3 H2   HT     0.417000        1.0080           0
   49571 WT3  715  TIP3 OH2  OT    -0.834000       15.9994           0
   49572 WT3  715  TIP3 H1   HT     0.417000        1.0080           0
   49573 WT3  715  TIP3 H2   HT     0.417000        1.0080           0
   49574 WT3  717  TIP3 OH2  OT    -0.834000       15.9994           0
   49575 WT3  717  TIP3 H1   HT     0.417000        1.0080           0
   49576 WT3  717  TIP3 H2   HT     0.417000        1.0080           0
   49577 WT3  718  TIP3 OH2  OT    -0.834000       15.9994           0
   49578 WT3  718  TIP3 H1   HT     0.417000        1.0080           0
   49579 WT3  718  TIP3 H2   HT     0.417000        1.0080           0
   49580 WT3  719  TIP3 OH2  OT    -0.834000       15.9994           0
   49581 WT3  719  TIP3 H1   HT     0.417000        1.0080           0
   49582 WT3  719  TIP3 H2   HT     0.417000        1.0080           0
   49583 WT3  720  TIP3 OH2  OT    -0.834000       15.9994           0
   49584 WT3  720  TIP3 H1   HT     0.417000        1.0080           0
   49585 WT3  720  TIP3 H2   HT     0.417000        1.0080           0
   49586 WT3  721  TIP3 OH2  OT    -0.834000       15.9994           0
   49587 WT3  721  TIP3 H1   HT     0.417000        1.0080           0
   49588 WT3  721  TIP3 H2   HT     0.417000        1.0080           0
   49589 WT3  722  TIP3 OH2  OT    -0.834000       15.9994           0
   49590 WT3  722  TIP3 H1   HT     0.417000        1.0080           0
   49591 WT3  722  TIP3 H2   HT     0.417000        1.0080           0
   49592 WT3  723  TIP3 OH2  OT    -0.834000       15.9994           0
   49593 WT3  723  TIP3 H1   HT     0.417000        1.0080           0
   49594 WT3  723  TIP3 H2   HT     0.417000        1.0080           0
   49595 WT3  724  TIP3 OH2  OT    -0.834000       15.9994           0
   49596 WT3  724  TIP3 H1   HT     0.417000        1.0080           0
   49597 WT3  724  TIP3 H2   HT     0.417000        1.0080           0
   49598 WT3  726  TIP3 OH2  OT    -0.834000       15.9994           0
   49599 WT3  726  TIP3 H1   HT     0.417000        1.0080           0
   49600 WT3  726  TIP3 H2   HT     0.417000        1.0080           0
   49601 WT3  729  TIP3 OH2  OT    -0.834000       15.9994           0
   49602 WT3  729  TIP3 H1   HT     0.417000        1.0080           0
   49603 WT3  729  TIP3 H2   HT     0.417000        1.0080           0
   49604 WT3  732  TIP3 OH2  OT    -0.834000       15.9994           0
   49605 WT3  732  TIP3 H1   HT     0.417000        1.0080           0
   49606 WT3  732  TIP3 H2   HT     0.417000        1.0080           0
   49607 WT3  733  TIP3 OH2  OT    -0.834000       15.9994           0
   49608 WT3  733  TIP3 H1   HT     0.417000        1.0080           0
   49609 WT3  733  TIP3 H2   HT     0.417000        1.0080           0
   49610 WT3  736  TIP3 OH2  OT    -0.834000       15.9994           0
   49611 WT3  736  TIP3 H1   HT     0.417000        1.0080           0
   49612 WT3  736  TIP3 H2   HT     0.417000        1.0080           0
   49613 WT3  737  TIP3 OH2  OT    -0.834000       15.9994           0
   49614 WT3  737  TIP3 H1   HT     0.417000        1.0080           0
   49615 WT3  737  TIP3 H2   HT     0.417000        1.0080           0
   49616 WT3  738  TIP3 OH2  OT    -0.834000       15.9994           0
   49617 WT3  738  TIP3 H1   HT     0.417000        1.0080           0
   49618 WT3  738  TIP3 H2   HT     0.417000        1.0080           0
   49619 WT3  739  TIP3 OH2  OT    -0.834000       15.9994           0
   49620 WT3  739  TIP3 H1   HT     0.417000        1.0080           0
   49621 WT3  739  TIP3 H2   HT     0.417000        1.0080           0
   49622 WT3  740  TIP3 OH2  OT    -0.834000       15.9994           0
   49623 WT3  740  TIP3 H1   HT     0.417000        1.0080           0
   49624 WT3  740  TIP3 H2   HT     0.417000        1.0080           0
   49625 WT3  742  TIP3 OH2  OT    -0.834000       15.9994           0
   49626 WT3  742  TIP3 H1   HT     0.417000        1.0080           0
   49627 WT3  742  TIP3 H2   HT     0.417000        1.0080           0
   49628 WT3  744  TIP3 OH2  OT    -0.834000       15.9994           0
   49629 WT3  744  TIP3 H1   HT     0.417000        1.0080           0
   49630 WT3  744  TIP3 H2   HT     0.417000        1.0080           0
   49631 WT3  745  TIP3 OH2  OT    -0.834000       15.9994           0
   49632 WT3  745  TIP3 H1   HT     0.417000        1.0080           0
   49633 WT3  745  TIP3 H2   HT     0.417000        1.0080           0
   49634 WT3  746  TIP3 OH2  OT    -0.834000       15.9994           0
   49635 WT3  746  TIP3 H1   HT     0.417000        1.0080           0
   49636 WT3  746  TIP3 H2   HT     0.417000        1.0080           0
   49637 WT3  747  TIP3 OH2  OT    -0.834000       15.9994           0
   49638 WT3  747  TIP3 H1   HT     0.417000        1.0080           0
   49639 WT3  747  TIP3 H2   HT     0.417000        1.0080           0
   49640 WT3  748  TIP3 OH2  OT    -0.834000       15.9994           0
   49641 WT3  748  TIP3 H1   HT     0.417000        1.0080           0
   49642 WT3  748  TIP3 H2   HT     0.417000        1.0080           0
   49643 WT3  749  TIP3 OH2  OT    -0.834000       15.9994           0
   49644 WT3  749  TIP3 H1   HT     0.417000        1.0080           0
   49645 WT3  749  TIP3 H2   HT     0.417000        1.0080           0
   49646 WT3  750  TIP3 OH2  OT    -0.834000       15.9994           0
   49647 WT3  750  TIP3 H1   HT     0.417000        1.0080           0
   49648 WT3  750  TIP3 H2   HT     0.417000        1.0080           0
   49649 WT3  751  TIP3 OH2  OT    -0.834000       15.9994           0
   49650 WT3  751  TIP3 H1   HT     0.417000        1.0080           0
   49651 WT3  751  TIP3 H2   HT     0.417000        1.0080           0
   49652 WT3  757  TIP3 OH2  OT    -0.834000       15.9994           0
   49653 WT3  757  TIP3 H1   HT     0.417000        1.0080           0
   49654 WT3  757  TIP3 H2   HT     0.417000        1.0080           0
   49655 WT3  758  TIP3 OH2  OT    -0.834000       15.9994           0
   49656 WT3  758  TIP3 H1   HT     0.417000        1.0080           0
   49657 WT3  758  TIP3 H2   HT     0.417000        1.0080           0
   49658 WT3  759  TIP3 OH2  OT    -0.834000       15.9994           0
   49659 WT3  759  TIP3 H1   HT     0.417000        1.0080           0
   49660 WT3  759  TIP3 H2   HT     0.417000        1.0080           0
   49661 WT3  761  TIP3 OH2  OT    -0.834000       15.9994           0
   49662 WT3  761  TIP3 H1   HT     0.417000        1.0080           0
   49663 WT3  761  TIP3 H2   HT     0.417000        1.0080           0
   49664 WT3  762  TIP3 OH2  OT    -0.834000       15.9994           0
   49665 WT3  762  TIP3 H1   HT     0.417000        1.0080           0
   49666 WT3  762  TIP3 H2   HT     0.417000        1.0080           0
   49667 WT3  764  TIP3 OH2  OT    -0.834000       15.9994           0
   49668 WT3  764  TIP3 H1   HT     0.417000        1.0080           0
   49669 WT3  764  TIP3 H2   HT     0.417000        1.0080           0
   49670 WT3  765  TIP3 OH2  OT    -0.834000       15.9994           0
   49671 WT3  765  TIP3 H1   HT     0.417000        1.0080           0
   49672 WT3  765  TIP3 H2   HT     0.417000        1.0080           0
   49673 WT3  766  TIP3 OH2  OT    -0.834000       15.9994           0
   49674 WT3  766  TIP3 H1   HT     0.417000        1.0080           0
   49675 WT3  766  TIP3 H2   HT     0.417000        1.0080           0
   49676 WT3  770  TIP3 OH2  OT    -0.834000       15.9994           0
   49677 WT3  770  TIP3 H1   HT     0.417000        1.0080           0
   49678 WT3  770  TIP3 H2   HT     0.417000        1.0080           0
   49679 WT3  776  TIP3 OH2  OT    -0.834000       15.9994           0
   49680 WT3  776  TIP3 H1   HT     0.417000        1.0080           0
   49681 WT3  776  TIP3 H2   HT     0.417000        1.0080           0
   49682 WT3  778  TIP3 OH2  OT    -0.834000       15.9994           0
   49683 WT3  778  TIP3 H1   HT     0.417000        1.0080           0
   49684 WT3  778  TIP3 H2   HT     0.417000        1.0080           0
   49685 WT3  781  TIP3 OH2  OT    -0.834000       15.9994           0
   49686 WT3  781  TIP3 H1   HT     0.417000        1.0080           0
   49687 WT3  781  TIP3 H2   HT     0.417000        1.0080           0
   49688 WT3  782  TIP3 OH2  OT    -0.834000       15.9994           0
   49689 WT3  782  TIP3 H1   HT     0.417000        1.0080           0
   49690 WT3  782  TIP3 H2   HT     0.417000        1.0080           0
   49691 WT3  783  TIP3 OH2  OT    -0.834000       15.9994           0
   49692 WT3  783  TIP3 H1   HT     0.417000        1.0080           0
   49693 WT3  783  TIP3 H2   HT     0.417000        1.0080           0
   49694 WT3  784  TIP3 OH2  OT    -0.834000       15.9994           0
   49695 WT3  784  TIP3 H1   HT     0.417000        1.0080           0
   49696 WT3  784  TIP3 H2   HT     0.417000        1.0080           0
   49697 WT3  785  TIP3 OH2  OT    -0.834000       15.9994           0
   49698 WT3  785  TIP3 H1   HT     0.417000        1.0080           0
   49699 WT3  785  TIP3 H2   HT     0.417000        1.0080           0
   49700 WT3  786  TIP3 OH2  OT    -0.834000       15.9994           0
   49701 WT3  786  TIP3 H1   HT     0.417000        1.0080           0
   49702 WT3  786  TIP3 H2   HT     0.417000        1.0080           0
   49703 WT3  787  TIP3 OH2  OT    -0.834000       15.9994           0
   49704 WT3  787  TIP3 H1   HT     0.417000        1.0080           0
   49705 WT3  787  TIP3 H2   HT     0.417000        1.0080           0
   49706 WT3  788  TIP3 OH2  OT    -0.834000       15.9994           0
   49707 WT3  788  TIP3 H1   HT     0.417000        1.0080           0
   49708 WT3  788  TIP3 H2   HT     0.417000        1.0080           0
   49709 WT3  789  TIP3 OH2  OT    -0.834000       15.9994           0
   49710 WT3  789  TIP3 H1   HT     0.417000        1.0080           0
   49711 WT3  789  TIP3 H2   HT     0.417000        1.0080           0
   49712 WT3  790  TIP3 OH2  OT    -0.834000       15.9994           0
   49713 WT3  790  TIP3 H1   HT     0.417000        1.0080           0
   49714 WT3  790  TIP3 H2   HT     0.417000        1.0080           0
   49715 WT3  791  TIP3 OH2  OT    -0.834000       15.9994           0
   49716 WT3  791  TIP3 H1   HT     0.417000        1.0080           0
   49717 WT3  791  TIP3 H2   HT     0.417000        1.0080           0
   49718 WT3  792  TIP3 OH2  OT    -0.834000       15.9994           0
   49719 WT3  792  TIP3 H1   HT     0.417000        1.0080           0
   49720 WT3  792  TIP3 H2   HT     0.417000        1.0080           0
   49721 WT3  794  TIP3 OH2  OT    -0.834000       15.9994           0
   49722 WT3  794  TIP3 H1   HT     0.417000        1.0080           0
   49723 WT3  794  TIP3 H2   HT     0.417000        1.0080           0
   49724 WT3  796  TIP3 OH2  OT    -0.834000       15.9994           0
   49725 WT3  796  TIP3 H1   HT     0.417000        1.0080           0
   49726 WT3  796  TIP3 H2   HT     0.417000        1.0080           0
   49727 WT3  801  TIP3 OH2  OT    -0.834000       15.9994           0
   49728 WT3  801  TIP3 H1   HT     0.417000        1.0080           0
   49729 WT3  801  TIP3 H2   HT     0.417000        1.0080           0
   49730 WT3  803  TIP3 OH2  OT    -0.834000       15.9994           0
   49731 WT3  803  TIP3 H1   HT     0.417000        1.0080           0
   49732 WT3  803  TIP3 H2   HT     0.417000        1.0080           0
   49733 WT3  804  TIP3 OH2  OT    -0.834000       15.9994           0
   49734 WT3  804  TIP3 H1   HT     0.417000        1.0080           0
   49735 WT3  804  TIP3 H2   HT     0.417000        1.0080           0
   49736 WT3  805  TIP3 OH2  OT    -0.834000       15.9994           0
   49737 WT3  805  TIP3 H1   HT     0.417000        1.0080           0
   49738 WT3  805  TIP3 H2   HT     0.417000        1.0080           0
   49739 WT3  806  TIP3 OH2  OT    -0.834000       15.9994           0
   49740 WT3  806  TIP3 H1   HT     0.417000        1.0080           0
   49741 WT3  806  TIP3 H2   HT     0.417000        1.0080           0
   49742 WT3  807  TIP3 OH2  OT    -0.834000       15.9994           0
   49743 WT3  807  TIP3 H1   HT     0.417000        1.0080           0
   49744 WT3  807  TIP3 H2   HT     0.417000        1.0080           0
   49745 WT3  808  TIP3 OH2  OT    -0.834000       15.9994           0
   49746 WT3  808  TIP3 H1   HT     0.417000        1.0080           0
   49747 WT3  808  TIP3 H2   HT     0.417000        1.0080           0
   49748 WT3  809  TIP3 OH2  OT    -0.834000       15.9994           0
   49749 WT3  809  TIP3 H1   HT     0.417000        1.0080           0
   49750 WT3  809  TIP3 H2   HT     0.417000        1.0080           0
   49751 WT3  810  TIP3 OH2  OT    -0.834000       15.9994           0
   49752 WT3  810  TIP3 H1   HT     0.417000        1.0080           0
   49753 WT3  810  TIP3 H2   HT     0.417000        1.0080           0
   49754 WT3  813  TIP3 OH2  OT    -0.834000       15.9994           0
   49755 WT3  813  TIP3 H1   HT     0.417000        1.0080           0
   49756 WT3  813  TIP3 H2   HT     0.417000        1.0080           0
   49757 WT3  817  TIP3 OH2  OT    -0.834000       15.9994           0
   49758 WT3  817  TIP3 H1   HT     0.417000        1.0080           0
   49759 WT3  817  TIP3 H2   HT     0.417000        1.0080           0
   49760 WT3  822  TIP3 OH2  OT    -0.834000       15.9994           0
   49761 WT3  822  TIP3 H1   HT     0.417000        1.0080           0
   49762 WT3  822  TIP3 H2   HT     0.417000        1.0080           0
   49763 WT3  823  TIP3 OH2  OT    -0.834000       15.9994           0
   49764 WT3  823  TIP3 H1   HT     0.417000        1.0080           0
   49765 WT3  823  TIP3 H2   HT     0.417000        1.0080           0
   49766 WT3  824  TIP3 OH2  OT    -0.834000       15.9994           0
   49767 WT3  824  TIP3 H1   HT     0.417000        1.0080           0
   49768 WT3  824  TIP3 H2   HT     0.417000        1.0080           0
   49769 WT3  825  TIP3 OH2  OT    -0.834000       15.9994           0
   49770 WT3  825  TIP3 H1   HT     0.417000        1.0080           0
   49771 WT3  825  TIP3 H2   HT     0.417000        1.0080           0
   49772 WT3  826  TIP3 OH2  OT    -0.834000       15.9994           0
   49773 WT3  826  TIP3 H1   HT     0.417000        1.0080           0
   49774 WT3  826  TIP3 H2   HT     0.417000        1.0080           0
   49775 WT3  827  TIP3 OH2  OT    -0.834000       15.9994           0
   49776 WT3  827  TIP3 H1   HT     0.417000        1.0080           0
   49777 WT3  827  TIP3 H2   HT     0.417000        1.0080           0
   49778 WT3  828  TIP3 OH2  OT    -0.834000       15.9994           0
   49779 WT3  828  TIP3 H1   HT     0.417000        1.0080           0
   49780 WT3  828  TIP3 H2   HT     0.417000        1.0080           0
   49781 WT3  829  TIP3 OH2  OT    -0.834000       15.9994           0
   49782 WT3  829  TIP3 H1   HT     0.417000        1.0080           0
   49783 WT3  829  TIP3 H2   HT     0.417000        1.0080           0
   49784 WT3  830  TIP3 OH2  OT    -0.834000       15.9994           0
   49785 WT3  830  TIP3 H1   HT     0.417000        1.0080           0
   49786 WT3  830  TIP3 H2   HT     0.417000        1.0080           0
   49787 WT3  831  TIP3 OH2  OT    -0.834000       15.9994           0
   49788 WT3  831  TIP3 H1   HT     0.417000        1.0080           0
   49789 WT3  831  TIP3 H2   HT     0.417000        1.0080           0
   49790 WT3  832  TIP3 OH2  OT    -0.834000       15.9994           0
   49791 WT3  832  TIP3 H1   HT     0.417000        1.0080           0
   49792 WT3  832  TIP3 H2   HT     0.417000        1.0080           0
   49793 WT3  833  TIP3 OH2  OT    -0.834000       15.9994           0
   49794 WT3  833  TIP3 H1   HT     0.417000        1.0080           0
   49795 WT3  833  TIP3 H2   HT     0.417000        1.0080           0
   49796 WT3  834  TIP3 OH2  OT    -0.834000       15.9994           0
   49797 WT3  834  TIP3 H1   HT     0.417000        1.0080           0
   49798 WT3  834  TIP3 H2   HT     0.417000        1.0080           0
   49799 WT3  835  TIP3 OH2  OT    -0.834000       15.9994           0
   49800 WT3  835  TIP3 H1   HT     0.417000        1.0080           0
   49801 WT3  835  TIP3 H2   HT     0.417000        1.0080           0
   49802 WT3  843  TIP3 OH2  OT    -0.834000       15.9994           0
   49803 WT3  843  TIP3 H1   HT     0.417000        1.0080           0
   49804 WT3  843  TIP3 H2   HT     0.417000        1.0080           0
   49805 WT3  844  TIP3 OH2  OT    -0.834000       15.9994           0
   49806 WT3  844  TIP3 H1   HT     0.417000        1.0080           0
   49807 WT3  844  TIP3 H2   HT     0.417000        1.0080           0
   49808 WT3  845  TIP3 OH2  OT    -0.834000       15.9994           0
   49809 WT3  845  TIP3 H1   HT     0.417000        1.0080           0
   49810 WT3  845  TIP3 H2   HT     0.417000        1.0080           0
   49811 WT3  846  TIP3 OH2  OT    -0.834000       15.9994           0
   49812 WT3  846  TIP3 H1   HT     0.417000        1.0080           0
   49813 WT3  846  TIP3 H2   HT     0.417000        1.0080           0
   49814 WT3  847  TIP3 OH2  OT    -0.834000       15.9994           0
   49815 WT3  847  TIP3 H1   HT     0.417000        1.0080           0
   49816 WT3  847  TIP3 H2   HT     0.417000        1.0080           0
   49817 WT3  848  TIP3 OH2  OT    -0.834000       15.9994           0
   49818 WT3  848  TIP3 H1   HT     0.417000        1.0080           0
   49819 WT3  848  TIP3 H2   HT     0.417000        1.0080           0
   49820 WT3  849  TIP3 OH2  OT    -0.834000       15.9994           0
   49821 WT3  849  TIP3 H1   HT     0.417000        1.0080           0
   49822 WT3  849  TIP3 H2   HT     0.417000        1.0080           0
   49823 WT3  850  TIP3 OH2  OT    -0.834000       15.9994           0
   49824 WT3  850  TIP3 H1   HT     0.417000        1.0080           0
   49825 WT3  850  TIP3 H2   HT     0.417000        1.0080           0
   49826 WT3  851  TIP3 OH2  OT    -0.834000       15.9994           0
   49827 WT3  851  TIP3 H1   HT     0.417000        1.0080           0
   49828 WT3  851  TIP3 H2   HT     0.417000        1.0080           0
   49829 WT3  852  TIP3 OH2  OT    -0.834000       15.9994           0
   49830 WT3  852  TIP3 H1   HT     0.417000        1.0080           0
   49831 WT3  852  TIP3 H2   HT     0.417000        1.0080           0
   49832 WT3  853  TIP3 OH2  OT    -0.834000       15.9994           0
   49833 WT3  853  TIP3 H1   HT     0.417000        1.0080           0
   49834 WT3  853  TIP3 H2   HT     0.417000        1.0080           0
   49835 WT3  854  TIP3 OH2  OT    -0.834000       15.9994           0
   49836 WT3  854  TIP3 H1   HT     0.417000        1.0080           0
   49837 WT3  854  TIP3 H2   HT     0.417000        1.0080           0
   49838 WT3  858  TIP3 OH2  OT    -0.834000       15.9994           0
   49839 WT3  858  TIP3 H1   HT     0.417000        1.0080           0
   49840 WT3  858  TIP3 H2   HT     0.417000        1.0080           0
   49841 WT3  862  TIP3 OH2  OT    -0.834000       15.9994           0
   49842 WT3  862  TIP3 H1   HT     0.417000        1.0080           0
   49843 WT3  862  TIP3 H2   HT     0.417000        1.0080           0
   49844 WT3  865  TIP3 OH2  OT    -0.834000       15.9994           0
   49845 WT3  865  TIP3 H1   HT     0.417000        1.0080           0
   49846 WT3  865  TIP3 H2   HT     0.417000        1.0080           0
   49847 WT3  866  TIP3 OH2  OT    -0.834000       15.9994           0
   49848 WT3  866  TIP3 H1   HT     0.417000        1.0080           0
   49849 WT3  866  TIP3 H2   HT     0.417000        1.0080           0
   49850 WT3  867  TIP3 OH2  OT    -0.834000       15.9994           0
   49851 WT3  867  TIP3 H1   HT     0.417000        1.0080           0
   49852 WT3  867  TIP3 H2   HT     0.417000        1.0080           0
   49853 WT3  869  TIP3 OH2  OT    -0.834000       15.9994           0
   49854 WT3  869  TIP3 H1   HT     0.417000        1.0080           0
   49855 WT3  869  TIP3 H2   HT     0.417000        1.0080           0
   49856 WT3  870  TIP3 OH2  OT    -0.834000       15.9994           0
   49857 WT3  870  TIP3 H1   HT     0.417000        1.0080           0
   49858 WT3  870  TIP3 H2   HT     0.417000        1.0080           0
   49859 WT3  871  TIP3 OH2  OT    -0.834000       15.9994           0
   49860 WT3  871  TIP3 H1   HT     0.417000        1.0080           0
   49861 WT3  871  TIP3 H2   HT     0.417000        1.0080           0
   49862 WT3  872  TIP3 OH2  OT    -0.834000       15.9994           0
   49863 WT3  872  TIP3 H1   HT     0.417000        1.0080           0
   49864 WT3  872  TIP3 H2   HT     0.417000        1.0080           0
   49865 WT3  873  TIP3 OH2  OT    -0.834000       15.9994           0
   49866 WT3  873  TIP3 H1   HT     0.417000        1.0080           0
   49867 WT3  873  TIP3 H2   HT     0.417000        1.0080           0
   49868 WT3  874  TIP3 OH2  OT    -0.834000       15.9994           0
   49869 WT3  874  TIP3 H1   HT     0.417000        1.0080           0
   49870 WT3  874  TIP3 H2   HT     0.417000        1.0080           0
   49871 WT3  875  TIP3 OH2  OT    -0.834000       15.9994           0
   49872 WT3  875  TIP3 H1   HT     0.417000        1.0080           0
   49873 WT3  875  TIP3 H2   HT     0.417000        1.0080           0
   49874 WT3  878  TIP3 OH2  OT    -0.834000       15.9994           0
   49875 WT3  878  TIP3 H1   HT     0.417000        1.0080           0
   49876 WT3  878  TIP3 H2   HT     0.417000        1.0080           0
   49877 WT3  880  TIP3 OH2  OT    -0.834000       15.9994           0
   49878 WT3  880  TIP3 H1   HT     0.417000        1.0080           0
   49879 WT3  880  TIP3 H2   HT     0.417000        1.0080           0
   49880 WT3  883  TIP3 OH2  OT    -0.834000       15.9994           0
   49881 WT3  883  TIP3 H1   HT     0.417000        1.0080           0
   49882 WT3  883  TIP3 H2   HT     0.417000        1.0080           0
   49883 WT3  885  TIP3 OH2  OT    -0.834000       15.9994           0
   49884 WT3  885  TIP3 H1   HT     0.417000        1.0080           0
   49885 WT3  885  TIP3 H2   HT     0.417000        1.0080           0
   49886 WT3  887  TIP3 OH2  OT    -0.834000       15.9994           0
   49887 WT3  887  TIP3 H1   HT     0.417000        1.0080           0
   49888 WT3  887  TIP3 H2   HT     0.417000        1.0080           0
   49889 WT3  888  TIP3 OH2  OT    -0.834000       15.9994           0
   49890 WT3  888  TIP3 H1   HT     0.417000        1.0080           0
   49891 WT3  888  TIP3 H2   HT     0.417000        1.0080           0
   49892 WT3  889  TIP3 OH2  OT    -0.834000       15.9994           0
   49893 WT3  889  TIP3 H1   HT     0.417000        1.0080           0
   49894 WT3  889  TIP3 H2   HT     0.417000        1.0080           0
   49895 WT3  890  TIP3 OH2  OT    -0.834000       15.9994           0
   49896 WT3  890  TIP3 H1   HT     0.417000        1.0080           0
   49897 WT3  890  TIP3 H2   HT     0.417000        1.0080           0
   49898 WT3  891  TIP3 OH2  OT    -0.834000       15.9994           0
   49899 WT3  891  TIP3 H1   HT     0.417000        1.0080           0
   49900 WT3  891  TIP3 H2   HT     0.417000        1.0080           0
   49901 WT3  893  TIP3 OH2  OT    -0.834000       15.9994           0
   49902 WT3  893  TIP3 H1   HT     0.417000        1.0080           0
   49903 WT3  893  TIP3 H2   HT     0.417000        1.0080           0
   49904 WT3  894  TIP3 OH2  OT    -0.834000       15.9994           0
   49905 WT3  894  TIP3 H1   HT     0.417000        1.0080           0
   49906 WT3  894  TIP3 H2   HT     0.417000        1.0080           0
   49907 WT3  897  TIP3 OH2  OT    -0.834000       15.9994           0
   49908 WT3  897  TIP3 H1   HT     0.417000        1.0080           0
   49909 WT3  897  TIP3 H2   HT     0.417000        1.0080           0
   49910 WT3  898  TIP3 OH2  OT    -0.834000       15.9994           0
   49911 WT3  898  TIP3 H1   HT     0.417000        1.0080           0
   49912 WT3  898  TIP3 H2   HT     0.417000        1.0080           0
   49913 WT3  902  TIP3 OH2  OT    -0.834000       15.9994           0
   49914 WT3  902  TIP3 H1   HT     0.417000        1.0080           0
   49915 WT3  902  TIP3 H2   HT     0.417000        1.0080           0
   49916 WT3  905  TIP3 OH2  OT    -0.834000       15.9994           0
   49917 WT3  905  TIP3 H1   HT     0.417000        1.0080           0
   49918 WT3  905  TIP3 H2   HT     0.417000        1.0080           0
   49919 WT3  906  TIP3 OH2  OT    -0.834000       15.9994           0
   49920 WT3  906  TIP3 H1   HT     0.417000        1.0080           0
   49921 WT3  906  TIP3 H2   HT     0.417000        1.0080           0
   49922 WT3  907  TIP3 OH2  OT    -0.834000       15.9994           0
   49923 WT3  907  TIP3 H1   HT     0.417000        1.0080           0
   49924 WT3  907  TIP3 H2   HT     0.417000        1.0080           0
   49925 WT3  909  TIP3 OH2  OT    -0.834000       15.9994           0
   49926 WT3  909  TIP3 H1   HT     0.417000        1.0080           0
   49927 WT3  909  TIP3 H2   HT     0.417000        1.0080           0
   49928 WT3  910  TIP3 OH2  OT    -0.834000       15.9994           0
   49929 WT3  910  TIP3 H1   HT     0.417000        1.0080           0
   49930 WT3  910  TIP3 H2   HT     0.417000        1.0080           0
   49931 WT3  911  TIP3 OH2  OT    -0.834000       15.9994           0
   49932 WT3  911  TIP3 H1   HT     0.417000        1.0080           0
   49933 WT3  911  TIP3 H2   HT     0.417000        1.0080           0
   49934 WT3  912  TIP3 OH2  OT    -0.834000       15.9994           0
   49935 WT3  912  TIP3 H1   HT     0.417000        1.0080           0
   49936 WT3  912  TIP3 H2   HT     0.417000        1.0080           0
   49937 WT3  913  TIP3 OH2  OT    -0.834000       15.9994           0
   49938 WT3  913  TIP3 H1   HT     0.417000        1.0080           0
   49939 WT3  913  TIP3 H2   HT     0.417000        1.0080           0
   49940 WT3  915  TIP3 OH2  OT    -0.834000       15.9994           0
   49941 WT3  915  TIP3 H1   HT     0.417000        1.0080           0
   49942 WT3  915  TIP3 H2   HT     0.417000        1.0080           0
   49943 WT3  916  TIP3 OH2  OT    -0.834000       15.9994           0
   49944 WT3  916  TIP3 H1   HT     0.417000        1.0080           0
   49945 WT3  916  TIP3 H2   HT     0.417000        1.0080           0
   49946 WT3  918  TIP3 OH2  OT    -0.834000       15.9994           0
   49947 WT3  918  TIP3 H1   HT     0.417000        1.0080           0
   49948 WT3  918  TIP3 H2   HT     0.417000        1.0080           0
   49949 WT3  924  TIP3 OH2  OT    -0.834000       15.9994           0
   49950 WT3  924  TIP3 H1   HT     0.417000        1.0080           0
   49951 WT3  924  TIP3 H2   HT     0.417000        1.0080           0
   49952 WT3  925  TIP3 OH2  OT    -0.834000       15.9994           0
   49953 WT3  925  TIP3 H1   HT     0.417000        1.0080           0
   49954 WT3  925  TIP3 H2   HT     0.417000        1.0080           0
   49955 WT3  926  TIP3 OH2  OT    -0.834000       15.9994           0
   49956 WT3  926  TIP3 H1   HT     0.417000        1.0080           0
   49957 WT3  926  TIP3 H2   HT     0.417000        1.0080           0
   49958 WT3  927  TIP3 OH2  OT    -0.834000       15.9994           0
   49959 WT3  927  TIP3 H1   HT     0.417000        1.0080           0
   49960 WT3  927  TIP3 H2   HT     0.417000        1.0080           0
   49961 WT3  928  TIP3 OH2  OT    -0.834000       15.9994           0
   49962 WT3  928  TIP3 H1   HT     0.417000        1.0080           0
   49963 WT3  928  TIP3 H2   HT     0.417000        1.0080           0
   49964 WT3  929  TIP3 OH2  OT    -0.834000       15.9994           0
   49965 WT3  929  TIP3 H1   HT     0.417000        1.0080           0
   49966 WT3  929  TIP3 H2   HT     0.417000        1.0080           0
   49967 WT3  930  TIP3 OH2  OT    -0.834000       15.9994           0
   49968 WT3  930  TIP3 H1   HT     0.417000        1.0080           0
   49969 WT3  930  TIP3 H2   HT     0.417000        1.0080           0
   49970 WT3  931  TIP3 OH2  OT    -0.834000       15.9994           0
   49971 WT3  931  TIP3 H1   HT     0.417000        1.0080           0
   49972 WT3  931  TIP3 H2   HT     0.417000        1.0080           0
   49973 WT3  932  TIP3 OH2  OT    -0.834000       15.9994           0
   49974 WT3  932  TIP3 H1   HT     0.417000        1.0080           0
   49975 WT3  932  TIP3 H2   HT     0.417000        1.0080           0
   49976 WT3  933  TIP3 OH2  OT    -0.834000       15.9994           0
   49977 WT3  933  TIP3 H1   HT     0.417000        1.0080           0
   49978 WT3  933  TIP3 H2   HT     0.417000        1.0080           0
   49979 WT3  934  TIP3 OH2  OT    -0.834000       15.9994           0
   49980 WT3  934  TIP3 H1   HT     0.417000        1.0080           0
   49981 WT3  934  TIP3 H2   HT     0.417000        1.0080           0
   49982 WT3  935  TIP3 OH2  OT    -0.834000       15.9994           0
   49983 WT3  935  TIP3 H1   HT     0.417000        1.0080           0
   49984 WT3  935  TIP3 H2   HT     0.417000        1.0080           0
   49985 WT3  936  TIP3 OH2  OT    -0.834000       15.9994           0
   49986 WT3  936  TIP3 H1   HT     0.417000        1.0080           0
   49987 WT3  936  TIP3 H2   HT     0.417000        1.0080           0
   49988 WT3  940  TIP3 OH2  OT    -0.834000       15.9994           0
   49989 WT3  940  TIP3 H1   HT     0.417000        1.0080           0
   49990 WT3  940  TIP3 H2   HT     0.417000        1.0080           0
   49991 WT3  941  TIP3 OH2  OT    -0.834000       15.9994           0
   49992 WT3  941  TIP3 H1   HT     0.417000        1.0080           0
   49993 WT3  941  TIP3 H2   HT     0.417000        1.0080           0
   49994 WT3  942  TIP3 OH2  OT    -0.834000       15.9994           0
   49995 WT3  942  TIP3 H1   HT     0.417000        1.0080           0
   49996 WT3  942  TIP3 H2   HT     0.417000        1.0080           0
   49997 WT3  947  TIP3 OH2  OT    -0.834000       15.9994           0
   49998 WT3  947  TIP3 H1   HT     0.417000        1.0080           0
   49999 WT3  947  TIP3 H2   HT     0.417000        1.0080           0
   50000 WT3  948  TIP3 OH2  OT    -0.834000       15.9994           0
   50001 WT3  948  TIP3 H1   HT     0.417000        1.0080           0
   50002 WT3  948  TIP3 H2   HT     0.417000        1.0080           0
   50003 WT3  949  TIP3 OH2  OT    -0.834000       15.9994           0
   50004 WT3  949  TIP3 H1   HT     0.417000        1.0080           0
   50005 WT3  949  TIP3 H2   HT     0.417000        1.0080           0
   50006 WT3  950  TIP3 OH2  OT    -0.834000       15.9994           0
   50007 WT3  950  TIP3 H1   HT     0.417000        1.0080           0
   50008 WT3  950  TIP3 H2   HT     0.417000        1.0080           0
   50009 WT3  951  TIP3 OH2  OT    -0.834000       15.9994           0
   50010 WT3  951  TIP3 H1   HT     0.417000        1.0080           0
   50011 WT3  951  TIP3 H2   HT     0.417000        1.0080           0
   50012 WT3  952  TIP3 OH2  OT    -0.834000       15.9994           0
   50013 WT3  952  TIP3 H1   HT     0.417000        1.0080           0
   50014 WT3  952  TIP3 H2   HT     0.417000        1.0080           0
   50015 WT3  953  TIP3 OH2  OT    -0.834000       15.9994           0
   50016 WT3  953  TIP3 H1   HT     0.417000        1.0080           0
   50017 WT3  953  TIP3 H2   HT     0.417000        1.0080           0
   50018 WT3  954  TIP3 OH2  OT    -0.834000       15.9994           0
   50019 WT3  954  TIP3 H1   HT     0.417000        1.0080           0
   50020 WT3  954  TIP3 H2   HT     0.417000        1.0080           0
   50021 WT3  955  TIP3 OH2  OT    -0.834000       15.9994           0
   50022 WT3  955  TIP3 H1   HT     0.417000        1.0080           0
   50023 WT3  955  TIP3 H2   HT     0.417000        1.0080           0
   50024 WT3  956  TIP3 OH2  OT    -0.834000       15.9994           0
   50025 WT3  956  TIP3 H1   HT     0.417000        1.0080           0
   50026 WT3  956  TIP3 H2   HT     0.417000        1.0080           0
   50027 WT3  958  TIP3 OH2  OT    -0.834000       15.9994           0
   50028 WT3  958  TIP3 H1   HT     0.417000        1.0080           0
   50029 WT3  958  TIP3 H2   HT     0.417000        1.0080           0
   50030 WT3  961  TIP3 OH2  OT    -0.834000       15.9994           0
   50031 WT3  961  TIP3 H1   HT     0.417000        1.0080           0
   50032 WT3  961  TIP3 H2   HT     0.417000        1.0080           0
   50033 WT3  962  TIP3 OH2  OT    -0.834000       15.9994           0
   50034 WT3  962  TIP3 H1   HT     0.417000        1.0080           0
   50035 WT3  962  TIP3 H2   HT     0.417000        1.0080           0
   50036 WT3  968  TIP3 OH2  OT    -0.834000       15.9994           0
   50037 WT3  968  TIP3 H1   HT     0.417000        1.0080           0
   50038 WT3  968  TIP3 H2   HT     0.417000        1.0080           0
   50039 WT3  969  TIP3 OH2  OT    -0.834000       15.9994           0
   50040 WT3  969  TIP3 H1   HT     0.417000        1.0080           0
   50041 WT3  969  TIP3 H2   HT     0.417000        1.0080           0
   50042 WT3  970  TIP3 OH2  OT    -0.834000       15.9994           0
   50043 WT3  970  TIP3 H1   HT     0.417000        1.0080           0
   50044 WT3  970  TIP3 H2   HT     0.417000        1.0080           0
   50045 WT3  972  TIP3 OH2  OT    -0.834000       15.9994           0
   50046 WT3  972  TIP3 H1   HT     0.417000        1.0080           0
   50047 WT3  972  TIP3 H2   HT     0.417000        1.0080           0
   50048 WT3  973  TIP3 OH2  OT    -0.834000       15.9994           0
   50049 WT3  973  TIP3 H1   HT     0.417000        1.0080           0
   50050 WT3  973  TIP3 H2   HT     0.417000        1.0080           0
   50051 WT3  974  TIP3 OH2  OT    -0.834000       15.9994           0
   50052 WT3  974  TIP3 H1   HT     0.417000        1.0080           0
   50053 WT3  974  TIP3 H2   HT     0.417000        1.0080           0
   50054 WT3  976  TIP3 OH2  OT    -0.834000       15.9994           0
   50055 WT3  976  TIP3 H1   HT     0.417000        1.0080           0
   50056 WT3  976  TIP3 H2   HT     0.417000        1.0080           0
   50057 WT3  977  TIP3 OH2  OT    -0.834000       15.9994           0
   50058 WT3  977  TIP3 H1   HT     0.417000        1.0080           0
   50059 WT3  977  TIP3 H2   HT     0.417000        1.0080           0
   50060 WT3  978  TIP3 OH2  OT    -0.834000       15.9994           0
   50061 WT3  978  TIP3 H1   HT     0.417000        1.0080           0
   50062 WT3  978  TIP3 H2   HT     0.417000        1.0080           0
   50063 WT3  983  TIP3 OH2  OT    -0.834000       15.9994           0
   50064 WT3  983  TIP3 H1   HT     0.417000        1.0080           0
   50065 WT3  983  TIP3 H2   HT     0.417000        1.0080           0
   50066 WT3  985  TIP3 OH2  OT    -0.834000       15.9994           0
   50067 WT3  985  TIP3 H1   HT     0.417000        1.0080           0
   50068 WT3  985  TIP3 H2   HT     0.417000        1.0080           0
   50069 WT3  987  TIP3 OH2  OT    -0.834000       15.9994           0
   50070 WT3  987  TIP3 H1   HT     0.417000        1.0080           0
   50071 WT3  987  TIP3 H2   HT     0.417000        1.0080           0
   50072 WT3  988  TIP3 OH2  OT    -0.834000       15.9994           0
   50073 WT3  988  TIP3 H1   HT     0.417000        1.0080           0
   50074 WT3  988  TIP3 H2   HT     0.417000        1.0080           0
   50075 WT3  989  TIP3 OH2  OT    -0.834000       15.9994           0
   50076 WT3  989  TIP3 H1   HT     0.417000        1.0080           0
   50077 WT3  989  TIP3 H2   HT     0.417000        1.0080           0
   50078 WT3  990  TIP3 OH2  OT    -0.834000       15.9994           0
   50079 WT3  990  TIP3 H1   HT     0.417000        1.0080           0
   50080 WT3  990  TIP3 H2   HT     0.417000        1.0080           0
   50081 WT3  991  TIP3 OH2  OT    -0.834000       15.9994           0
   50082 WT3  991  TIP3 H1   HT     0.417000        1.0080           0
   50083 WT3  991  TIP3 H2   HT     0.417000        1.0080           0
   50084 WT3  992  TIP3 OH2  OT    -0.834000       15.9994           0
   50085 WT3  992  TIP3 H1   HT     0.417000        1.0080           0
   50086 WT3  992  TIP3 H2   HT     0.417000        1.0080           0
   50087 WT3  994  TIP3 OH2  OT    -0.834000       15.9994           0
   50088 WT3  994  TIP3 H1   HT     0.417000        1.0080           0
   50089 WT3  994  TIP3 H2   HT     0.417000        1.0080           0
   50090 WT3  995  TIP3 OH2  OT    -0.834000       15.9994           0
   50091 WT3  995  TIP3 H1   HT     0.417000        1.0080           0
   50092 WT3  995  TIP3 H2   HT     0.417000        1.0080           0
   50093 WT3  996  TIP3 OH2  OT    -0.834000       15.9994           0
   50094 WT3  996  TIP3 H1   HT     0.417000        1.0080           0
   50095 WT3  996  TIP3 H2   HT     0.417000        1.0080           0
   50096 WT3  997  TIP3 OH2  OT    -0.834000       15.9994           0
   50097 WT3  997  TIP3 H1   HT     0.417000        1.0080           0
   50098 WT3  997  TIP3 H2   HT     0.417000        1.0080           0
   50099 WT3  998  TIP3 OH2  OT    -0.834000       15.9994           0
   50100 WT3  998  TIP3 H1   HT     0.417000        1.0080           0
   50101 WT3  998  TIP3 H2   HT     0.417000        1.0080           0
   50102 WT3  1000 TIP3 OH2  OT    -0.834000       15.9994           0
   50103 WT3  1000 TIP3 H1   HT     0.417000        1.0080           0
   50104 WT3  1000 TIP3 H2   HT     0.417000        1.0080           0
   50105 WT3  1001 TIP3 OH2  OT    -0.834000       15.9994           0
   50106 WT3  1001 TIP3 H1   HT     0.417000        1.0080           0
   50107 WT3  1001 TIP3 H2   HT     0.417000        1.0080           0
   50108 WT3  1003 TIP3 OH2  OT    -0.834000       15.9994           0
   50109 WT3  1003 TIP3 H1   HT     0.417000        1.0080           0
   50110 WT3  1003 TIP3 H2   HT     0.417000        1.0080           0
   50111 WT3  1004 TIP3 OH2  OT    -0.834000       15.9994           0
   50112 WT3  1004 TIP3 H1   HT     0.417000        1.0080           0
   50113 WT3  1004 TIP3 H2   HT     0.417000        1.0080           0
   50114 WT3  1011 TIP3 OH2  OT    -0.834000       15.9994           0
   50115 WT3  1011 TIP3 H1   HT     0.417000        1.0080           0
   50116 WT3  1011 TIP3 H2   HT     0.417000        1.0080           0
   50117 WT3  1012 TIP3 OH2  OT    -0.834000       15.9994           0
   50118 WT3  1012 TIP3 H1   HT     0.417000        1.0080           0
   50119 WT3  1012 TIP3 H2   HT     0.417000        1.0080           0
   50120 WT3  1013 TIP3 OH2  OT    -0.834000       15.9994           0
   50121 WT3  1013 TIP3 H1   HT     0.417000        1.0080           0
   50122 WT3  1013 TIP3 H2   HT     0.417000        1.0080           0
   50123 WT3  1014 TIP3 OH2  OT    -0.834000       15.9994           0
   50124 WT3  1014 TIP3 H1   HT     0.417000        1.0080           0
   50125 WT3  1014 TIP3 H2   HT     0.417000        1.0080           0
   50126 WT3  1016 TIP3 OH2  OT    -0.834000       15.9994           0
   50127 WT3  1016 TIP3 H1   HT     0.417000        1.0080           0
   50128 WT3  1016 TIP3 H2   HT     0.417000        1.0080           0
   50129 WT3  1017 TIP3 OH2  OT    -0.834000       15.9994           0
   50130 WT3  1017 TIP3 H1   HT     0.417000        1.0080           0
   50131 WT3  1017 TIP3 H2   HT     0.417000        1.0080           0
   50132 WT3  1018 TIP3 OH2  OT    -0.834000       15.9994           0
   50133 WT3  1018 TIP3 H1   HT     0.417000        1.0080           0
   50134 WT3  1018 TIP3 H2   HT     0.417000        1.0080           0
   50135 WT3  1020 TIP3 OH2  OT    -0.834000       15.9994           0
   50136 WT3  1020 TIP3 H1   HT     0.417000        1.0080           0
   50137 WT3  1020 TIP3 H2   HT     0.417000        1.0080           0
   50138 WT3  1021 TIP3 OH2  OT    -0.834000       15.9994           0
   50139 WT3  1021 TIP3 H1   HT     0.417000        1.0080           0
   50140 WT3  1021 TIP3 H2   HT     0.417000        1.0080           0
   50141 WT3  1022 TIP3 OH2  OT    -0.834000       15.9994           0
   50142 WT3  1022 TIP3 H1   HT     0.417000        1.0080           0
   50143 WT3  1022 TIP3 H2   HT     0.417000        1.0080           0
   50144 WT3  1023 TIP3 OH2  OT    -0.834000       15.9994           0
   50145 WT3  1023 TIP3 H1   HT     0.417000        1.0080           0
   50146 WT3  1023 TIP3 H2   HT     0.417000        1.0080           0
   50147 WT3  1027 TIP3 OH2  OT    -0.834000       15.9994           0
   50148 WT3  1027 TIP3 H1   HT     0.417000        1.0080           0
   50149 WT3  1027 TIP3 H2   HT     0.417000        1.0080           0
   50150 WT3  1032 TIP3 OH2  OT    -0.834000       15.9994           0
   50151 WT3  1032 TIP3 H1   HT     0.417000        1.0080           0
   50152 WT3  1032 TIP3 H2   HT     0.417000        1.0080           0
   50153 WT3  1033 TIP3 OH2  OT    -0.834000       15.9994           0
   50154 WT3  1033 TIP3 H1   HT     0.417000        1.0080           0
   50155 WT3  1033 TIP3 H2   HT     0.417000        1.0080           0
   50156 WT3  1035 TIP3 OH2  OT    -0.834000       15.9994           0
   50157 WT3  1035 TIP3 H1   HT     0.417000        1.0080           0
   50158 WT3  1035 TIP3 H2   HT     0.417000        1.0080           0
   50159 WT3  1036 TIP3 OH2  OT    -0.834000       15.9994           0
   50160 WT3  1036 TIP3 H1   HT     0.417000        1.0080           0
   50161 WT3  1036 TIP3 H2   HT     0.417000        1.0080           0
   50162 WT3  1037 TIP3 OH2  OT    -0.834000       15.9994           0
   50163 WT3  1037 TIP3 H1   HT     0.417000        1.0080           0
   50164 WT3  1037 TIP3 H2   HT     0.417000        1.0080           0
   50165 WT3  1038 TIP3 OH2  OT    -0.834000       15.9994           0
   50166 WT3  1038 TIP3 H1   HT     0.417000        1.0080           0
   50167 WT3  1038 TIP3 H2   HT     0.417000        1.0080           0
   50168 WT3  1039 TIP3 OH2  OT    -0.834000       15.9994           0
   50169 WT3  1039 TIP3 H1   HT     0.417000        1.0080           0
   50170 WT3  1039 TIP3 H2   HT     0.417000        1.0080           0
   50171 WT3  1040 TIP3 OH2  OT    -0.834000       15.9994           0
   50172 WT3  1040 TIP3 H1   HT     0.417000        1.0080           0
   50173 WT3  1040 TIP3 H2   HT     0.417000        1.0080           0
   50174 WT3  1041 TIP3 OH2  OT    -0.834000       15.9994           0
   50175 WT3  1041 TIP3 H1   HT     0.417000        1.0080           0
   50176 WT3  1041 TIP3 H2   HT     0.417000        1.0080           0
   50177 WT3  1043 TIP3 OH2  OT    -0.834000       15.9994           0
   50178 WT3  1043 TIP3 H1   HT     0.417000        1.0080           0
   50179 WT3  1043 TIP3 H2   HT     0.417000        1.0080           0
   50180 WT3  1051 TIP3 OH2  OT    -0.834000       15.9994           0
   50181 WT3  1051 TIP3 H1   HT     0.417000        1.0080           0
   50182 WT3  1051 TIP3 H2   HT     0.417000        1.0080           0
   50183 WT3  1053 TIP3 OH2  OT    -0.834000       15.9994           0
   50184 WT3  1053 TIP3 H1   HT     0.417000        1.0080           0
   50185 WT3  1053 TIP3 H2   HT     0.417000        1.0080           0
   50186 WT3  1054 TIP3 OH2  OT    -0.834000       15.9994           0
   50187 WT3  1054 TIP3 H1   HT     0.417000        1.0080           0
   50188 WT3  1054 TIP3 H2   HT     0.417000        1.0080           0
   50189 WT3  1055 TIP3 OH2  OT    -0.834000       15.9994           0
   50190 WT3  1055 TIP3 H1   HT     0.417000        1.0080           0
   50191 WT3  1055 TIP3 H2   HT     0.417000        1.0080           0
   50192 WT3  1056 TIP3 OH2  OT    -0.834000       15.9994           0
   50193 WT3  1056 TIP3 H1   HT     0.417000        1.0080           0
   50194 WT3  1056 TIP3 H2   HT     0.417000        1.0080           0
   50195 WT3  1057 TIP3 OH2  OT    -0.834000       15.9994           0
   50196 WT3  1057 TIP3 H1   HT     0.417000        1.0080           0
   50197 WT3  1057 TIP3 H2   HT     0.417000        1.0080           0
   50198 WT3  1059 TIP3 OH2  OT    -0.834000       15.9994           0
   50199 WT3  1059 TIP3 H1   HT     0.417000        1.0080           0
   50200 WT3  1059 TIP3 H2   HT     0.417000        1.0080           0
   50201 WT3  1060 TIP3 OH2  OT    -0.834000       15.9994           0
   50202 WT3  1060 TIP3 H1   HT     0.417000        1.0080           0
   50203 WT3  1060 TIP3 H2   HT     0.417000        1.0080           0
   50204 WT3  1062 TIP3 OH2  OT    -0.834000       15.9994           0
   50205 WT3  1062 TIP3 H1   HT     0.417000        1.0080           0
   50206 WT3  1062 TIP3 H2   HT     0.417000        1.0080           0
   50207 WT3  1063 TIP3 OH2  OT    -0.834000       15.9994           0
   50208 WT3  1063 TIP3 H1   HT     0.417000        1.0080           0
   50209 WT3  1063 TIP3 H2   HT     0.417000        1.0080           0
   50210 WT3  1065 TIP3 OH2  OT    -0.834000       15.9994           0
   50211 WT3  1065 TIP3 H1   HT     0.417000        1.0080           0
   50212 WT3  1065 TIP3 H2   HT     0.417000        1.0080           0
   50213 WT3  1066 TIP3 OH2  OT    -0.834000       15.9994           0
   50214 WT3  1066 TIP3 H1   HT     0.417000        1.0080           0
   50215 WT3  1066 TIP3 H2   HT     0.417000        1.0080           0
   50216 WT3  1072 TIP3 OH2  OT    -0.834000       15.9994           0
   50217 WT3  1072 TIP3 H1   HT     0.417000        1.0080           0
   50218 WT3  1072 TIP3 H2   HT     0.417000        1.0080           0
   50219 WT3  1075 TIP3 OH2  OT    -0.834000       15.9994           0
   50220 WT3  1075 TIP3 H1   HT     0.417000        1.0080           0
   50221 WT3  1075 TIP3 H2   HT     0.417000        1.0080           0
   50222 WT3  1077 TIP3 OH2  OT    -0.834000       15.9994           0
   50223 WT3  1077 TIP3 H1   HT     0.417000        1.0080           0
   50224 WT3  1077 TIP3 H2   HT     0.417000        1.0080           0
   50225 WT3  1078 TIP3 OH2  OT    -0.834000       15.9994           0
   50226 WT3  1078 TIP3 H1   HT     0.417000        1.0080           0
   50227 WT3  1078 TIP3 H2   HT     0.417000        1.0080           0
   50228 WT3  1079 TIP3 OH2  OT    -0.834000       15.9994           0
   50229 WT3  1079 TIP3 H1   HT     0.417000        1.0080           0
   50230 WT3  1079 TIP3 H2   HT     0.417000        1.0080           0
   50231 WT3  1080 TIP3 OH2  OT    -0.834000       15.9994           0
   50232 WT3  1080 TIP3 H1   HT     0.417000        1.0080           0
   50233 WT3  1080 TIP3 H2   HT     0.417000        1.0080           0
   50234 WT3  1081 TIP3 OH2  OT    -0.834000       15.9994           0
   50235 WT3  1081 TIP3 H1   HT     0.417000        1.0080           0
   50236 WT3  1081 TIP3 H2   HT     0.417000        1.0080           0
   50237 WT3  1083 TIP3 OH2  OT    -0.834000       15.9994           0
   50238 WT3  1083 TIP3 H1   HT     0.417000        1.0080           0
   50239 WT3  1083 TIP3 H2   HT     0.417000        1.0080           0
   50240 WT3  1085 TIP3 OH2  OT    -0.834000       15.9994           0
   50241 WT3  1085 TIP3 H1   HT     0.417000        1.0080           0
   50242 WT3  1085 TIP3 H2   HT     0.417000        1.0080           0
   50243 WT3  1087 TIP3 OH2  OT    -0.834000       15.9994           0
   50244 WT3  1087 TIP3 H1   HT     0.417000        1.0080           0
   50245 WT3  1087 TIP3 H2   HT     0.417000        1.0080           0
   50246 WT3  1090 TIP3 OH2  OT    -0.834000       15.9994           0
   50247 WT3  1090 TIP3 H1   HT     0.417000        1.0080           0
   50248 WT3  1090 TIP3 H2   HT     0.417000        1.0080           0
   50249 WT3  1092 TIP3 OH2  OT    -0.834000       15.9994           0
   50250 WT3  1092 TIP3 H1   HT     0.417000        1.0080           0
   50251 WT3  1092 TIP3 H2   HT     0.417000        1.0080           0
   50252 WT3  1094 TIP3 OH2  OT    -0.834000       15.9994           0
   50253 WT3  1094 TIP3 H1   HT     0.417000        1.0080           0
   50254 WT3  1094 TIP3 H2   HT     0.417000        1.0080           0
   50255 WT3  1096 TIP3 OH2  OT    -0.834000       15.9994           0
   50256 WT3  1096 TIP3 H1   HT     0.417000        1.0080           0
   50257 WT3  1096 TIP3 H2   HT     0.417000        1.0080           0
   50258 WT3  1097 TIP3 OH2  OT    -0.834000       15.9994           0
   50259 WT3  1097 TIP3 H1   HT     0.417000        1.0080           0
   50260 WT3  1097 TIP3 H2   HT     0.417000        1.0080           0
   50261 WT3  1098 TIP3 OH2  OT    -0.834000       15.9994           0
   50262 WT3  1098 TIP3 H1   HT     0.417000        1.0080           0
   50263 WT3  1098 TIP3 H2   HT     0.417000        1.0080           0
   50264 WT3  1099 TIP3 OH2  OT    -0.834000       15.9994           0
   50265 WT3  1099 TIP3 H1   HT     0.417000        1.0080           0
   50266 WT3  1099 TIP3 H2   HT     0.417000        1.0080           0
   50267 WT3  1100 TIP3 OH2  OT    -0.834000       15.9994           0
   50268 WT3  1100 TIP3 H1   HT     0.417000        1.0080           0
   50269 WT3  1100 TIP3 H2   HT     0.417000        1.0080           0
   50270 WT3  1101 TIP3 OH2  OT    -0.834000       15.9994           0
   50271 WT3  1101 TIP3 H1   HT     0.417000        1.0080           0
   50272 WT3  1101 TIP3 H2   HT     0.417000        1.0080           0
   50273 WT3  1103 TIP3 OH2  OT    -0.834000       15.9994           0
   50274 WT3  1103 TIP3 H1   HT     0.417000        1.0080           0
   50275 WT3  1103 TIP3 H2   HT     0.417000        1.0080           0
   50276 WT3  1105 TIP3 OH2  OT    -0.834000       15.9994           0
   50277 WT3  1105 TIP3 H1   HT     0.417000        1.0080           0
   50278 WT3  1105 TIP3 H2   HT     0.417000        1.0080           0
   50279 WT3  1106 TIP3 OH2  OT    -0.834000       15.9994           0
   50280 WT3  1106 TIP3 H1   HT     0.417000        1.0080           0
   50281 WT3  1106 TIP3 H2   HT     0.417000        1.0080           0
   50282 WT3  1107 TIP3 OH2  OT    -0.834000       15.9994           0
   50283 WT3  1107 TIP3 H1   HT     0.417000        1.0080           0
   50284 WT3  1107 TIP3 H2   HT     0.417000        1.0080           0
   50285 WT3  1112 TIP3 OH2  OT    -0.834000       15.9994           0
   50286 WT3  1112 TIP3 H1   HT     0.417000        1.0080           0
   50287 WT3  1112 TIP3 H2   HT     0.417000        1.0080           0
   50288 WT3  1113 TIP3 OH2  OT    -0.834000       15.9994           0
   50289 WT3  1113 TIP3 H1   HT     0.417000        1.0080           0
   50290 WT3  1113 TIP3 H2   HT     0.417000        1.0080           0
   50291 WT3  1115 TIP3 OH2  OT    -0.834000       15.9994           0
   50292 WT3  1115 TIP3 H1   HT     0.417000        1.0080           0
   50293 WT3  1115 TIP3 H2   HT     0.417000        1.0080           0
   50294 WT3  1116 TIP3 OH2  OT    -0.834000       15.9994           0
   50295 WT3  1116 TIP3 H1   HT     0.417000        1.0080           0
   50296 WT3  1116 TIP3 H2   HT     0.417000        1.0080           0
   50297 WT3  1117 TIP3 OH2  OT    -0.834000       15.9994           0
   50298 WT3  1117 TIP3 H1   HT     0.417000        1.0080           0
   50299 WT3  1117 TIP3 H2   HT     0.417000        1.0080           0
   50300 WT3  1118 TIP3 OH2  OT    -0.834000       15.9994           0
   50301 WT3  1118 TIP3 H1   HT     0.417000        1.0080           0
   50302 WT3  1118 TIP3 H2   HT     0.417000        1.0080           0
   50303 WT3  1119 TIP3 OH2  OT    -0.834000       15.9994           0
   50304 WT3  1119 TIP3 H1   HT     0.417000        1.0080           0
   50305 WT3  1119 TIP3 H2   HT     0.417000        1.0080           0
   50306 WT3  1120 TIP3 OH2  OT    -0.834000       15.9994           0
   50307 WT3  1120 TIP3 H1   HT     0.417000        1.0080           0
   50308 WT3  1120 TIP3 H2   HT     0.417000        1.0080           0
   50309 WT3  1121 TIP3 OH2  OT    -0.834000       15.9994           0
   50310 WT3  1121 TIP3 H1   HT     0.417000        1.0080           0
   50311 WT3  1121 TIP3 H2   HT     0.417000        1.0080           0
   50312 WT3  1122 TIP3 OH2  OT    -0.834000       15.9994           0
   50313 WT3  1122 TIP3 H1   HT     0.417000        1.0080           0
   50314 WT3  1122 TIP3 H2   HT     0.417000        1.0080           0
   50315 WT3  1123 TIP3 OH2  OT    -0.834000       15.9994           0
   50316 WT3  1123 TIP3 H1   HT     0.417000        1.0080           0
   50317 WT3  1123 TIP3 H2   HT     0.417000        1.0080           0
   50318 WT3  1125 TIP3 OH2  OT    -0.834000       15.9994           0
   50319 WT3  1125 TIP3 H1   HT     0.417000        1.0080           0
   50320 WT3  1125 TIP3 H2   HT     0.417000        1.0080           0
   50321 WT3  1126 TIP3 OH2  OT    -0.834000       15.9994           0
   50322 WT3  1126 TIP3 H1   HT     0.417000        1.0080           0
   50323 WT3  1126 TIP3 H2   HT     0.417000        1.0080           0
   50324 WT3  1128 TIP3 OH2  OT    -0.834000       15.9994           0
   50325 WT3  1128 TIP3 H1   HT     0.417000        1.0080           0
   50326 WT3  1128 TIP3 H2   HT     0.417000        1.0080           0
   50327 WT3  1134 TIP3 OH2  OT    -0.834000       15.9994           0
   50328 WT3  1134 TIP3 H1   HT     0.417000        1.0080           0
   50329 WT3  1134 TIP3 H2   HT     0.417000        1.0080           0
   50330 WT3  1137 TIP3 OH2  OT    -0.834000       15.9994           0
   50331 WT3  1137 TIP3 H1   HT     0.417000        1.0080           0
   50332 WT3  1137 TIP3 H2   HT     0.417000        1.0080           0
   50333 WT3  1139 TIP3 OH2  OT    -0.834000       15.9994           0
   50334 WT3  1139 TIP3 H1   HT     0.417000        1.0080           0
   50335 WT3  1139 TIP3 H2   HT     0.417000        1.0080           0
   50336 WT3  1140 TIP3 OH2  OT    -0.834000       15.9994           0
   50337 WT3  1140 TIP3 H1   HT     0.417000        1.0080           0
   50338 WT3  1140 TIP3 H2   HT     0.417000        1.0080           0
   50339 WT3  1141 TIP3 OH2  OT    -0.834000       15.9994           0
   50340 WT3  1141 TIP3 H1   HT     0.417000        1.0080           0
   50341 WT3  1141 TIP3 H2   HT     0.417000        1.0080           0
   50342 WT3  1143 TIP3 OH2  OT    -0.834000       15.9994           0
   50343 WT3  1143 TIP3 H1   HT     0.417000        1.0080           0
   50344 WT3  1143 TIP3 H2   HT     0.417000        1.0080           0
   50345 WT3  1144 TIP3 OH2  OT    -0.834000       15.9994           0
   50346 WT3  1144 TIP3 H1   HT     0.417000        1.0080           0
   50347 WT3  1144 TIP3 H2   HT     0.417000        1.0080           0
   50348 WT3  1145 TIP3 OH2  OT    -0.834000       15.9994           0
   50349 WT3  1145 TIP3 H1   HT     0.417000        1.0080           0
   50350 WT3  1145 TIP3 H2   HT     0.417000        1.0080           0
   50351 WT3  1147 TIP3 OH2  OT    -0.834000       15.9994           0
   50352 WT3  1147 TIP3 H1   HT     0.417000        1.0080           0
   50353 WT3  1147 TIP3 H2   HT     0.417000        1.0080           0
   50354 WT3  1149 TIP3 OH2  OT    -0.834000       15.9994           0
   50355 WT3  1149 TIP3 H1   HT     0.417000        1.0080           0
   50356 WT3  1149 TIP3 H2   HT     0.417000        1.0080           0
   50357 WT3  1157 TIP3 OH2  OT    -0.834000       15.9994           0
   50358 WT3  1157 TIP3 H1   HT     0.417000        1.0080           0
   50359 WT3  1157 TIP3 H2   HT     0.417000        1.0080           0
   50360 WT3  1158 TIP3 OH2  OT    -0.834000       15.9994           0
   50361 WT3  1158 TIP3 H1   HT     0.417000        1.0080           0
   50362 WT3  1158 TIP3 H2   HT     0.417000        1.0080           0
   50363 WT3  1159 TIP3 OH2  OT    -0.834000       15.9994           0
   50364 WT3  1159 TIP3 H1   HT     0.417000        1.0080           0
   50365 WT3  1159 TIP3 H2   HT     0.417000        1.0080           0
   50366 WT3  1160 TIP3 OH2  OT    -0.834000       15.9994           0
   50367 WT3  1160 TIP3 H1   HT     0.417000        1.0080           0
   50368 WT3  1160 TIP3 H2   HT     0.417000        1.0080           0
   50369 WT3  1161 TIP3 OH2  OT    -0.834000       15.9994           0
   50370 WT3  1161 TIP3 H1   HT     0.417000        1.0080           0
   50371 WT3  1161 TIP3 H2   HT     0.417000        1.0080           0
   50372 WT3  1162 TIP3 OH2  OT    -0.834000       15.9994           0
   50373 WT3  1162 TIP3 H1   HT     0.417000        1.0080           0
   50374 WT3  1162 TIP3 H2   HT     0.417000        1.0080           0
   50375 WT3  1163 TIP3 OH2  OT    -0.834000       15.9994           0
   50376 WT3  1163 TIP3 H1   HT     0.417000        1.0080           0
   50377 WT3  1163 TIP3 H2   HT     0.417000        1.0080           0
   50378 WT3  1164 TIP3 OH2  OT    -0.834000       15.9994           0
   50379 WT3  1164 TIP3 H1   HT     0.417000        1.0080           0
   50380 WT3  1164 TIP3 H2   HT     0.417000        1.0080           0
   50381 WT3  1165 TIP3 OH2  OT    -0.834000       15.9994           0
   50382 WT3  1165 TIP3 H1   HT     0.417000        1.0080           0
   50383 WT3  1165 TIP3 H2   HT     0.417000        1.0080           0
   50384 WT3  1166 TIP3 OH2  OT    -0.834000       15.9994           0
   50385 WT3  1166 TIP3 H1   HT     0.417000        1.0080           0
   50386 WT3  1166 TIP3 H2   HT     0.417000        1.0080           0
   50387 WT3  1167 TIP3 OH2  OT    -0.834000       15.9994           0
   50388 WT3  1167 TIP3 H1   HT     0.417000        1.0080           0
   50389 WT3  1167 TIP3 H2   HT     0.417000        1.0080           0
   50390 WT3  1177 TIP3 OH2  OT    -0.834000       15.9994           0
   50391 WT3  1177 TIP3 H1   HT     0.417000        1.0080           0
   50392 WT3  1177 TIP3 H2   HT     0.417000        1.0080           0
   50393 WT3  1178 TIP3 OH2  OT    -0.834000       15.9994           0
   50394 WT3  1178 TIP3 H1   HT     0.417000        1.0080           0
   50395 WT3  1178 TIP3 H2   HT     0.417000        1.0080           0
   50396 WT3  1179 TIP3 OH2  OT    -0.834000       15.9994           0
   50397 WT3  1179 TIP3 H1   HT     0.417000        1.0080           0
   50398 WT3  1179 TIP3 H2   HT     0.417000        1.0080           0
   50399 WT3  1181 TIP3 OH2  OT    -0.834000       15.9994           0
   50400 WT3  1181 TIP3 H1   HT     0.417000        1.0080           0
   50401 WT3  1181 TIP3 H2   HT     0.417000        1.0080           0
   50402 WT3  1182 TIP3 OH2  OT    -0.834000       15.9994           0
   50403 WT3  1182 TIP3 H1   HT     0.417000        1.0080           0
   50404 WT3  1182 TIP3 H2   HT     0.417000        1.0080           0
   50405 WT3  1183 TIP3 OH2  OT    -0.834000       15.9994           0
   50406 WT3  1183 TIP3 H1   HT     0.417000        1.0080           0
   50407 WT3  1183 TIP3 H2   HT     0.417000        1.0080           0
   50408 WT3  1184 TIP3 OH2  OT    -0.834000       15.9994           0
   50409 WT3  1184 TIP3 H1   HT     0.417000        1.0080           0
   50410 WT3  1184 TIP3 H2   HT     0.417000        1.0080           0
   50411 WT3  1185 TIP3 OH2  OT    -0.834000       15.9994           0
   50412 WT3  1185 TIP3 H1   HT     0.417000        1.0080           0
   50413 WT3  1185 TIP3 H2   HT     0.417000        1.0080           0
   50414 WT3  1186 TIP3 OH2  OT    -0.834000       15.9994           0
   50415 WT3  1186 TIP3 H1   HT     0.417000        1.0080           0
   50416 WT3  1186 TIP3 H2   HT     0.417000        1.0080           0
   50417 WT3  1187 TIP3 OH2  OT    -0.834000       15.9994           0
   50418 WT3  1187 TIP3 H1   HT     0.417000        1.0080           0
   50419 WT3  1187 TIP3 H2   HT     0.417000        1.0080           0
   50420 WT3  1190 TIP3 OH2  OT    -0.834000       15.9994           0
   50421 WT3  1190 TIP3 H1   HT     0.417000        1.0080           0
   50422 WT3  1190 TIP3 H2   HT     0.417000        1.0080           0
   50423 WT3  1194 TIP3 OH2  OT    -0.834000       15.9994           0
   50424 WT3  1194 TIP3 H1   HT     0.417000        1.0080           0
   50425 WT3  1194 TIP3 H2   HT     0.417000        1.0080           0
   50426 WT3  1195 TIP3 OH2  OT    -0.834000       15.9994           0
   50427 WT3  1195 TIP3 H1   HT     0.417000        1.0080           0
   50428 WT3  1195 TIP3 H2   HT     0.417000        1.0080           0
   50429 WT3  1197 TIP3 OH2  OT    -0.834000       15.9994           0
   50430 WT3  1197 TIP3 H1   HT     0.417000        1.0080           0
   50431 WT3  1197 TIP3 H2   HT     0.417000        1.0080           0
   50432 WT3  1201 TIP3 OH2  OT    -0.834000       15.9994           0
   50433 WT3  1201 TIP3 H1   HT     0.417000        1.0080           0
   50434 WT3  1201 TIP3 H2   HT     0.417000        1.0080           0
   50435 WT3  1202 TIP3 OH2  OT    -0.834000       15.9994           0
   50436 WT3  1202 TIP3 H1   HT     0.417000        1.0080           0
   50437 WT3  1202 TIP3 H2   HT     0.417000        1.0080           0
   50438 WT3  1203 TIP3 OH2  OT    -0.834000       15.9994           0
   50439 WT3  1203 TIP3 H1   HT     0.417000        1.0080           0
   50440 WT3  1203 TIP3 H2   HT     0.417000        1.0080           0
   50441 WT3  1204 TIP3 OH2  OT    -0.834000       15.9994           0
   50442 WT3  1204 TIP3 H1   HT     0.417000        1.0080           0
   50443 WT3  1204 TIP3 H2   HT     0.417000        1.0080           0
   50444 WT3  1205 TIP3 OH2  OT    -0.834000       15.9994           0
   50445 WT3  1205 TIP3 H1   HT     0.417000        1.0080           0
   50446 WT3  1205 TIP3 H2   HT     0.417000        1.0080           0
   50447 WT3  1206 TIP3 OH2  OT    -0.834000       15.9994           0
   50448 WT3  1206 TIP3 H1   HT     0.417000        1.0080           0
   50449 WT3  1206 TIP3 H2   HT     0.417000        1.0080           0
   50450 WT3  1207 TIP3 OH2  OT    -0.834000       15.9994           0
   50451 WT3  1207 TIP3 H1   HT     0.417000        1.0080           0
   50452 WT3  1207 TIP3 H2   HT     0.417000        1.0080           0
   50453 WT3  1208 TIP3 OH2  OT    -0.834000       15.9994           0
   50454 WT3  1208 TIP3 H1   HT     0.417000        1.0080           0
   50455 WT3  1208 TIP3 H2   HT     0.417000        1.0080           0
   50456 WT3  1211 TIP3 OH2  OT    -0.834000       15.9994           0
   50457 WT3  1211 TIP3 H1   HT     0.417000        1.0080           0
   50458 WT3  1211 TIP3 H2   HT     0.417000        1.0080           0
   50459 WT3  1212 TIP3 OH2  OT    -0.834000       15.9994           0
   50460 WT3  1212 TIP3 H1   HT     0.417000        1.0080           0
   50461 WT3  1212 TIP3 H2   HT     0.417000        1.0080           0
   50462 WT3  1214 TIP3 OH2  OT    -0.834000       15.9994           0
   50463 WT3  1214 TIP3 H1   HT     0.417000        1.0080           0
   50464 WT3  1214 TIP3 H2   HT     0.417000        1.0080           0
   50465 WT3  1215 TIP3 OH2  OT    -0.834000       15.9994           0
   50466 WT3  1215 TIP3 H1   HT     0.417000        1.0080           0
   50467 WT3  1215 TIP3 H2   HT     0.417000        1.0080           0
   50468 WT3  1217 TIP3 OH2  OT    -0.834000       15.9994           0
   50469 WT3  1217 TIP3 H1   HT     0.417000        1.0080           0
   50470 WT3  1217 TIP3 H2   HT     0.417000        1.0080           0
   50471 WT3  1219 TIP3 OH2  OT    -0.834000       15.9994           0
   50472 WT3  1219 TIP3 H1   HT     0.417000        1.0080           0
   50473 WT3  1219 TIP3 H2   HT     0.417000        1.0080           0
   50474 WT3  1220 TIP3 OH2  OT    -0.834000       15.9994           0
   50475 WT3  1220 TIP3 H1   HT     0.417000        1.0080           0
   50476 WT3  1220 TIP3 H2   HT     0.417000        1.0080           0
   50477 WT3  1222 TIP3 OH2  OT    -0.834000       15.9994           0
   50478 WT3  1222 TIP3 H1   HT     0.417000        1.0080           0
   50479 WT3  1222 TIP3 H2   HT     0.417000        1.0080           0
   50480 WT3  1223 TIP3 OH2  OT    -0.834000       15.9994           0
   50481 WT3  1223 TIP3 H1   HT     0.417000        1.0080           0
   50482 WT3  1223 TIP3 H2   HT     0.417000        1.0080           0
   50483 WT3  1224 TIP3 OH2  OT    -0.834000       15.9994           0
   50484 WT3  1224 TIP3 H1   HT     0.417000        1.0080           0
   50485 WT3  1224 TIP3 H2   HT     0.417000        1.0080           0
   50486 WT3  1225 TIP3 OH2  OT    -0.834000       15.9994           0
   50487 WT3  1225 TIP3 H1   HT     0.417000        1.0080           0
   50488 WT3  1225 TIP3 H2   HT     0.417000        1.0080           0
   50489 WT3  1226 TIP3 OH2  OT    -0.834000       15.9994           0
   50490 WT3  1226 TIP3 H1   HT     0.417000        1.0080           0
   50491 WT3  1226 TIP3 H2   HT     0.417000        1.0080           0
   50492 WT3  1228 TIP3 OH2  OT    -0.834000       15.9994           0
   50493 WT3  1228 TIP3 H1   HT     0.417000        1.0080           0
   50494 WT3  1228 TIP3 H2   HT     0.417000        1.0080           0
   50495 WT3  1229 TIP3 OH2  OT    -0.834000       15.9994           0
   50496 WT3  1229 TIP3 H1   HT     0.417000        1.0080           0
   50497 WT3  1229 TIP3 H2   HT     0.417000        1.0080           0
   50498 WT3  1230 TIP3 OH2  OT    -0.834000       15.9994           0
   50499 WT3  1230 TIP3 H1   HT     0.417000        1.0080           0
   50500 WT3  1230 TIP3 H2   HT     0.417000        1.0080           0
   50501 WT3  1232 TIP3 OH2  OT    -0.834000       15.9994           0
   50502 WT3  1232 TIP3 H1   HT     0.417000        1.0080           0
   50503 WT3  1232 TIP3 H2   HT     0.417000        1.0080           0
   50504 WT3  1233 TIP3 OH2  OT    -0.834000       15.9994           0
   50505 WT3  1233 TIP3 H1   HT     0.417000        1.0080           0
   50506 WT3  1233 TIP3 H2   HT     0.417000        1.0080           0
   50507 WT3  1234 TIP3 OH2  OT    -0.834000       15.9994           0
   50508 WT3  1234 TIP3 H1   HT     0.417000        1.0080           0
   50509 WT3  1234 TIP3 H2   HT     0.417000        1.0080           0
   50510 WT3  1241 TIP3 OH2  OT    -0.834000       15.9994           0
   50511 WT3  1241 TIP3 H1   HT     0.417000        1.0080           0
   50512 WT3  1241 TIP3 H2   HT     0.417000        1.0080           0
   50513 WT3  1243 TIP3 OH2  OT    -0.834000       15.9994           0
   50514 WT3  1243 TIP3 H1   HT     0.417000        1.0080           0
   50515 WT3  1243 TIP3 H2   HT     0.417000        1.0080           0
   50516 WT3  1244 TIP3 OH2  OT    -0.834000       15.9994           0
   50517 WT3  1244 TIP3 H1   HT     0.417000        1.0080           0
   50518 WT3  1244 TIP3 H2   HT     0.417000        1.0080           0
   50519 WT3  1246 TIP3 OH2  OT    -0.834000       15.9994           0
   50520 WT3  1246 TIP3 H1   HT     0.417000        1.0080           0
   50521 WT3  1246 TIP3 H2   HT     0.417000        1.0080           0
   50522 WT3  1247 TIP3 OH2  OT    -0.834000       15.9994           0
   50523 WT3  1247 TIP3 H1   HT     0.417000        1.0080           0
   50524 WT3  1247 TIP3 H2   HT     0.417000        1.0080           0
   50525 WT3  1248 TIP3 OH2  OT    -0.834000       15.9994           0
   50526 WT3  1248 TIP3 H1   HT     0.417000        1.0080           0
   50527 WT3  1248 TIP3 H2   HT     0.417000        1.0080           0
   50528 WT3  1250 TIP3 OH2  OT    -0.834000       15.9994           0
   50529 WT3  1250 TIP3 H1   HT     0.417000        1.0080           0
   50530 WT3  1250 TIP3 H2   HT     0.417000        1.0080           0
   50531 WT3  1251 TIP3 OH2  OT    -0.834000       15.9994           0
   50532 WT3  1251 TIP3 H1   HT     0.417000        1.0080           0
   50533 WT3  1251 TIP3 H2   HT     0.417000        1.0080           0
   50534 WT3  1256 TIP3 OH2  OT    -0.834000       15.9994           0
   50535 WT3  1256 TIP3 H1   HT     0.417000        1.0080           0
   50536 WT3  1256 TIP3 H2   HT     0.417000        1.0080           0
   50537 WT3  1258 TIP3 OH2  OT    -0.834000       15.9994           0
   50538 WT3  1258 TIP3 H1   HT     0.417000        1.0080           0
   50539 WT3  1258 TIP3 H2   HT     0.417000        1.0080           0
   50540 WT3  1263 TIP3 OH2  OT    -0.834000       15.9994           0
   50541 WT3  1263 TIP3 H1   HT     0.417000        1.0080           0
   50542 WT3  1263 TIP3 H2   HT     0.417000        1.0080           0
   50543 WT3  1265 TIP3 OH2  OT    -0.834000       15.9994           0
   50544 WT3  1265 TIP3 H1   HT     0.417000        1.0080           0
   50545 WT3  1265 TIP3 H2   HT     0.417000        1.0080           0
   50546 WT3  1266 TIP3 OH2  OT    -0.834000       15.9994           0
   50547 WT3  1266 TIP3 H1   HT     0.417000        1.0080           0
   50548 WT3  1266 TIP3 H2   HT     0.417000        1.0080           0
   50549 WT3  1267 TIP3 OH2  OT    -0.834000       15.9994           0
   50550 WT3  1267 TIP3 H1   HT     0.417000        1.0080           0
   50551 WT3  1267 TIP3 H2   HT     0.417000        1.0080           0
   50552 WT3  1268 TIP3 OH2  OT    -0.834000       15.9994           0
   50553 WT3  1268 TIP3 H1   HT     0.417000        1.0080           0
   50554 WT3  1268 TIP3 H2   HT     0.417000        1.0080           0
   50555 WT3  1269 TIP3 OH2  OT    -0.834000       15.9994           0
   50556 WT3  1269 TIP3 H1   HT     0.417000        1.0080           0
   50557 WT3  1269 TIP3 H2   HT     0.417000        1.0080           0
   50558 WT3  1270 TIP3 OH2  OT    -0.834000       15.9994           0
   50559 WT3  1270 TIP3 H1   HT     0.417000        1.0080           0
   50560 WT3  1270 TIP3 H2   HT     0.417000        1.0080           0
   50561 WT3  1271 TIP3 OH2  OT    -0.834000       15.9994           0
   50562 WT3  1271 TIP3 H1   HT     0.417000        1.0080           0
   50563 WT3  1271 TIP3 H2   HT     0.417000        1.0080           0
   50564 WT3  1272 TIP3 OH2  OT    -0.834000       15.9994           0
   50565 WT3  1272 TIP3 H1   HT     0.417000        1.0080           0
   50566 WT3  1272 TIP3 H2   HT     0.417000        1.0080           0
   50567 WT3  1274 TIP3 OH2  OT    -0.834000       15.9994           0
   50568 WT3  1274 TIP3 H1   HT     0.417000        1.0080           0
   50569 WT3  1274 TIP3 H2   HT     0.417000        1.0080           0
   50570 WT3  1276 TIP3 OH2  OT    -0.834000       15.9994           0
   50571 WT3  1276 TIP3 H1   HT     0.417000        1.0080           0
   50572 WT3  1276 TIP3 H2   HT     0.417000        1.0080           0
   50573 WT3  1277 TIP3 OH2  OT    -0.834000       15.9994           0
   50574 WT3  1277 TIP3 H1   HT     0.417000        1.0080           0
   50575 WT3  1277 TIP3 H2   HT     0.417000        1.0080           0
   50576 WT3  1278 TIP3 OH2  OT    -0.834000       15.9994           0
   50577 WT3  1278 TIP3 H1   HT     0.417000        1.0080           0
   50578 WT3  1278 TIP3 H2   HT     0.417000        1.0080           0
   50579 WT3  1281 TIP3 OH2  OT    -0.834000       15.9994           0
   50580 WT3  1281 TIP3 H1   HT     0.417000        1.0080           0
   50581 WT3  1281 TIP3 H2   HT     0.417000        1.0080           0
   50582 WT3  1283 TIP3 OH2  OT    -0.834000       15.9994           0
   50583 WT3  1283 TIP3 H1   HT     0.417000        1.0080           0
   50584 WT3  1283 TIP3 H2   HT     0.417000        1.0080           0
   50585 WT3  1284 TIP3 OH2  OT    -0.834000       15.9994           0
   50586 WT3  1284 TIP3 H1   HT     0.417000        1.0080           0
   50587 WT3  1284 TIP3 H2   HT     0.417000        1.0080           0
   50588 WT3  1285 TIP3 OH2  OT    -0.834000       15.9994           0
   50589 WT3  1285 TIP3 H1   HT     0.417000        1.0080           0
   50590 WT3  1285 TIP3 H2   HT     0.417000        1.0080           0
   50591 WT3  1286 TIP3 OH2  OT    -0.834000       15.9994           0
   50592 WT3  1286 TIP3 H1   HT     0.417000        1.0080           0
   50593 WT3  1286 TIP3 H2   HT     0.417000        1.0080           0
   50594 WT3  1287 TIP3 OH2  OT    -0.834000       15.9994           0
   50595 WT3  1287 TIP3 H1   HT     0.417000        1.0080           0
   50596 WT3  1287 TIP3 H2   HT     0.417000        1.0080           0
   50597 WT3  1288 TIP3 OH2  OT    -0.834000       15.9994           0
   50598 WT3  1288 TIP3 H1   HT     0.417000        1.0080           0
   50599 WT3  1288 TIP3 H2   HT     0.417000        1.0080           0
   50600 WT3  1289 TIP3 OH2  OT    -0.834000       15.9994           0
   50601 WT3  1289 TIP3 H1   HT     0.417000        1.0080           0
   50602 WT3  1289 TIP3 H2   HT     0.417000        1.0080           0
   50603 WT3  1290 TIP3 OH2  OT    -0.834000       15.9994           0
   50604 WT3  1290 TIP3 H1   HT     0.417000        1.0080           0
   50605 WT3  1290 TIP3 H2   HT     0.417000        1.0080           0
   50606 WT3  1291 TIP3 OH2  OT    -0.834000       15.9994           0
   50607 WT3  1291 TIP3 H1   HT     0.417000        1.0080           0
   50608 WT3  1291 TIP3 H2   HT     0.417000        1.0080           0
   50609 WT3  1293 TIP3 OH2  OT    -0.834000       15.9994           0
   50610 WT3  1293 TIP3 H1   HT     0.417000        1.0080           0
   50611 WT3  1293 TIP3 H2   HT     0.417000        1.0080           0
   50612 WT3  1295 TIP3 OH2  OT    -0.834000       15.9994           0
   50613 WT3  1295 TIP3 H1   HT     0.417000        1.0080           0
   50614 WT3  1295 TIP3 H2   HT     0.417000        1.0080           0
   50615 WT3  1297 TIP3 OH2  OT    -0.834000       15.9994           0
   50616 WT3  1297 TIP3 H1   HT     0.417000        1.0080           0
   50617 WT3  1297 TIP3 H2   HT     0.417000        1.0080           0
   50618 WT3  1298 TIP3 OH2  OT    -0.834000       15.9994           0
   50619 WT3  1298 TIP3 H1   HT     0.417000        1.0080           0
   50620 WT3  1298 TIP3 H2   HT     0.417000        1.0080           0
   50621 WT3  1301 TIP3 OH2  OT    -0.834000       15.9994           0
   50622 WT3  1301 TIP3 H1   HT     0.417000        1.0080           0
   50623 WT3  1301 TIP3 H2   HT     0.417000        1.0080           0
   50624 WT3  1303 TIP3 OH2  OT    -0.834000       15.9994           0
   50625 WT3  1303 TIP3 H1   HT     0.417000        1.0080           0
   50626 WT3  1303 TIP3 H2   HT     0.417000        1.0080           0
   50627 WT3  1304 TIP3 OH2  OT    -0.834000       15.9994           0
   50628 WT3  1304 TIP3 H1   HT     0.417000        1.0080           0
   50629 WT3  1304 TIP3 H2   HT     0.417000        1.0080           0
   50630 WT3  1305 TIP3 OH2  OT    -0.834000       15.9994           0
   50631 WT3  1305 TIP3 H1   HT     0.417000        1.0080           0
   50632 WT3  1305 TIP3 H2   HT     0.417000        1.0080           0
   50633 WT3  1307 TIP3 OH2  OT    -0.834000       15.9994           0
   50634 WT3  1307 TIP3 H1   HT     0.417000        1.0080           0
   50635 WT3  1307 TIP3 H2   HT     0.417000        1.0080           0
   50636 WT3  1308 TIP3 OH2  OT    -0.834000       15.9994           0
   50637 WT3  1308 TIP3 H1   HT     0.417000        1.0080           0
   50638 WT3  1308 TIP3 H2   HT     0.417000        1.0080           0
   50639 WT3  1309 TIP3 OH2  OT    -0.834000       15.9994           0
   50640 WT3  1309 TIP3 H1   HT     0.417000        1.0080           0
   50641 WT3  1309 TIP3 H2   HT     0.417000        1.0080           0
   50642 WT3  1311 TIP3 OH2  OT    -0.834000       15.9994           0
   50643 WT3  1311 TIP3 H1   HT     0.417000        1.0080           0
   50644 WT3  1311 TIP3 H2   HT     0.417000        1.0080           0
   50645 WT3  1312 TIP3 OH2  OT    -0.834000       15.9994           0
   50646 WT3  1312 TIP3 H1   HT     0.417000        1.0080           0
   50647 WT3  1312 TIP3 H2   HT     0.417000        1.0080           0
   50648 WT3  1314 TIP3 OH2  OT    -0.834000       15.9994           0
   50649 WT3  1314 TIP3 H1   HT     0.417000        1.0080           0
   50650 WT3  1314 TIP3 H2   HT     0.417000        1.0080           0
   50651 WT3  1316 TIP3 OH2  OT    -0.834000       15.9994           0
   50652 WT3  1316 TIP3 H1   HT     0.417000        1.0080           0
   50653 WT3  1316 TIP3 H2   HT     0.417000        1.0080           0
   50654 WT3  1317 TIP3 OH2  OT    -0.834000       15.9994           0
   50655 WT3  1317 TIP3 H1   HT     0.417000        1.0080           0
   50656 WT3  1317 TIP3 H2   HT     0.417000        1.0080           0
   50657 WT3  1319 TIP3 OH2  OT    -0.834000       15.9994           0
   50658 WT3  1319 TIP3 H1   HT     0.417000        1.0080           0
   50659 WT3  1319 TIP3 H2   HT     0.417000        1.0080           0
   50660 WT3  1322 TIP3 OH2  OT    -0.834000       15.9994           0
   50661 WT3  1322 TIP3 H1   HT     0.417000        1.0080           0
   50662 WT3  1322 TIP3 H2   HT     0.417000        1.0080           0
   50663 WT3  1324 TIP3 OH2  OT    -0.834000       15.9994           0
   50664 WT3  1324 TIP3 H1   HT     0.417000        1.0080           0
   50665 WT3  1324 TIP3 H2   HT     0.417000        1.0080           0
   50666 WT3  1327 TIP3 OH2  OT    -0.834000       15.9994           0
   50667 WT3  1327 TIP3 H1   HT     0.417000        1.0080           0
   50668 WT3  1327 TIP3 H2   HT     0.417000        1.0080           0
   50669 WT3  1328 TIP3 OH2  OT    -0.834000       15.9994           0
   50670 WT3  1328 TIP3 H1   HT     0.417000        1.0080           0
   50671 WT3  1328 TIP3 H2   HT     0.417000        1.0080           0
   50672 WT3  1329 TIP3 OH2  OT    -0.834000       15.9994           0
   50673 WT3  1329 TIP3 H1   HT     0.417000        1.0080           0
   50674 WT3  1329 TIP3 H2   HT     0.417000        1.0080           0
   50675 WT3  1330 TIP3 OH2  OT    -0.834000       15.9994           0
   50676 WT3  1330 TIP3 H1   HT     0.417000        1.0080           0
   50677 WT3  1330 TIP3 H2   HT     0.417000        1.0080           0
   50678 WT3  1332 TIP3 OH2  OT    -0.834000       15.9994           0
   50679 WT3  1332 TIP3 H1   HT     0.417000        1.0080           0
   50680 WT3  1332 TIP3 H2   HT     0.417000        1.0080           0
   50681 WT3  1333 TIP3 OH2  OT    -0.834000       15.9994           0
   50682 WT3  1333 TIP3 H1   HT     0.417000        1.0080           0
   50683 WT3  1333 TIP3 H2   HT     0.417000        1.0080           0
   50684 WT3  1334 TIP3 OH2  OT    -0.834000       15.9994           0
   50685 WT3  1334 TIP3 H1   HT     0.417000        1.0080           0
   50686 WT3  1334 TIP3 H2   HT     0.417000        1.0080           0
   50687 WT3  1335 TIP3 OH2  OT    -0.834000       15.9994           0
   50688 WT3  1335 TIP3 H1   HT     0.417000        1.0080           0
   50689 WT3  1335 TIP3 H2   HT     0.417000        1.0080           0
   50690 WT3  1336 TIP3 OH2  OT    -0.834000       15.9994           0
   50691 WT3  1336 TIP3 H1   HT     0.417000        1.0080           0
   50692 WT3  1336 TIP3 H2   HT     0.417000        1.0080           0
   50693 WT3  1337 TIP3 OH2  OT    -0.834000       15.9994           0
   50694 WT3  1337 TIP3 H1   HT     0.417000        1.0080           0
   50695 WT3  1337 TIP3 H2   HT     0.417000        1.0080           0
   50696 WT3  1344 TIP3 OH2  OT    -0.834000       15.9994           0
   50697 WT3  1344 TIP3 H1   HT     0.417000        1.0080           0
   50698 WT3  1344 TIP3 H2   HT     0.417000        1.0080           0
   50699 WT3  1346 TIP3 OH2  OT    -0.834000       15.9994           0
   50700 WT3  1346 TIP3 H1   HT     0.417000        1.0080           0
   50701 WT3  1346 TIP3 H2   HT     0.417000        1.0080           0
   50702 WT3  1347 TIP3 OH2  OT    -0.834000       15.9994           0
   50703 WT3  1347 TIP3 H1   HT     0.417000        1.0080           0
   50704 WT3  1347 TIP3 H2   HT     0.417000        1.0080           0
   50705 WT3  1349 TIP3 OH2  OT    -0.834000       15.9994           0
   50706 WT3  1349 TIP3 H1   HT     0.417000        1.0080           0
   50707 WT3  1349 TIP3 H2   HT     0.417000        1.0080           0
   50708 WT3  1350 TIP3 OH2  OT    -0.834000       15.9994           0
   50709 WT3  1350 TIP3 H1   HT     0.417000        1.0080           0
   50710 WT3  1350 TIP3 H2   HT     0.417000        1.0080           0
   50711 WT3  1351 TIP3 OH2  OT    -0.834000       15.9994           0
   50712 WT3  1351 TIP3 H1   HT     0.417000        1.0080           0
   50713 WT3  1351 TIP3 H2   HT     0.417000        1.0080           0
   50714 WT3  1352 TIP3 OH2  OT    -0.834000       15.9994           0
   50715 WT3  1352 TIP3 H1   HT     0.417000        1.0080           0
   50716 WT3  1352 TIP3 H2   HT     0.417000        1.0080           0
   50717 WT3  1353 TIP3 OH2  OT    -0.834000       15.9994           0
   50718 WT3  1353 TIP3 H1   HT     0.417000        1.0080           0
   50719 WT3  1353 TIP3 H2   HT     0.417000        1.0080           0
   50720 WT3  1354 TIP3 OH2  OT    -0.834000       15.9994           0
   50721 WT3  1354 TIP3 H1   HT     0.417000        1.0080           0
   50722 WT3  1354 TIP3 H2   HT     0.417000        1.0080           0
   50723 WT3  1356 TIP3 OH2  OT    -0.834000       15.9994           0
   50724 WT3  1356 TIP3 H1   HT     0.417000        1.0080           0
   50725 WT3  1356 TIP3 H2   HT     0.417000        1.0080           0
   50726 WT3  1357 TIP3 OH2  OT    -0.834000       15.9994           0
   50727 WT3  1357 TIP3 H1   HT     0.417000        1.0080           0
   50728 WT3  1357 TIP3 H2   HT     0.417000        1.0080           0
   50729 WT3  1358 TIP3 OH2  OT    -0.834000       15.9994           0
   50730 WT3  1358 TIP3 H1   HT     0.417000        1.0080           0
   50731 WT3  1358 TIP3 H2   HT     0.417000        1.0080           0
   50732 WT3  1361 TIP3 OH2  OT    -0.834000       15.9994           0
   50733 WT3  1361 TIP3 H1   HT     0.417000        1.0080           0
   50734 WT3  1361 TIP3 H2   HT     0.417000        1.0080           0
   50735 WT3  1367 TIP3 OH2  OT    -0.834000       15.9994           0
   50736 WT3  1367 TIP3 H1   HT     0.417000        1.0080           0
   50737 WT3  1367 TIP3 H2   HT     0.417000        1.0080           0
   50738 WT3  1368 TIP3 OH2  OT    -0.834000       15.9994           0
   50739 WT3  1368 TIP3 H1   HT     0.417000        1.0080           0
   50740 WT3  1368 TIP3 H2   HT     0.417000        1.0080           0
   50741 WT3  1370 TIP3 OH2  OT    -0.834000       15.9994           0
   50742 WT3  1370 TIP3 H1   HT     0.417000        1.0080           0
   50743 WT3  1370 TIP3 H2   HT     0.417000        1.0080           0
   50744 WT3  1371 TIP3 OH2  OT    -0.834000       15.9994           0
   50745 WT3  1371 TIP3 H1   HT     0.417000        1.0080           0
   50746 WT3  1371 TIP3 H2   HT     0.417000        1.0080           0
   50747 WT3  1372 TIP3 OH2  OT    -0.834000       15.9994           0
   50748 WT3  1372 TIP3 H1   HT     0.417000        1.0080           0
   50749 WT3  1372 TIP3 H2   HT     0.417000        1.0080           0
   50750 WT3  1373 TIP3 OH2  OT    -0.834000       15.9994           0
   50751 WT3  1373 TIP3 H1   HT     0.417000        1.0080           0
   50752 WT3  1373 TIP3 H2   HT     0.417000        1.0080           0
   50753 WT3  1374 TIP3 OH2  OT    -0.834000       15.9994           0
   50754 WT3  1374 TIP3 H1   HT     0.417000        1.0080           0
   50755 WT3  1374 TIP3 H2   HT     0.417000        1.0080           0
   50756 WT3  1375 TIP3 OH2  OT    -0.834000       15.9994           0
   50757 WT3  1375 TIP3 H1   HT     0.417000        1.0080           0
   50758 WT3  1375 TIP3 H2   HT     0.417000        1.0080           0
   50759 WT3  1376 TIP3 OH2  OT    -0.834000       15.9994           0
   50760 WT3  1376 TIP3 H1   HT     0.417000        1.0080           0
   50761 WT3  1376 TIP3 H2   HT     0.417000        1.0080           0
   50762 WT3  1377 TIP3 OH2  OT    -0.834000       15.9994           0
   50763 WT3  1377 TIP3 H1   HT     0.417000        1.0080           0
   50764 WT3  1377 TIP3 H2   HT     0.417000        1.0080           0
   50765 WT3  1385 TIP3 OH2  OT    -0.834000       15.9994           0
   50766 WT3  1385 TIP3 H1   HT     0.417000        1.0080           0
   50767 WT3  1385 TIP3 H2   HT     0.417000        1.0080           0
   50768 WT3  1386 TIP3 OH2  OT    -0.834000       15.9994           0
   50769 WT3  1386 TIP3 H1   HT     0.417000        1.0080           0
   50770 WT3  1386 TIP3 H2   HT     0.417000        1.0080           0
   50771 WT3  1387 TIP3 OH2  OT    -0.834000       15.9994           0
   50772 WT3  1387 TIP3 H1   HT     0.417000        1.0080           0
   50773 WT3  1387 TIP3 H2   HT     0.417000        1.0080           0
   50774 WT3  1388 TIP3 OH2  OT    -0.834000       15.9994           0
   50775 WT3  1388 TIP3 H1   HT     0.417000        1.0080           0
   50776 WT3  1388 TIP3 H2   HT     0.417000        1.0080           0
   50777 WT3  1389 TIP3 OH2  OT    -0.834000       15.9994           0
   50778 WT3  1389 TIP3 H1   HT     0.417000        1.0080           0
   50779 WT3  1389 TIP3 H2   HT     0.417000        1.0080           0
   50780 WT3  1393 TIP3 OH2  OT    -0.834000       15.9994           0
   50781 WT3  1393 TIP3 H1   HT     0.417000        1.0080           0
   50782 WT3  1393 TIP3 H2   HT     0.417000        1.0080           0
   50783 WT3  1394 TIP3 OH2  OT    -0.834000       15.9994           0
   50784 WT3  1394 TIP3 H1   HT     0.417000        1.0080           0
   50785 WT3  1394 TIP3 H2   HT     0.417000        1.0080           0
   50786 WT3  1395 TIP3 OH2  OT    -0.834000       15.9994           0
   50787 WT3  1395 TIP3 H1   HT     0.417000        1.0080           0
   50788 WT3  1395 TIP3 H2   HT     0.417000        1.0080           0
   50789 WT3  1396 TIP3 OH2  OT    -0.834000       15.9994           0
   50790 WT3  1396 TIP3 H1   HT     0.417000        1.0080           0
   50791 WT3  1396 TIP3 H2   HT     0.417000        1.0080           0
   50792 WT3  1397 TIP3 OH2  OT    -0.834000       15.9994           0
   50793 WT3  1397 TIP3 H1   HT     0.417000        1.0080           0
   50794 WT3  1397 TIP3 H2   HT     0.417000        1.0080           0
   50795 WT3  1398 TIP3 OH2  OT    -0.834000       15.9994           0
   50796 WT3  1398 TIP3 H1   HT     0.417000        1.0080           0
   50797 WT3  1398 TIP3 H2   HT     0.417000        1.0080           0
   50798 WT3  1404 TIP3 OH2  OT    -0.834000       15.9994           0
   50799 WT3  1404 TIP3 H1   HT     0.417000        1.0080           0
   50800 WT3  1404 TIP3 H2   HT     0.417000        1.0080           0
   50801 WT3  1405 TIP3 OH2  OT    -0.834000       15.9994           0
   50802 WT3  1405 TIP3 H1   HT     0.417000        1.0080           0
   50803 WT3  1405 TIP3 H2   HT     0.417000        1.0080           0
   50804 WT3  1407 TIP3 OH2  OT    -0.834000       15.9994           0
   50805 WT3  1407 TIP3 H1   HT     0.417000        1.0080           0
   50806 WT3  1407 TIP3 H2   HT     0.417000        1.0080           0
   50807 WT3  1408 TIP3 OH2  OT    -0.834000       15.9994           0
   50808 WT3  1408 TIP3 H1   HT     0.417000        1.0080           0
   50809 WT3  1408 TIP3 H2   HT     0.417000        1.0080           0
   50810 WT3  1411 TIP3 OH2  OT    -0.834000       15.9994           0
   50811 WT3  1411 TIP3 H1   HT     0.417000        1.0080           0
   50812 WT3  1411 TIP3 H2   HT     0.417000        1.0080           0
   50813 WT3  1412 TIP3 OH2  OT    -0.834000       15.9994           0
   50814 WT3  1412 TIP3 H1   HT     0.417000        1.0080           0
   50815 WT3  1412 TIP3 H2   HT     0.417000        1.0080           0
   50816 WT3  1413 TIP3 OH2  OT    -0.834000       15.9994           0
   50817 WT3  1413 TIP3 H1   HT     0.417000        1.0080           0
   50818 WT3  1413 TIP3 H2   HT     0.417000        1.0080           0
   50819 WT3  1415 TIP3 OH2  OT    -0.834000       15.9994           0
   50820 WT3  1415 TIP3 H1   HT     0.417000        1.0080           0
   50821 WT3  1415 TIP3 H2   HT     0.417000        1.0080           0
   50822 WT3  1416 TIP3 OH2  OT    -0.834000       15.9994           0
   50823 WT3  1416 TIP3 H1   HT     0.417000        1.0080           0
   50824 WT3  1416 TIP3 H2   HT     0.417000        1.0080           0
   50825 WT3  1417 TIP3 OH2  OT    -0.834000       15.9994           0
   50826 WT3  1417 TIP3 H1   HT     0.417000        1.0080           0
   50827 WT3  1417 TIP3 H2   HT     0.417000        1.0080           0
   50828 WT3  1418 TIP3 OH2  OT    -0.834000       15.9994           0
   50829 WT3  1418 TIP3 H1   HT     0.417000        1.0080           0
   50830 WT3  1418 TIP3 H2   HT     0.417000        1.0080           0
   50831 WT3  1419 TIP3 OH2  OT    -0.834000       15.9994           0
   50832 WT3  1419 TIP3 H1   HT     0.417000        1.0080           0
   50833 WT3  1419 TIP3 H2   HT     0.417000        1.0080           0
   50834 WT3  1420 TIP3 OH2  OT    -0.834000       15.9994           0
   50835 WT3  1420 TIP3 H1   HT     0.417000        1.0080           0
   50836 WT3  1420 TIP3 H2   HT     0.417000        1.0080           0
   50837 WT3  1421 TIP3 OH2  OT    -0.834000       15.9994           0
   50838 WT3  1421 TIP3 H1   HT     0.417000        1.0080           0
   50839 WT3  1421 TIP3 H2   HT     0.417000        1.0080           0
   50840 WT3  1422 TIP3 OH2  OT    -0.834000       15.9994           0
   50841 WT3  1422 TIP3 H1   HT     0.417000        1.0080           0
   50842 WT3  1422 TIP3 H2   HT     0.417000        1.0080           0
   50843 WT3  1425 TIP3 OH2  OT    -0.834000       15.9994           0
   50844 WT3  1425 TIP3 H1   HT     0.417000        1.0080           0
   50845 WT3  1425 TIP3 H2   HT     0.417000        1.0080           0
   50846 WT3  1427 TIP3 OH2  OT    -0.834000       15.9994           0
   50847 WT3  1427 TIP3 H1   HT     0.417000        1.0080           0
   50848 WT3  1427 TIP3 H2   HT     0.417000        1.0080           0
   50849 WT3  1428 TIP3 OH2  OT    -0.834000       15.9994           0
   50850 WT3  1428 TIP3 H1   HT     0.417000        1.0080           0
   50851 WT3  1428 TIP3 H2   HT     0.417000        1.0080           0
   50852 WT3  1429 TIP3 OH2  OT    -0.834000       15.9994           0
   50853 WT3  1429 TIP3 H1   HT     0.417000        1.0080           0
   50854 WT3  1429 TIP3 H2   HT     0.417000        1.0080           0
   50855 WT3  1430 TIP3 OH2  OT    -0.834000       15.9994           0
   50856 WT3  1430 TIP3 H1   HT     0.417000        1.0080           0
   50857 WT3  1430 TIP3 H2   HT     0.417000        1.0080           0
   50858 WT3  1431 TIP3 OH2  OT    -0.834000       15.9994           0
   50859 WT3  1431 TIP3 H1   HT     0.417000        1.0080           0
   50860 WT3  1431 TIP3 H2   HT     0.417000        1.0080           0
   50861 WT3  1433 TIP3 OH2  OT    -0.834000       15.9994           0
   50862 WT3  1433 TIP3 H1   HT     0.417000        1.0080           0
   50863 WT3  1433 TIP3 H2   HT     0.417000        1.0080           0
   50864 WT3  1434 TIP3 OH2  OT    -0.834000       15.9994           0
   50865 WT3  1434 TIP3 H1   HT     0.417000        1.0080           0
   50866 WT3  1434 TIP3 H2   HT     0.417000        1.0080           0
   50867 WT3  1435 TIP3 OH2  OT    -0.834000       15.9994           0
   50868 WT3  1435 TIP3 H1   HT     0.417000        1.0080           0
   50869 WT3  1435 TIP3 H2   HT     0.417000        1.0080           0
   50870 WT3  1436 TIP3 OH2  OT    -0.834000       15.9994           0
   50871 WT3  1436 TIP3 H1   HT     0.417000        1.0080           0
   50872 WT3  1436 TIP3 H2   HT     0.417000        1.0080           0
   50873 WT3  1437 TIP3 OH2  OT    -0.834000       15.9994           0
   50874 WT3  1437 TIP3 H1   HT     0.417000        1.0080           0
   50875 WT3  1437 TIP3 H2   HT     0.417000        1.0080           0
   50876 WT3  1438 TIP3 OH2  OT    -0.834000       15.9994           0
   50877 WT3  1438 TIP3 H1   HT     0.417000        1.0080           0
   50878 WT3  1438 TIP3 H2   HT     0.417000        1.0080           0
   50879 WT3  1440 TIP3 OH2  OT    -0.834000       15.9994           0
   50880 WT3  1440 TIP3 H1   HT     0.417000        1.0080           0
   50881 WT3  1440 TIP3 H2   HT     0.417000        1.0080           0
   50882 WT3  1441 TIP3 OH2  OT    -0.834000       15.9994           0
   50883 WT3  1441 TIP3 H1   HT     0.417000        1.0080           0
   50884 WT3  1441 TIP3 H2   HT     0.417000        1.0080           0
   50885 WT3  1442 TIP3 OH2  OT    -0.834000       15.9994           0
   50886 WT3  1442 TIP3 H1   HT     0.417000        1.0080           0
   50887 WT3  1442 TIP3 H2   HT     0.417000        1.0080           0
   50888 WT3  1443 TIP3 OH2  OT    -0.834000       15.9994           0
   50889 WT3  1443 TIP3 H1   HT     0.417000        1.0080           0
   50890 WT3  1443 TIP3 H2   HT     0.417000        1.0080           0
   50891 WT3  1450 TIP3 OH2  OT    -0.834000       15.9994           0
   50892 WT3  1450 TIP3 H1   HT     0.417000        1.0080           0
   50893 WT3  1450 TIP3 H2   HT     0.417000        1.0080           0
   50894 WT3  1452 TIP3 OH2  OT    -0.834000       15.9994           0
   50895 WT3  1452 TIP3 H1   HT     0.417000        1.0080           0
   50896 WT3  1452 TIP3 H2   HT     0.417000        1.0080           0
   50897 WT3  1453 TIP3 OH2  OT    -0.834000       15.9994           0
   50898 WT3  1453 TIP3 H1   HT     0.417000        1.0080           0
   50899 WT3  1453 TIP3 H2   HT     0.417000        1.0080           0
   50900 WT3  1454 TIP3 OH2  OT    -0.834000       15.9994           0
   50901 WT3  1454 TIP3 H1   HT     0.417000        1.0080           0
   50902 WT3  1454 TIP3 H2   HT     0.417000        1.0080           0
   50903 WT3  1455 TIP3 OH2  OT    -0.834000       15.9994           0
   50904 WT3  1455 TIP3 H1   HT     0.417000        1.0080           0
   50905 WT3  1455 TIP3 H2   HT     0.417000        1.0080           0
   50906 WT3  1456 TIP3 OH2  OT    -0.834000       15.9994           0
   50907 WT3  1456 TIP3 H1   HT     0.417000        1.0080           0
   50908 WT3  1456 TIP3 H2   HT     0.417000        1.0080           0
   50909 WT3  1457 TIP3 OH2  OT    -0.834000       15.9994           0
   50910 WT3  1457 TIP3 H1   HT     0.417000        1.0080           0
   50911 WT3  1457 TIP3 H2   HT     0.417000        1.0080           0
   50912 WT3  1458 TIP3 OH2  OT    -0.834000       15.9994           0
   50913 WT3  1458 TIP3 H1   HT     0.417000        1.0080           0
   50914 WT3  1458 TIP3 H2   HT     0.417000        1.0080           0
   50915 WT3  1459 TIP3 OH2  OT    -0.834000       15.9994           0
   50916 WT3  1459 TIP3 H1   HT     0.417000        1.0080           0
   50917 WT3  1459 TIP3 H2   HT     0.417000        1.0080           0
   50918 WT3  1460 TIP3 OH2  OT    -0.834000       15.9994           0
   50919 WT3  1460 TIP3 H1   HT     0.417000        1.0080           0
   50920 WT3  1460 TIP3 H2   HT     0.417000        1.0080           0
   50921 WT3  1461 TIP3 OH2  OT    -0.834000       15.9994           0
   50922 WT3  1461 TIP3 H1   HT     0.417000        1.0080           0
   50923 WT3  1461 TIP3 H2   HT     0.417000        1.0080           0
   50924 WT3  1463 TIP3 OH2  OT    -0.834000       15.9994           0
   50925 WT3  1463 TIP3 H1   HT     0.417000        1.0080           0
   50926 WT3  1463 TIP3 H2   HT     0.417000        1.0080           0
   50927 WT3  1465 TIP3 OH2  OT    -0.834000       15.9994           0
   50928 WT3  1465 TIP3 H1   HT     0.417000        1.0080           0
   50929 WT3  1465 TIP3 H2   HT     0.417000        1.0080           0
   50930 WT3  1466 TIP3 OH2  OT    -0.834000       15.9994           0
   50931 WT3  1466 TIP3 H1   HT     0.417000        1.0080           0
   50932 WT3  1466 TIP3 H2   HT     0.417000        1.0080           0
   50933 WT3  1471 TIP3 OH2  OT    -0.834000       15.9994           0
   50934 WT3  1471 TIP3 H1   HT     0.417000        1.0080           0
   50935 WT3  1471 TIP3 H2   HT     0.417000        1.0080           0
   50936 WT3  1474 TIP3 OH2  OT    -0.834000       15.9994           0
   50937 WT3  1474 TIP3 H1   HT     0.417000        1.0080           0
   50938 WT3  1474 TIP3 H2   HT     0.417000        1.0080           0
   50939 WT3  1475 TIP3 OH2  OT    -0.834000       15.9994           0
   50940 WT3  1475 TIP3 H1   HT     0.417000        1.0080           0
   50941 WT3  1475 TIP3 H2   HT     0.417000        1.0080           0
   50942 WT3  1476 TIP3 OH2  OT    -0.834000       15.9994           0
   50943 WT3  1476 TIP3 H1   HT     0.417000        1.0080           0
   50944 WT3  1476 TIP3 H2   HT     0.417000        1.0080           0
   50945 WT3  1477 TIP3 OH2  OT    -0.834000       15.9994           0
   50946 WT3  1477 TIP3 H1   HT     0.417000        1.0080           0
   50947 WT3  1477 TIP3 H2   HT     0.417000        1.0080           0
   50948 WT3  1478 TIP3 OH2  OT    -0.834000       15.9994           0
   50949 WT3  1478 TIP3 H1   HT     0.417000        1.0080           0
   50950 WT3  1478 TIP3 H2   HT     0.417000        1.0080           0
   50951 WT3  1479 TIP3 OH2  OT    -0.834000       15.9994           0
   50952 WT3  1479 TIP3 H1   HT     0.417000        1.0080           0
   50953 WT3  1479 TIP3 H2   HT     0.417000        1.0080           0
   50954 WT3  1481 TIP3 OH2  OT    -0.834000       15.9994           0
   50955 WT3  1481 TIP3 H1   HT     0.417000        1.0080           0
   50956 WT3  1481 TIP3 H2   HT     0.417000        1.0080           0
   50957 WT3  1482 TIP3 OH2  OT    -0.834000       15.9994           0
   50958 WT3  1482 TIP3 H1   HT     0.417000        1.0080           0
   50959 WT3  1482 TIP3 H2   HT     0.417000        1.0080           0
   50960 WT3  1483 TIP3 OH2  OT    -0.834000       15.9994           0
   50961 WT3  1483 TIP3 H1   HT     0.417000        1.0080           0
   50962 WT3  1483 TIP3 H2   HT     0.417000        1.0080           0
   50963 WT3  1485 TIP3 OH2  OT    -0.834000       15.9994           0
   50964 WT3  1485 TIP3 H1   HT     0.417000        1.0080           0
   50965 WT3  1485 TIP3 H2   HT     0.417000        1.0080           0
   50966 WT3  1492 TIP3 OH2  OT    -0.834000       15.9994           0
   50967 WT3  1492 TIP3 H1   HT     0.417000        1.0080           0
   50968 WT3  1492 TIP3 H2   HT     0.417000        1.0080           0
   50969 WT3  1493 TIP3 OH2  OT    -0.834000       15.9994           0
   50970 WT3  1493 TIP3 H1   HT     0.417000        1.0080           0
   50971 WT3  1493 TIP3 H2   HT     0.417000        1.0080           0
   50972 WT3  1494 TIP3 OH2  OT    -0.834000       15.9994           0
   50973 WT3  1494 TIP3 H1   HT     0.417000        1.0080           0
   50974 WT3  1494 TIP3 H2   HT     0.417000        1.0080           0
   50975 WT3  1496 TIP3 OH2  OT    -0.834000       15.9994           0
   50976 WT3  1496 TIP3 H1   HT     0.417000        1.0080           0
   50977 WT3  1496 TIP3 H2   HT     0.417000        1.0080           0
   50978 WT3  1497 TIP3 OH2  OT    -0.834000       15.9994           0
   50979 WT3  1497 TIP3 H1   HT     0.417000        1.0080           0
   50980 WT3  1497 TIP3 H2   HT     0.417000        1.0080           0
   50981 WT3  1498 TIP3 OH2  OT    -0.834000       15.9994           0
   50982 WT3  1498 TIP3 H1   HT     0.417000        1.0080           0
   50983 WT3  1498 TIP3 H2   HT     0.417000        1.0080           0
   50984 WT3  1499 TIP3 OH2  OT    -0.834000       15.9994           0
   50985 WT3  1499 TIP3 H1   HT     0.417000        1.0080           0
   50986 WT3  1499 TIP3 H2   HT     0.417000        1.0080           0
   50987 WT3  1500 TIP3 OH2  OT    -0.834000       15.9994           0
   50988 WT3  1500 TIP3 H1   HT     0.417000        1.0080           0
   50989 WT3  1500 TIP3 H2   HT     0.417000        1.0080           0
   50990 WT3  1501 TIP3 OH2  OT    -0.834000       15.9994           0
   50991 WT3  1501 TIP3 H1   HT     0.417000        1.0080           0
   50992 WT3  1501 TIP3 H2   HT     0.417000        1.0080           0
   50993 WT3  1502 TIP3 OH2  OT    -0.834000       15.9994           0
   50994 WT3  1502 TIP3 H1   HT     0.417000        1.0080           0
   50995 WT3  1502 TIP3 H2   HT     0.417000        1.0080           0
   50996 WT3  1503 TIP3 OH2  OT    -0.834000       15.9994           0
   50997 WT3  1503 TIP3 H1   HT     0.417000        1.0080           0
   50998 WT3  1503 TIP3 H2   HT     0.417000        1.0080           0
   50999 WT3  1504 TIP3 OH2  OT    -0.834000       15.9994           0
   51000 WT3  1504 TIP3 H1   HT     0.417000        1.0080           0
   51001 WT3  1504 TIP3 H2   HT     0.417000        1.0080           0
   51002 WT3  1506 TIP3 OH2  OT    -0.834000       15.9994           0
   51003 WT3  1506 TIP3 H1   HT     0.417000        1.0080           0
   51004 WT3  1506 TIP3 H2   HT     0.417000        1.0080           0
   51005 WT3  1507 TIP3 OH2  OT    -0.834000       15.9994           0
   51006 WT3  1507 TIP3 H1   HT     0.417000        1.0080           0
   51007 WT3  1507 TIP3 H2   HT     0.417000        1.0080           0
   51008 WT3  1512 TIP3 OH2  OT    -0.834000       15.9994           0
   51009 WT3  1512 TIP3 H1   HT     0.417000        1.0080           0
   51010 WT3  1512 TIP3 H2   HT     0.417000        1.0080           0
   51011 WT3  1514 TIP3 OH2  OT    -0.834000       15.9994           0
   51012 WT3  1514 TIP3 H1   HT     0.417000        1.0080           0
   51013 WT3  1514 TIP3 H2   HT     0.417000        1.0080           0
   51014 WT3  1515 TIP3 OH2  OT    -0.834000       15.9994           0
   51015 WT3  1515 TIP3 H1   HT     0.417000        1.0080           0
   51016 WT3  1515 TIP3 H2   HT     0.417000        1.0080           0
   51017 WT3  1517 TIP3 OH2  OT    -0.834000       15.9994           0
   51018 WT3  1517 TIP3 H1   HT     0.417000        1.0080           0
   51019 WT3  1517 TIP3 H2   HT     0.417000        1.0080           0
   51020 WT3  1518 TIP3 OH2  OT    -0.834000       15.9994           0
   51021 WT3  1518 TIP3 H1   HT     0.417000        1.0080           0
   51022 WT3  1518 TIP3 H2   HT     0.417000        1.0080           0
   51023 WT3  1519 TIP3 OH2  OT    -0.834000       15.9994           0
   51024 WT3  1519 TIP3 H1   HT     0.417000        1.0080           0
   51025 WT3  1519 TIP3 H2   HT     0.417000        1.0080           0
   51026 WT3  1520 TIP3 OH2  OT    -0.834000       15.9994           0
   51027 WT3  1520 TIP3 H1   HT     0.417000        1.0080           0
   51028 WT3  1520 TIP3 H2   HT     0.417000        1.0080           0
   51029 WT3  1521 TIP3 OH2  OT    -0.834000       15.9994           0
   51030 WT3  1521 TIP3 H1   HT     0.417000        1.0080           0
   51031 WT3  1521 TIP3 H2   HT     0.417000        1.0080           0
   51032 WT3  1523 TIP3 OH2  OT    -0.834000       15.9994           0
   51033 WT3  1523 TIP3 H1   HT     0.417000        1.0080           0
   51034 WT3  1523 TIP3 H2   HT     0.417000        1.0080           0
   51035 WT3  1524 TIP3 OH2  OT    -0.834000       15.9994           0
   51036 WT3  1524 TIP3 H1   HT     0.417000        1.0080           0
   51037 WT3  1524 TIP3 H2   HT     0.417000        1.0080           0
   51038 WT3  1525 TIP3 OH2  OT    -0.834000       15.9994           0
   51039 WT3  1525 TIP3 H1   HT     0.417000        1.0080           0
   51040 WT3  1525 TIP3 H2   HT     0.417000        1.0080           0
   51041 WT3  1526 TIP3 OH2  OT    -0.834000       15.9994           0
   51042 WT3  1526 TIP3 H1   HT     0.417000        1.0080           0
   51043 WT3  1526 TIP3 H2   HT     0.417000        1.0080           0
   51044 WT3  1527 TIP3 OH2  OT    -0.834000       15.9994           0
   51045 WT3  1527 TIP3 H1   HT     0.417000        1.0080           0
   51046 WT3  1527 TIP3 H2   HT     0.417000        1.0080           0
   51047 WT3  1532 TIP3 OH2  OT    -0.834000       15.9994           0
   51048 WT3  1532 TIP3 H1   HT     0.417000        1.0080           0
   51049 WT3  1532 TIP3 H2   HT     0.417000        1.0080           0
   51050 WT3  1534 TIP3 OH2  OT    -0.834000       15.9994           0
   51051 WT3  1534 TIP3 H1   HT     0.417000        1.0080           0
   51052 WT3  1534 TIP3 H2   HT     0.417000        1.0080           0
   51053 WT3  1535 TIP3 OH2  OT    -0.834000       15.9994           0
   51054 WT3  1535 TIP3 H1   HT     0.417000        1.0080           0
   51055 WT3  1535 TIP3 H2   HT     0.417000        1.0080           0
   51056 WT3  1536 TIP3 OH2  OT    -0.834000       15.9994           0
   51057 WT3  1536 TIP3 H1   HT     0.417000        1.0080           0
   51058 WT3  1536 TIP3 H2   HT     0.417000        1.0080           0
   51059 WT3  1537 TIP3 OH2  OT    -0.834000       15.9994           0
   51060 WT3  1537 TIP3 H1   HT     0.417000        1.0080           0
   51061 WT3  1537 TIP3 H2   HT     0.417000        1.0080           0
   51062 WT3  1538 TIP3 OH2  OT    -0.834000       15.9994           0
   51063 WT3  1538 TIP3 H1   HT     0.417000        1.0080           0
   51064 WT3  1538 TIP3 H2   HT     0.417000        1.0080           0
   51065 WT3  1539 TIP3 OH2  OT    -0.834000       15.9994           0
   51066 WT3  1539 TIP3 H1   HT     0.417000        1.0080           0
   51067 WT3  1539 TIP3 H2   HT     0.417000        1.0080           0
   51068 WT3  1540 TIP3 OH2  OT    -0.834000       15.9994           0
   51069 WT3  1540 TIP3 H1   HT     0.417000        1.0080           0
   51070 WT3  1540 TIP3 H2   HT     0.417000        1.0080           0
   51071 WT3  1541 TIP3 OH2  OT    -0.834000       15.9994           0
   51072 WT3  1541 TIP3 H1   HT     0.417000        1.0080           0
   51073 WT3  1541 TIP3 H2   HT     0.417000        1.0080           0
   51074 WT3  1542 TIP3 OH2  OT    -0.834000       15.9994           0
   51075 WT3  1542 TIP3 H1   HT     0.417000        1.0080           0
   51076 WT3  1542 TIP3 H2   HT     0.417000        1.0080           0
   51077 WT3  1543 TIP3 OH2  OT    -0.834000       15.9994           0
   51078 WT3  1543 TIP3 H1   HT     0.417000        1.0080           0
   51079 WT3  1543 TIP3 H2   HT     0.417000        1.0080           0
   51080 WT3  1544 TIP3 OH2  OT    -0.834000       15.9994           0
   51081 WT3  1544 TIP3 H1   HT     0.417000        1.0080           0
   51082 WT3  1544 TIP3 H2   HT     0.417000        1.0080           0
   51083 WT3  1545 TIP3 OH2  OT    -0.834000       15.9994           0
   51084 WT3  1545 TIP3 H1   HT     0.417000        1.0080           0
   51085 WT3  1545 TIP3 H2   HT     0.417000        1.0080           0
   51086 WT3  1546 TIP3 OH2  OT    -0.834000       15.9994           0
   51087 WT3  1546 TIP3 H1   HT     0.417000        1.0080           0
   51088 WT3  1546 TIP3 H2   HT     0.417000        1.0080           0
   51089 WT3  1547 TIP3 OH2  OT    -0.834000       15.9994           0
   51090 WT3  1547 TIP3 H1   HT     0.417000        1.0080           0
   51091 WT3  1547 TIP3 H2   HT     0.417000        1.0080           0
   51092 WT3  1548 TIP3 OH2  OT    -0.834000       15.9994           0
   51093 WT3  1548 TIP3 H1   HT     0.417000        1.0080           0
   51094 WT3  1548 TIP3 H2   HT     0.417000        1.0080           0
   51095 WT3  1551 TIP3 OH2  OT    -0.834000       15.9994           0
   51096 WT3  1551 TIP3 H1   HT     0.417000        1.0080           0
   51097 WT3  1551 TIP3 H2   HT     0.417000        1.0080           0
   51098 WT3  1552 TIP3 OH2  OT    -0.834000       15.9994           0
   51099 WT3  1552 TIP3 H1   HT     0.417000        1.0080           0
   51100 WT3  1552 TIP3 H2   HT     0.417000        1.0080           0
   51101 WT3  1555 TIP3 OH2  OT    -0.834000       15.9994           0
   51102 WT3  1555 TIP3 H1   HT     0.417000        1.0080           0
   51103 WT3  1555 TIP3 H2   HT     0.417000        1.0080           0
   51104 WT3  1557 TIP3 OH2  OT    -0.834000       15.9994           0
   51105 WT3  1557 TIP3 H1   HT     0.417000        1.0080           0
   51106 WT3  1557 TIP3 H2   HT     0.417000        1.0080           0
   51107 WT3  1558 TIP3 OH2  OT    -0.834000       15.9994           0
   51108 WT3  1558 TIP3 H1   HT     0.417000        1.0080           0
   51109 WT3  1558 TIP3 H2   HT     0.417000        1.0080           0
   51110 WT3  1560 TIP3 OH2  OT    -0.834000       15.9994           0
   51111 WT3  1560 TIP3 H1   HT     0.417000        1.0080           0
   51112 WT3  1560 TIP3 H2   HT     0.417000        1.0080           0
   51113 WT3  1561 TIP3 OH2  OT    -0.834000       15.9994           0
   51114 WT3  1561 TIP3 H1   HT     0.417000        1.0080           0
   51115 WT3  1561 TIP3 H2   HT     0.417000        1.0080           0
   51116 WT3  1562 TIP3 OH2  OT    -0.834000       15.9994           0
   51117 WT3  1562 TIP3 H1   HT     0.417000        1.0080           0
   51118 WT3  1562 TIP3 H2   HT     0.417000        1.0080           0
   51119 WT3  1563 TIP3 OH2  OT    -0.834000       15.9994           0
   51120 WT3  1563 TIP3 H1   HT     0.417000        1.0080           0
   51121 WT3  1563 TIP3 H2   HT     0.417000        1.0080           0
   51122 WT3  1564 TIP3 OH2  OT    -0.834000       15.9994           0
   51123 WT3  1564 TIP3 H1   HT     0.417000        1.0080           0
   51124 WT3  1564 TIP3 H2   HT     0.417000        1.0080           0
   51125 WT3  1565 TIP3 OH2  OT    -0.834000       15.9994           0
   51126 WT3  1565 TIP3 H1   HT     0.417000        1.0080           0
   51127 WT3  1565 TIP3 H2   HT     0.417000        1.0080           0
   51128 WT3  1566 TIP3 OH2  OT    -0.834000       15.9994           0
   51129 WT3  1566 TIP3 H1   HT     0.417000        1.0080           0
   51130 WT3  1566 TIP3 H2   HT     0.417000        1.0080           0
   51131 WT3  1568 TIP3 OH2  OT    -0.834000       15.9994           0
   51132 WT3  1568 TIP3 H1   HT     0.417000        1.0080           0
   51133 WT3  1568 TIP3 H2   HT     0.417000        1.0080           0
   51134 WT3  1569 TIP3 OH2  OT    -0.834000       15.9994           0
   51135 WT3  1569 TIP3 H1   HT     0.417000        1.0080           0
   51136 WT3  1569 TIP3 H2   HT     0.417000        1.0080           0
   51137 WT3  1570 TIP3 OH2  OT    -0.834000       15.9994           0
   51138 WT3  1570 TIP3 H1   HT     0.417000        1.0080           0
   51139 WT3  1570 TIP3 H2   HT     0.417000        1.0080           0
   51140 WT3  1576 TIP3 OH2  OT    -0.834000       15.9994           0
   51141 WT3  1576 TIP3 H1   HT     0.417000        1.0080           0
   51142 WT3  1576 TIP3 H2   HT     0.417000        1.0080           0
   51143 WT3  1577 TIP3 OH2  OT    -0.834000       15.9994           0
   51144 WT3  1577 TIP3 H1   HT     0.417000        1.0080           0
   51145 WT3  1577 TIP3 H2   HT     0.417000        1.0080           0
   51146 WT3  1578 TIP3 OH2  OT    -0.834000       15.9994           0
   51147 WT3  1578 TIP3 H1   HT     0.417000        1.0080           0
   51148 WT3  1578 TIP3 H2   HT     0.417000        1.0080           0
   51149 WT3  1579 TIP3 OH2  OT    -0.834000       15.9994           0
   51150 WT3  1579 TIP3 H1   HT     0.417000        1.0080           0
   51151 WT3  1579 TIP3 H2   HT     0.417000        1.0080           0
   51152 WT3  1580 TIP3 OH2  OT    -0.834000       15.9994           0
   51153 WT3  1580 TIP3 H1   HT     0.417000        1.0080           0
   51154 WT3  1580 TIP3 H2   HT     0.417000        1.0080           0
   51155 WT3  1581 TIP3 OH2  OT    -0.834000       15.9994           0
   51156 WT3  1581 TIP3 H1   HT     0.417000        1.0080           0
   51157 WT3  1581 TIP3 H2   HT     0.417000        1.0080           0
   51158 WT3  1582 TIP3 OH2  OT    -0.834000       15.9994           0
   51159 WT3  1582 TIP3 H1   HT     0.417000        1.0080           0
   51160 WT3  1582 TIP3 H2   HT     0.417000        1.0080           0
   51161 WT3  1584 TIP3 OH2  OT    -0.834000       15.9994           0
   51162 WT3  1584 TIP3 H1   HT     0.417000        1.0080           0
   51163 WT3  1584 TIP3 H2   HT     0.417000        1.0080           0
   51164 WT3  1585 TIP3 OH2  OT    -0.834000       15.9994           0
   51165 WT3  1585 TIP3 H1   HT     0.417000        1.0080           0
   51166 WT3  1585 TIP3 H2   HT     0.417000        1.0080           0
   51167 WT3  1586 TIP3 OH2  OT    -0.834000       15.9994           0
   51168 WT3  1586 TIP3 H1   HT     0.417000        1.0080           0
   51169 WT3  1586 TIP3 H2   HT     0.417000        1.0080           0
   51170 WT3  1587 TIP3 OH2  OT    -0.834000       15.9994           0
   51171 WT3  1587 TIP3 H1   HT     0.417000        1.0080           0
   51172 WT3  1587 TIP3 H2   HT     0.417000        1.0080           0
   51173 WT3  1589 TIP3 OH2  OT    -0.834000       15.9994           0
   51174 WT3  1589 TIP3 H1   HT     0.417000        1.0080           0
   51175 WT3  1589 TIP3 H2   HT     0.417000        1.0080           0
   51176 WT3  1590 TIP3 OH2  OT    -0.834000       15.9994           0
   51177 WT3  1590 TIP3 H1   HT     0.417000        1.0080           0
   51178 WT3  1590 TIP3 H2   HT     0.417000        1.0080           0
   51179 WT3  1592 TIP3 OH2  OT    -0.834000       15.9994           0
   51180 WT3  1592 TIP3 H1   HT     0.417000        1.0080           0
   51181 WT3  1592 TIP3 H2   HT     0.417000        1.0080           0
   51182 WT3  1598 TIP3 OH2  OT    -0.834000       15.9994           0
   51183 WT3  1598 TIP3 H1   HT     0.417000        1.0080           0
   51184 WT3  1598 TIP3 H2   HT     0.417000        1.0080           0
   51185 WT3  1599 TIP3 OH2  OT    -0.834000       15.9994           0
   51186 WT3  1599 TIP3 H1   HT     0.417000        1.0080           0
   51187 WT3  1599 TIP3 H2   HT     0.417000        1.0080           0
   51188 WT3  1600 TIP3 OH2  OT    -0.834000       15.9994           0
   51189 WT3  1600 TIP3 H1   HT     0.417000        1.0080           0
   51190 WT3  1600 TIP3 H2   HT     0.417000        1.0080           0
   51191 WT3  1601 TIP3 OH2  OT    -0.834000       15.9994           0
   51192 WT3  1601 TIP3 H1   HT     0.417000        1.0080           0
   51193 WT3  1601 TIP3 H2   HT     0.417000        1.0080           0
   51194 WT3  1603 TIP3 OH2  OT    -0.834000       15.9994           0
   51195 WT3  1603 TIP3 H1   HT     0.417000        1.0080           0
   51196 WT3  1603 TIP3 H2   HT     0.417000        1.0080           0
   51197 WT3  1604 TIP3 OH2  OT    -0.834000       15.9994           0
   51198 WT3  1604 TIP3 H1   HT     0.417000        1.0080           0
   51199 WT3  1604 TIP3 H2   HT     0.417000        1.0080           0
   51200 WT3  1605 TIP3 OH2  OT    -0.834000       15.9994           0
   51201 WT3  1605 TIP3 H1   HT     0.417000        1.0080           0
   51202 WT3  1605 TIP3 H2   HT     0.417000        1.0080           0
   51203 WT3  1606 TIP3 OH2  OT    -0.834000       15.9994           0
   51204 WT3  1606 TIP3 H1   HT     0.417000        1.0080           0
   51205 WT3  1606 TIP3 H2   HT     0.417000        1.0080           0
   51206 WT3  1607 TIP3 OH2  OT    -0.834000       15.9994           0
   51207 WT3  1607 TIP3 H1   HT     0.417000        1.0080           0
   51208 WT3  1607 TIP3 H2   HT     0.417000        1.0080           0
   51209 WT3  1608 TIP3 OH2  OT    -0.834000       15.9994           0
   51210 WT3  1608 TIP3 H1   HT     0.417000        1.0080           0
   51211 WT3  1608 TIP3 H2   HT     0.417000        1.0080           0
   51212 WT3  1609 TIP3 OH2  OT    -0.834000       15.9994           0
   51213 WT3  1609 TIP3 H1   HT     0.417000        1.0080           0
   51214 WT3  1609 TIP3 H2   HT     0.417000        1.0080           0
   51215 WT3  1610 TIP3 OH2  OT    -0.834000       15.9994           0
   51216 WT3  1610 TIP3 H1   HT     0.417000        1.0080           0
   51217 WT3  1610 TIP3 H2   HT     0.417000        1.0080           0
   51218 WT3  1611 TIP3 OH2  OT    -0.834000       15.9994           0
   51219 WT3  1611 TIP3 H1   HT     0.417000        1.0080           0
   51220 WT3  1611 TIP3 H2   HT     0.417000        1.0080           0
   51221 WT3  1612 TIP3 OH2  OT    -0.834000       15.9994           0
   51222 WT3  1612 TIP3 H1   HT     0.417000        1.0080           0
   51223 WT3  1612 TIP3 H2   HT     0.417000        1.0080           0
   51224 WT3  1618 TIP3 OH2  OT    -0.834000       15.9994           0
   51225 WT3  1618 TIP3 H1   HT     0.417000        1.0080           0
   51226 WT3  1618 TIP3 H2   HT     0.417000        1.0080           0
   51227 WT3  1620 TIP3 OH2  OT    -0.834000       15.9994           0
   51228 WT3  1620 TIP3 H1   HT     0.417000        1.0080           0
   51229 WT3  1620 TIP3 H2   HT     0.417000        1.0080           0
   51230 WT3  1621 TIP3 OH2  OT    -0.834000       15.9994           0
   51231 WT3  1621 TIP3 H1   HT     0.417000        1.0080           0
   51232 WT3  1621 TIP3 H2   HT     0.417000        1.0080           0
   51233 WT3  1622 TIP3 OH2  OT    -0.834000       15.9994           0
   51234 WT3  1622 TIP3 H1   HT     0.417000        1.0080           0
   51235 WT3  1622 TIP3 H2   HT     0.417000        1.0080           0
   51236 WT3  1623 TIP3 OH2  OT    -0.834000       15.9994           0
   51237 WT3  1623 TIP3 H1   HT     0.417000        1.0080           0
   51238 WT3  1623 TIP3 H2   HT     0.417000        1.0080           0
   51239 WT3  1624 TIP3 OH2  OT    -0.834000       15.9994           0
   51240 WT3  1624 TIP3 H1   HT     0.417000        1.0080           0
   51241 WT3  1624 TIP3 H2   HT     0.417000        1.0080           0
   51242 WT3  1625 TIP3 OH2  OT    -0.834000       15.9994           0
   51243 WT3  1625 TIP3 H1   HT     0.417000        1.0080           0
   51244 WT3  1625 TIP3 H2   HT     0.417000        1.0080           0
   51245 WT3  1626 TIP3 OH2  OT    -0.834000       15.9994           0
   51246 WT3  1626 TIP3 H1   HT     0.417000        1.0080           0
   51247 WT3  1626 TIP3 H2   HT     0.417000        1.0080           0
   51248 WT3  1627 TIP3 OH2  OT    -0.834000       15.9994           0
   51249 WT3  1627 TIP3 H1   HT     0.417000        1.0080           0
   51250 WT3  1627 TIP3 H2   HT     0.417000        1.0080           0
   51251 WT3  1628 TIP3 OH2  OT    -0.834000       15.9994           0
   51252 WT3  1628 TIP3 H1   HT     0.417000        1.0080           0
   51253 WT3  1628 TIP3 H2   HT     0.417000        1.0080           0
   51254 WT3  1629 TIP3 OH2  OT    -0.834000       15.9994           0
   51255 WT3  1629 TIP3 H1   HT     0.417000        1.0080           0
   51256 WT3  1629 TIP3 H2   HT     0.417000        1.0080           0
   51257 WT3  1630 TIP3 OH2  OT    -0.834000       15.9994           0
   51258 WT3  1630 TIP3 H1   HT     0.417000        1.0080           0
   51259 WT3  1630 TIP3 H2   HT     0.417000        1.0080           0
   51260 WT3  1632 TIP3 OH2  OT    -0.834000       15.9994           0
   51261 WT3  1632 TIP3 H1   HT     0.417000        1.0080           0
   51262 WT3  1632 TIP3 H2   HT     0.417000        1.0080           0
   51263 WT3  1638 TIP3 OH2  OT    -0.834000       15.9994           0
   51264 WT3  1638 TIP3 H1   HT     0.417000        1.0080           0
   51265 WT3  1638 TIP3 H2   HT     0.417000        1.0080           0
   51266 WT3  1639 TIP3 OH2  OT    -0.834000       15.9994           0
   51267 WT3  1639 TIP3 H1   HT     0.417000        1.0080           0
   51268 WT3  1639 TIP3 H2   HT     0.417000        1.0080           0
   51269 WT3  1640 TIP3 OH2  OT    -0.834000       15.9994           0
   51270 WT3  1640 TIP3 H1   HT     0.417000        1.0080           0
   51271 WT3  1640 TIP3 H2   HT     0.417000        1.0080           0
   51272 WT3  1641 TIP3 OH2  OT    -0.834000       15.9994           0
   51273 WT3  1641 TIP3 H1   HT     0.417000        1.0080           0
   51274 WT3  1641 TIP3 H2   HT     0.417000        1.0080           0
   51275 WT3  1642 TIP3 OH2  OT    -0.834000       15.9994           0
   51276 WT3  1642 TIP3 H1   HT     0.417000        1.0080           0
   51277 WT3  1642 TIP3 H2   HT     0.417000        1.0080           0
   51278 WT3  1643 TIP3 OH2  OT    -0.834000       15.9994           0
   51279 WT3  1643 TIP3 H1   HT     0.417000        1.0080           0
   51280 WT3  1643 TIP3 H2   HT     0.417000        1.0080           0
   51281 WT3  1644 TIP3 OH2  OT    -0.834000       15.9994           0
   51282 WT3  1644 TIP3 H1   HT     0.417000        1.0080           0
   51283 WT3  1644 TIP3 H2   HT     0.417000        1.0080           0
   51284 WT3  1645 TIP3 OH2  OT    -0.834000       15.9994           0
   51285 WT3  1645 TIP3 H1   HT     0.417000        1.0080           0
   51286 WT3  1645 TIP3 H2   HT     0.417000        1.0080           0
   51287 WT3  1646 TIP3 OH2  OT    -0.834000       15.9994           0
   51288 WT3  1646 TIP3 H1   HT     0.417000        1.0080           0
   51289 WT3  1646 TIP3 H2   HT     0.417000        1.0080           0
   51290 WT3  1647 TIP3 OH2  OT    -0.834000       15.9994           0
   51291 WT3  1647 TIP3 H1   HT     0.417000        1.0080           0
   51292 WT3  1647 TIP3 H2   HT     0.417000        1.0080           0
   51293 WT3  1648 TIP3 OH2  OT    -0.834000       15.9994           0
   51294 WT3  1648 TIP3 H1   HT     0.417000        1.0080           0
   51295 WT3  1648 TIP3 H2   HT     0.417000        1.0080           0
   51296 WT3  1649 TIP3 OH2  OT    -0.834000       15.9994           0
   51297 WT3  1649 TIP3 H1   HT     0.417000        1.0080           0
   51298 WT3  1649 TIP3 H2   HT     0.417000        1.0080           0
   51299 WT3  1651 TIP3 OH2  OT    -0.834000       15.9994           0
   51300 WT3  1651 TIP3 H1   HT     0.417000        1.0080           0
   51301 WT3  1651 TIP3 H2   HT     0.417000        1.0080           0
   51302 WT3  1653 TIP3 OH2  OT    -0.834000       15.9994           0
   51303 WT3  1653 TIP3 H1   HT     0.417000        1.0080           0
   51304 WT3  1653 TIP3 H2   HT     0.417000        1.0080           0
   51305 WT3  1655 TIP3 OH2  OT    -0.834000       15.9994           0
   51306 WT3  1655 TIP3 H1   HT     0.417000        1.0080           0
   51307 WT3  1655 TIP3 H2   HT     0.417000        1.0080           0
   51308 WT3  1656 TIP3 OH2  OT    -0.834000       15.9994           0
   51309 WT3  1656 TIP3 H1   HT     0.417000        1.0080           0
   51310 WT3  1656 TIP3 H2   HT     0.417000        1.0080           0
   51311 WT3  1659 TIP3 OH2  OT    -0.834000       15.9994           0
   51312 WT3  1659 TIP3 H1   HT     0.417000        1.0080           0
   51313 WT3  1659 TIP3 H2   HT     0.417000        1.0080           0
   51314 WT3  1662 TIP3 OH2  OT    -0.834000       15.9994           0
   51315 WT3  1662 TIP3 H1   HT     0.417000        1.0080           0
   51316 WT3  1662 TIP3 H2   HT     0.417000        1.0080           0
   51317 WT3  1663 TIP3 OH2  OT    -0.834000       15.9994           0
   51318 WT3  1663 TIP3 H1   HT     0.417000        1.0080           0
   51319 WT3  1663 TIP3 H2   HT     0.417000        1.0080           0
   51320 WT3  1664 TIP3 OH2  OT    -0.834000       15.9994           0
   51321 WT3  1664 TIP3 H1   HT     0.417000        1.0080           0
   51322 WT3  1664 TIP3 H2   HT     0.417000        1.0080           0
   51323 WT3  1665 TIP3 OH2  OT    -0.834000       15.9994           0
   51324 WT3  1665 TIP3 H1   HT     0.417000        1.0080           0
   51325 WT3  1665 TIP3 H2   HT     0.417000        1.0080           0
   51326 WT3  1666 TIP3 OH2  OT    -0.834000       15.9994           0
   51327 WT3  1666 TIP3 H1   HT     0.417000        1.0080           0
   51328 WT3  1666 TIP3 H2   HT     0.417000        1.0080           0
   51329 WT3  1668 TIP3 OH2  OT    -0.834000       15.9994           0
   51330 WT3  1668 TIP3 H1   HT     0.417000        1.0080           0
   51331 WT3  1668 TIP3 H2   HT     0.417000        1.0080           0
   51332 WT3  1670 TIP3 OH2  OT    -0.834000       15.9994           0
   51333 WT3  1670 TIP3 H1   HT     0.417000        1.0080           0
   51334 WT3  1670 TIP3 H2   HT     0.417000        1.0080           0
   51335 WT3  1671 TIP3 OH2  OT    -0.834000       15.9994           0
   51336 WT3  1671 TIP3 H1   HT     0.417000        1.0080           0
   51337 WT3  1671 TIP3 H2   HT     0.417000        1.0080           0
   51338 WT3  1672 TIP3 OH2  OT    -0.834000       15.9994           0
   51339 WT3  1672 TIP3 H1   HT     0.417000        1.0080           0
   51340 WT3  1672 TIP3 H2   HT     0.417000        1.0080           0
   51341 WT3  1674 TIP3 OH2  OT    -0.834000       15.9994           0
   51342 WT3  1674 TIP3 H1   HT     0.417000        1.0080           0
   51343 WT3  1674 TIP3 H2   HT     0.417000        1.0080           0
   51344 WT3  1681 TIP3 OH2  OT    -0.834000       15.9994           0
   51345 WT3  1681 TIP3 H1   HT     0.417000        1.0080           0
   51346 WT3  1681 TIP3 H2   HT     0.417000        1.0080           0
   51347 WT3  1683 TIP3 OH2  OT    -0.834000       15.9994           0
   51348 WT3  1683 TIP3 H1   HT     0.417000        1.0080           0
   51349 WT3  1683 TIP3 H2   HT     0.417000        1.0080           0
   51350 WT3  1684 TIP3 OH2  OT    -0.834000       15.9994           0
   51351 WT3  1684 TIP3 H1   HT     0.417000        1.0080           0
   51352 WT3  1684 TIP3 H2   HT     0.417000        1.0080           0
   51353 WT3  1685 TIP3 OH2  OT    -0.834000       15.9994           0
   51354 WT3  1685 TIP3 H1   HT     0.417000        1.0080           0
   51355 WT3  1685 TIP3 H2   HT     0.417000        1.0080           0
   51356 WT3  1686 TIP3 OH2  OT    -0.834000       15.9994           0
   51357 WT3  1686 TIP3 H1   HT     0.417000        1.0080           0
   51358 WT3  1686 TIP3 H2   HT     0.417000        1.0080           0
   51359 WT3  1687 TIP3 OH2  OT    -0.834000       15.9994           0
   51360 WT3  1687 TIP3 H1   HT     0.417000        1.0080           0
   51361 WT3  1687 TIP3 H2   HT     0.417000        1.0080           0
   51362 WT3  1688 TIP3 OH2  OT    -0.834000       15.9994           0
   51363 WT3  1688 TIP3 H1   HT     0.417000        1.0080           0
   51364 WT3  1688 TIP3 H2   HT     0.417000        1.0080           0
   51365 WT3  1689 TIP3 OH2  OT    -0.834000       15.9994           0
   51366 WT3  1689 TIP3 H1   HT     0.417000        1.0080           0
   51367 WT3  1689 TIP3 H2   HT     0.417000        1.0080           0
   51368 WT3  1690 TIP3 OH2  OT    -0.834000       15.9994           0
   51369 WT3  1690 TIP3 H1   HT     0.417000        1.0080           0
   51370 WT3  1690 TIP3 H2   HT     0.417000        1.0080           0
   51371 WT3  1691 TIP3 OH2  OT    -0.834000       15.9994           0
   51372 WT3  1691 TIP3 H1   HT     0.417000        1.0080           0
   51373 WT3  1691 TIP3 H2   HT     0.417000        1.0080           0
   51374 WT3  1693 TIP3 OH2  OT    -0.834000       15.9994           0
   51375 WT3  1693 TIP3 H1   HT     0.417000        1.0080           0
   51376 WT3  1693 TIP3 H2   HT     0.417000        1.0080           0
   51377 WT3  1695 TIP3 OH2  OT    -0.834000       15.9994           0
   51378 WT3  1695 TIP3 H1   HT     0.417000        1.0080           0
   51379 WT3  1695 TIP3 H2   HT     0.417000        1.0080           0
   51380 WT3  1701 TIP3 OH2  OT    -0.834000       15.9994           0
   51381 WT3  1701 TIP3 H1   HT     0.417000        1.0080           0
   51382 WT3  1701 TIP3 H2   HT     0.417000        1.0080           0
   51383 WT3  1702 TIP3 OH2  OT    -0.834000       15.9994           0
   51384 WT3  1702 TIP3 H1   HT     0.417000        1.0080           0
   51385 WT3  1702 TIP3 H2   HT     0.417000        1.0080           0
   51386 WT3  1704 TIP3 OH2  OT    -0.834000       15.9994           0
   51387 WT3  1704 TIP3 H1   HT     0.417000        1.0080           0
   51388 WT3  1704 TIP3 H2   HT     0.417000        1.0080           0
   51389 WT3  1707 TIP3 OH2  OT    -0.834000       15.9994           0
   51390 WT3  1707 TIP3 H1   HT     0.417000        1.0080           0
   51391 WT3  1707 TIP3 H2   HT     0.417000        1.0080           0
   51392 WT3  1708 TIP3 OH2  OT    -0.834000       15.9994           0
   51393 WT3  1708 TIP3 H1   HT     0.417000        1.0080           0
   51394 WT3  1708 TIP3 H2   HT     0.417000        1.0080           0
   51395 WT3  1709 TIP3 OH2  OT    -0.834000       15.9994           0
   51396 WT3  1709 TIP3 H1   HT     0.417000        1.0080           0
   51397 WT3  1709 TIP3 H2   HT     0.417000        1.0080           0
   51398 WT3  1710 TIP3 OH2  OT    -0.834000       15.9994           0
   51399 WT3  1710 TIP3 H1   HT     0.417000        1.0080           0
   51400 WT3  1710 TIP3 H2   HT     0.417000        1.0080           0
   51401 WT3  1711 TIP3 OH2  OT    -0.834000       15.9994           0
   51402 WT3  1711 TIP3 H1   HT     0.417000        1.0080           0
   51403 WT3  1711 TIP3 H2   HT     0.417000        1.0080           0
   51404 WT3  1713 TIP3 OH2  OT    -0.834000       15.9994           0
   51405 WT3  1713 TIP3 H1   HT     0.417000        1.0080           0
   51406 WT3  1713 TIP3 H2   HT     0.417000        1.0080           0
   51407 WT3  1716 TIP3 OH2  OT    -0.834000       15.9994           0
   51408 WT3  1716 TIP3 H1   HT     0.417000        1.0080           0
   51409 WT3  1716 TIP3 H2   HT     0.417000        1.0080           0
   51410 WT3  1718 TIP3 OH2  OT    -0.834000       15.9994           0
   51411 WT3  1718 TIP3 H1   HT     0.417000        1.0080           0
   51412 WT3  1718 TIP3 H2   HT     0.417000        1.0080           0
   51413 WT3  1719 TIP3 OH2  OT    -0.834000       15.9994           0
   51414 WT3  1719 TIP3 H1   HT     0.417000        1.0080           0
   51415 WT3  1719 TIP3 H2   HT     0.417000        1.0080           0
   51416 WT3  1723 TIP3 OH2  OT    -0.834000       15.9994           0
   51417 WT3  1723 TIP3 H1   HT     0.417000        1.0080           0
   51418 WT3  1723 TIP3 H2   HT     0.417000        1.0080           0
   51419 WT3  1725 TIP3 OH2  OT    -0.834000       15.9994           0
   51420 WT3  1725 TIP3 H1   HT     0.417000        1.0080           0
   51421 WT3  1725 TIP3 H2   HT     0.417000        1.0080           0
   51422 WT3  1726 TIP3 OH2  OT    -0.834000       15.9994           0
   51423 WT3  1726 TIP3 H1   HT     0.417000        1.0080           0
   51424 WT3  1726 TIP3 H2   HT     0.417000        1.0080           0
   51425 WT3  1727 TIP3 OH2  OT    -0.834000       15.9994           0
   51426 WT3  1727 TIP3 H1   HT     0.417000        1.0080           0
   51427 WT3  1727 TIP3 H2   HT     0.417000        1.0080           0
   51428 WT3  1728 TIP3 OH2  OT    -0.834000       15.9994           0
   51429 WT3  1728 TIP3 H1   HT     0.417000        1.0080           0
   51430 WT3  1728 TIP3 H2   HT     0.417000        1.0080           0
   51431 WT3  1729 TIP3 OH2  OT    -0.834000       15.9994           0
   51432 WT3  1729 TIP3 H1   HT     0.417000        1.0080           0
   51433 WT3  1729 TIP3 H2   HT     0.417000        1.0080           0
   51434 WT3  1730 TIP3 OH2  OT    -0.834000       15.9994           0
   51435 WT3  1730 TIP3 H1   HT     0.417000        1.0080           0
   51436 WT3  1730 TIP3 H2   HT     0.417000        1.0080           0
   51437 WT3  1731 TIP3 OH2  OT    -0.834000       15.9994           0
   51438 WT3  1731 TIP3 H1   HT     0.417000        1.0080           0
   51439 WT3  1731 TIP3 H2   HT     0.417000        1.0080           0
   51440 WT3  1732 TIP3 OH2  OT    -0.834000       15.9994           0
   51441 WT3  1732 TIP3 H1   HT     0.417000        1.0080           0
   51442 WT3  1732 TIP3 H2   HT     0.417000        1.0080           0
   51443 WT3  1733 TIP3 OH2  OT    -0.834000       15.9994           0
   51444 WT3  1733 TIP3 H1   HT     0.417000        1.0080           0
   51445 WT3  1733 TIP3 H2   HT     0.417000        1.0080           0
   51446 WT3  1734 TIP3 OH2  OT    -0.834000       15.9994           0
   51447 WT3  1734 TIP3 H1   HT     0.417000        1.0080           0
   51448 WT3  1734 TIP3 H2   HT     0.417000        1.0080           0
   51449 WT3  1735 TIP3 OH2  OT    -0.834000       15.9994           0
   51450 WT3  1735 TIP3 H1   HT     0.417000        1.0080           0
   51451 WT3  1735 TIP3 H2   HT     0.417000        1.0080           0
   51452 WT3  1738 TIP3 OH2  OT    -0.834000       15.9994           0
   51453 WT3  1738 TIP3 H1   HT     0.417000        1.0080           0
   51454 WT3  1738 TIP3 H2   HT     0.417000        1.0080           0
   51455 WT3  1744 TIP3 OH2  OT    -0.834000       15.9994           0
   51456 WT3  1744 TIP3 H1   HT     0.417000        1.0080           0
   51457 WT3  1744 TIP3 H2   HT     0.417000        1.0080           0
   51458 WT3  1746 TIP3 OH2  OT    -0.834000       15.9994           0
   51459 WT3  1746 TIP3 H1   HT     0.417000        1.0080           0
   51460 WT3  1746 TIP3 H2   HT     0.417000        1.0080           0
   51461 WT3  1747 TIP3 OH2  OT    -0.834000       15.9994           0
   51462 WT3  1747 TIP3 H1   HT     0.417000        1.0080           0
   51463 WT3  1747 TIP3 H2   HT     0.417000        1.0080           0
   51464 WT3  1748 TIP3 OH2  OT    -0.834000       15.9994           0
   51465 WT3  1748 TIP3 H1   HT     0.417000        1.0080           0
   51466 WT3  1748 TIP3 H2   HT     0.417000        1.0080           0
   51467 WT3  1749 TIP3 OH2  OT    -0.834000       15.9994           0
   51468 WT3  1749 TIP3 H1   HT     0.417000        1.0080           0
   51469 WT3  1749 TIP3 H2   HT     0.417000        1.0080           0
   51470 WT3  1750 TIP3 OH2  OT    -0.834000       15.9994           0
   51471 WT3  1750 TIP3 H1   HT     0.417000        1.0080           0
   51472 WT3  1750 TIP3 H2   HT     0.417000        1.0080           0
   51473 WT3  1751 TIP3 OH2  OT    -0.834000       15.9994           0
   51474 WT3  1751 TIP3 H1   HT     0.417000        1.0080           0
   51475 WT3  1751 TIP3 H2   HT     0.417000        1.0080           0
   51476 WT3  1752 TIP3 OH2  OT    -0.834000       15.9994           0
   51477 WT3  1752 TIP3 H1   HT     0.417000        1.0080           0
   51478 WT3  1752 TIP3 H2   HT     0.417000        1.0080           0
   51479 WT3  1754 TIP3 OH2  OT    -0.834000       15.9994           0
   51480 WT3  1754 TIP3 H1   HT     0.417000        1.0080           0
   51481 WT3  1754 TIP3 H2   HT     0.417000        1.0080           0
   51482 WT3  1755 TIP3 OH2  OT    -0.834000       15.9994           0
   51483 WT3  1755 TIP3 H1   HT     0.417000        1.0080           0
   51484 WT3  1755 TIP3 H2   HT     0.417000        1.0080           0
   51485 WT3  1757 TIP3 OH2  OT    -0.834000       15.9994           0
   51486 WT3  1757 TIP3 H1   HT     0.417000        1.0080           0
   51487 WT3  1757 TIP3 H2   HT     0.417000        1.0080           0
   51488 WT3  1764 TIP3 OH2  OT    -0.834000       15.9994           0
   51489 WT3  1764 TIP3 H1   HT     0.417000        1.0080           0
   51490 WT3  1764 TIP3 H2   HT     0.417000        1.0080           0
   51491 WT3  1766 TIP3 OH2  OT    -0.834000       15.9994           0
   51492 WT3  1766 TIP3 H1   HT     0.417000        1.0080           0
   51493 WT3  1766 TIP3 H2   HT     0.417000        1.0080           0
   51494 WT3  1767 TIP3 OH2  OT    -0.834000       15.9994           0
   51495 WT3  1767 TIP3 H1   HT     0.417000        1.0080           0
   51496 WT3  1767 TIP3 H2   HT     0.417000        1.0080           0
   51497 WT3  1768 TIP3 OH2  OT    -0.834000       15.9994           0
   51498 WT3  1768 TIP3 H1   HT     0.417000        1.0080           0
   51499 WT3  1768 TIP3 H2   HT     0.417000        1.0080           0
   51500 WT3  1769 TIP3 OH2  OT    -0.834000       15.9994           0
   51501 WT3  1769 TIP3 H1   HT     0.417000        1.0080           0
   51502 WT3  1769 TIP3 H2   HT     0.417000        1.0080           0
   51503 WT3  1770 TIP3 OH2  OT    -0.834000       15.9994           0
   51504 WT3  1770 TIP3 H1   HT     0.417000        1.0080           0
   51505 WT3  1770 TIP3 H2   HT     0.417000        1.0080           0
   51506 WT3  1771 TIP3 OH2  OT    -0.834000       15.9994           0
   51507 WT3  1771 TIP3 H1   HT     0.417000        1.0080           0
   51508 WT3  1771 TIP3 H2   HT     0.417000        1.0080           0
   51509 WT3  1772 TIP3 OH2  OT    -0.834000       15.9994           0
   51510 WT3  1772 TIP3 H1   HT     0.417000        1.0080           0
   51511 WT3  1772 TIP3 H2   HT     0.417000        1.0080           0
   51512 WT3  1773 TIP3 OH2  OT    -0.834000       15.9994           0
   51513 WT3  1773 TIP3 H1   HT     0.417000        1.0080           0
   51514 WT3  1773 TIP3 H2   HT     0.417000        1.0080           0
   51515 WT3  1774 TIP3 OH2  OT    -0.834000       15.9994           0
   51516 WT3  1774 TIP3 H1   HT     0.417000        1.0080           0
   51517 WT3  1774 TIP3 H2   HT     0.417000        1.0080           0
   51518 WT3  1775 TIP3 OH2  OT    -0.834000       15.9994           0
   51519 WT3  1775 TIP3 H1   HT     0.417000        1.0080           0
   51520 WT3  1775 TIP3 H2   HT     0.417000        1.0080           0
   51521 WT3  1776 TIP3 OH2  OT    -0.834000       15.9994           0
   51522 WT3  1776 TIP3 H1   HT     0.417000        1.0080           0
   51523 WT3  1776 TIP3 H2   HT     0.417000        1.0080           0
   51524 WT3  1777 TIP3 OH2  OT    -0.834000       15.9994           0
   51525 WT3  1777 TIP3 H1   HT     0.417000        1.0080           0
   51526 WT3  1777 TIP3 H2   HT     0.417000        1.0080           0
   51527 WT3  1778 TIP3 OH2  OT    -0.834000       15.9994           0
   51528 WT3  1778 TIP3 H1   HT     0.417000        1.0080           0
   51529 WT3  1778 TIP3 H2   HT     0.417000        1.0080           0
   51530 WT3  1780 TIP3 OH2  OT    -0.834000       15.9994           0
   51531 WT3  1780 TIP3 H1   HT     0.417000        1.0080           0
   51532 WT3  1780 TIP3 H2   HT     0.417000        1.0080           0
   51533 WT3  1781 TIP3 OH2  OT    -0.834000       15.9994           0
   51534 WT3  1781 TIP3 H1   HT     0.417000        1.0080           0
   51535 WT3  1781 TIP3 H2   HT     0.417000        1.0080           0
   51536 WT3  1784 TIP3 OH2  OT    -0.834000       15.9994           0
   51537 WT3  1784 TIP3 H1   HT     0.417000        1.0080           0
   51538 WT3  1784 TIP3 H2   HT     0.417000        1.0080           0
   51539 WT3  1785 TIP3 OH2  OT    -0.834000       15.9994           0
   51540 WT3  1785 TIP3 H1   HT     0.417000        1.0080           0
   51541 WT3  1785 TIP3 H2   HT     0.417000        1.0080           0
   51542 WT3  1788 TIP3 OH2  OT    -0.834000       15.9994           0
   51543 WT3  1788 TIP3 H1   HT     0.417000        1.0080           0
   51544 WT3  1788 TIP3 H2   HT     0.417000        1.0080           0
   51545 WT3  1789 TIP3 OH2  OT    -0.834000       15.9994           0
   51546 WT3  1789 TIP3 H1   HT     0.417000        1.0080           0
   51547 WT3  1789 TIP3 H2   HT     0.417000        1.0080           0
   51548 WT3  1790 TIP3 OH2  OT    -0.834000       15.9994           0
   51549 WT3  1790 TIP3 H1   HT     0.417000        1.0080           0
   51550 WT3  1790 TIP3 H2   HT     0.417000        1.0080           0
   51551 WT3  1792 TIP3 OH2  OT    -0.834000       15.9994           0
   51552 WT3  1792 TIP3 H1   HT     0.417000        1.0080           0
   51553 WT3  1792 TIP3 H2   HT     0.417000        1.0080           0
   51554 WT3  1793 TIP3 OH2  OT    -0.834000       15.9994           0
   51555 WT3  1793 TIP3 H1   HT     0.417000        1.0080           0
   51556 WT3  1793 TIP3 H2   HT     0.417000        1.0080           0
   51557 WT3  1794 TIP3 OH2  OT    -0.834000       15.9994           0
   51558 WT3  1794 TIP3 H1   HT     0.417000        1.0080           0
   51559 WT3  1794 TIP3 H2   HT     0.417000        1.0080           0
   51560 WT3  1797 TIP3 OH2  OT    -0.834000       15.9994           0
   51561 WT3  1797 TIP3 H1   HT     0.417000        1.0080           0
   51562 WT3  1797 TIP3 H2   HT     0.417000        1.0080           0
   51563 WT3  1798 TIP3 OH2  OT    -0.834000       15.9994           0
   51564 WT3  1798 TIP3 H1   HT     0.417000        1.0080           0
   51565 WT3  1798 TIP3 H2   HT     0.417000        1.0080           0
   51566 WT3  1799 TIP3 OH2  OT    -0.834000       15.9994           0
   51567 WT3  1799 TIP3 H1   HT     0.417000        1.0080           0
   51568 WT3  1799 TIP3 H2   HT     0.417000        1.0080           0
   51569 WT3  1808 TIP3 OH2  OT    -0.834000       15.9994           0
   51570 WT3  1808 TIP3 H1   HT     0.417000        1.0080           0
   51571 WT3  1808 TIP3 H2   HT     0.417000        1.0080           0
   51572 WT3  1810 TIP3 OH2  OT    -0.834000       15.9994           0
   51573 WT3  1810 TIP3 H1   HT     0.417000        1.0080           0
   51574 WT3  1810 TIP3 H2   HT     0.417000        1.0080           0
   51575 WT3  1811 TIP3 OH2  OT    -0.834000       15.9994           0
   51576 WT3  1811 TIP3 H1   HT     0.417000        1.0080           0
   51577 WT3  1811 TIP3 H2   HT     0.417000        1.0080           0
   51578 WT3  1812 TIP3 OH2  OT    -0.834000       15.9994           0
   51579 WT3  1812 TIP3 H1   HT     0.417000        1.0080           0
   51580 WT3  1812 TIP3 H2   HT     0.417000        1.0080           0
   51581 WT3  1813 TIP3 OH2  OT    -0.834000       15.9994           0
   51582 WT3  1813 TIP3 H1   HT     0.417000        1.0080           0
   51583 WT3  1813 TIP3 H2   HT     0.417000        1.0080           0
   51584 WT3  1814 TIP3 OH2  OT    -0.834000       15.9994           0
   51585 WT3  1814 TIP3 H1   HT     0.417000        1.0080           0
   51586 WT3  1814 TIP3 H2   HT     0.417000        1.0080           0
   51587 WT3  1815 TIP3 OH2  OT    -0.834000       15.9994           0
   51588 WT3  1815 TIP3 H1   HT     0.417000        1.0080           0
   51589 WT3  1815 TIP3 H2   HT     0.417000        1.0080           0
   51590 WT3  1816 TIP3 OH2  OT    -0.834000       15.9994           0
   51591 WT3  1816 TIP3 H1   HT     0.417000        1.0080           0
   51592 WT3  1816 TIP3 H2   HT     0.417000        1.0080           0
   51593 WT3  1817 TIP3 OH2  OT    -0.834000       15.9994           0
   51594 WT3  1817 TIP3 H1   HT     0.417000        1.0080           0
   51595 WT3  1817 TIP3 H2   HT     0.417000        1.0080           0
   51596 WT3  1818 TIP3 OH2  OT    -0.834000       15.9994           0
   51597 WT3  1818 TIP3 H1   HT     0.417000        1.0080           0
   51598 WT3  1818 TIP3 H2   HT     0.417000        1.0080           0
   51599 WT3  1819 TIP3 OH2  OT    -0.834000       15.9994           0
   51600 WT3  1819 TIP3 H1   HT     0.417000        1.0080           0
   51601 WT3  1819 TIP3 H2   HT     0.417000        1.0080           0
   51602 WT3  1820 TIP3 OH2  OT    -0.834000       15.9994           0
   51603 WT3  1820 TIP3 H1   HT     0.417000        1.0080           0
   51604 WT3  1820 TIP3 H2   HT     0.417000        1.0080           0
   51605 WT3  1821 TIP3 OH2  OT    -0.834000       15.9994           0
   51606 WT3  1821 TIP3 H1   HT     0.417000        1.0080           0
   51607 WT3  1821 TIP3 H2   HT     0.417000        1.0080           0
   51608 WT3  1824 TIP3 OH2  OT    -0.834000       15.9994           0
   51609 WT3  1824 TIP3 H1   HT     0.417000        1.0080           0
   51610 WT3  1824 TIP3 H2   HT     0.417000        1.0080           0
   51611 WT3  1826 TIP3 OH2  OT    -0.834000       15.9994           0
   51612 WT3  1826 TIP3 H1   HT     0.417000        1.0080           0
   51613 WT3  1826 TIP3 H2   HT     0.417000        1.0080           0
   51614 WT3  1829 TIP3 OH2  OT    -0.834000       15.9994           0
   51615 WT3  1829 TIP3 H1   HT     0.417000        1.0080           0
   51616 WT3  1829 TIP3 H2   HT     0.417000        1.0080           0
   51617 WT3  1830 TIP3 OH2  OT    -0.834000       15.9994           0
   51618 WT3  1830 TIP3 H1   HT     0.417000        1.0080           0
   51619 WT3  1830 TIP3 H2   HT     0.417000        1.0080           0
   51620 WT3  1831 TIP3 OH2  OT    -0.834000       15.9994           0
   51621 WT3  1831 TIP3 H1   HT     0.417000        1.0080           0
   51622 WT3  1831 TIP3 H2   HT     0.417000        1.0080           0
   51623 WT3  1832 TIP3 OH2  OT    -0.834000       15.9994           0
   51624 WT3  1832 TIP3 H1   HT     0.417000        1.0080           0
   51625 WT3  1832 TIP3 H2   HT     0.417000        1.0080           0
   51626 WT3  1833 TIP3 OH2  OT    -0.834000       15.9994           0
   51627 WT3  1833 TIP3 H1   HT     0.417000        1.0080           0
   51628 WT3  1833 TIP3 H2   HT     0.417000        1.0080           0
   51629 WT3  1835 TIP3 OH2  OT    -0.834000       15.9994           0
   51630 WT3  1835 TIP3 H1   HT     0.417000        1.0080           0
   51631 WT3  1835 TIP3 H2   HT     0.417000        1.0080           0
   51632 WT3  1836 TIP3 OH2  OT    -0.834000       15.9994           0
   51633 WT3  1836 TIP3 H1   HT     0.417000        1.0080           0
   51634 WT3  1836 TIP3 H2   HT     0.417000        1.0080           0
   51635 WT3  1837 TIP3 OH2  OT    -0.834000       15.9994           0
   51636 WT3  1837 TIP3 H1   HT     0.417000        1.0080           0
   51637 WT3  1837 TIP3 H2   HT     0.417000        1.0080           0
   51638 WT3  1838 TIP3 OH2  OT    -0.834000       15.9994           0
   51639 WT3  1838 TIP3 H1   HT     0.417000        1.0080           0
   51640 WT3  1838 TIP3 H2   HT     0.417000        1.0080           0
   51641 WT3  1839 TIP3 OH2  OT    -0.834000       15.9994           0
   51642 WT3  1839 TIP3 H1   HT     0.417000        1.0080           0
   51643 WT3  1839 TIP3 H2   HT     0.417000        1.0080           0
   51644 WT3  1840 TIP3 OH2  OT    -0.834000       15.9994           0
   51645 WT3  1840 TIP3 H1   HT     0.417000        1.0080           0
   51646 WT3  1840 TIP3 H2   HT     0.417000        1.0080           0
   51647 WT3  1841 TIP3 OH2  OT    -0.834000       15.9994           0
   51648 WT3  1841 TIP3 H1   HT     0.417000        1.0080           0
   51649 WT3  1841 TIP3 H2   HT     0.417000        1.0080           0
   51650 WT3  1842 TIP3 OH2  OT    -0.834000       15.9994           0
   51651 WT3  1842 TIP3 H1   HT     0.417000        1.0080           0
   51652 WT3  1842 TIP3 H2   HT     0.417000        1.0080           0
   51653 WT3  1844 TIP3 OH2  OT    -0.834000       15.9994           0
   51654 WT3  1844 TIP3 H1   HT     0.417000        1.0080           0
   51655 WT3  1844 TIP3 H2   HT     0.417000        1.0080           0
   51656 WT3  1847 TIP3 OH2  OT    -0.834000       15.9994           0
   51657 WT3  1847 TIP3 H1   HT     0.417000        1.0080           0
   51658 WT3  1847 TIP3 H2   HT     0.417000        1.0080           0
   51659 WT3  1850 TIP3 OH2  OT    -0.834000       15.9994           0
   51660 WT3  1850 TIP3 H1   HT     0.417000        1.0080           0
   51661 WT3  1850 TIP3 H2   HT     0.417000        1.0080           0
   51662 WT3  1851 TIP3 OH2  OT    -0.834000       15.9994           0
   51663 WT3  1851 TIP3 H1   HT     0.417000        1.0080           0
   51664 WT3  1851 TIP3 H2   HT     0.417000        1.0080           0
   51665 WT3  1852 TIP3 OH2  OT    -0.834000       15.9994           0
   51666 WT3  1852 TIP3 H1   HT     0.417000        1.0080           0
   51667 WT3  1852 TIP3 H2   HT     0.417000        1.0080           0
   51668 WT3  1853 TIP3 OH2  OT    -0.834000       15.9994           0
   51669 WT3  1853 TIP3 H1   HT     0.417000        1.0080           0
   51670 WT3  1853 TIP3 H2   HT     0.417000        1.0080           0
   51671 WT3  1857 TIP3 OH2  OT    -0.834000       15.9994           0
   51672 WT3  1857 TIP3 H1   HT     0.417000        1.0080           0
   51673 WT3  1857 TIP3 H2   HT     0.417000        1.0080           0
   51674 WT3  1858 TIP3 OH2  OT    -0.834000       15.9994           0
   51675 WT3  1858 TIP3 H1   HT     0.417000        1.0080           0
   51676 WT3  1858 TIP3 H2   HT     0.417000        1.0080           0
   51677 WT3  1859 TIP3 OH2  OT    -0.834000       15.9994           0
   51678 WT3  1859 TIP3 H1   HT     0.417000        1.0080           0
   51679 WT3  1859 TIP3 H2   HT     0.417000        1.0080           0
   51680 WT3  1860 TIP3 OH2  OT    -0.834000       15.9994           0
   51681 WT3  1860 TIP3 H1   HT     0.417000        1.0080           0
   51682 WT3  1860 TIP3 H2   HT     0.417000        1.0080           0
   51683 WT3  1861 TIP3 OH2  OT    -0.834000       15.9994           0
   51684 WT3  1861 TIP3 H1   HT     0.417000        1.0080           0
   51685 WT3  1861 TIP3 H2   HT     0.417000        1.0080           0
   51686 WT3  1862 TIP3 OH2  OT    -0.834000       15.9994           0
   51687 WT3  1862 TIP3 H1   HT     0.417000        1.0080           0
   51688 WT3  1862 TIP3 H2   HT     0.417000        1.0080           0
   51689 WT3  1864 TIP3 OH2  OT    -0.834000       15.9994           0
   51690 WT3  1864 TIP3 H1   HT     0.417000        1.0080           0
   51691 WT3  1864 TIP3 H2   HT     0.417000        1.0080           0
   51692 WT3  1866 TIP3 OH2  OT    -0.834000       15.9994           0
   51693 WT3  1866 TIP3 H1   HT     0.417000        1.0080           0
   51694 WT3  1866 TIP3 H2   HT     0.417000        1.0080           0
   51695 WT3  1870 TIP3 OH2  OT    -0.834000       15.9994           0
   51696 WT3  1870 TIP3 H1   HT     0.417000        1.0080           0
   51697 WT3  1870 TIP3 H2   HT     0.417000        1.0080           0
   51698 WT3  1871 TIP3 OH2  OT    -0.834000       15.9994           0
   51699 WT3  1871 TIP3 H1   HT     0.417000        1.0080           0
   51700 WT3  1871 TIP3 H2   HT     0.417000        1.0080           0
   51701 WT3  1872 TIP3 OH2  OT    -0.834000       15.9994           0
   51702 WT3  1872 TIP3 H1   HT     0.417000        1.0080           0
   51703 WT3  1872 TIP3 H2   HT     0.417000        1.0080           0
   51704 WT3  1873 TIP3 OH2  OT    -0.834000       15.9994           0
   51705 WT3  1873 TIP3 H1   HT     0.417000        1.0080           0
   51706 WT3  1873 TIP3 H2   HT     0.417000        1.0080           0
   51707 WT3  1874 TIP3 OH2  OT    -0.834000       15.9994           0
   51708 WT3  1874 TIP3 H1   HT     0.417000        1.0080           0
   51709 WT3  1874 TIP3 H2   HT     0.417000        1.0080           0
   51710 WT3  1876 TIP3 OH2  OT    -0.834000       15.9994           0
   51711 WT3  1876 TIP3 H1   HT     0.417000        1.0080           0
   51712 WT3  1876 TIP3 H2   HT     0.417000        1.0080           0
   51713 WT3  1877 TIP3 OH2  OT    -0.834000       15.9994           0
   51714 WT3  1877 TIP3 H1   HT     0.417000        1.0080           0
   51715 WT3  1877 TIP3 H2   HT     0.417000        1.0080           0
   51716 WT3  1878 TIP3 OH2  OT    -0.834000       15.9994           0
   51717 WT3  1878 TIP3 H1   HT     0.417000        1.0080           0
   51718 WT3  1878 TIP3 H2   HT     0.417000        1.0080           0
   51719 WT3  1879 TIP3 OH2  OT    -0.834000       15.9994           0
   51720 WT3  1879 TIP3 H1   HT     0.417000        1.0080           0
   51721 WT3  1879 TIP3 H2   HT     0.417000        1.0080           0
   51722 WT3  1880 TIP3 OH2  OT    -0.834000       15.9994           0
   51723 WT3  1880 TIP3 H1   HT     0.417000        1.0080           0
   51724 WT3  1880 TIP3 H2   HT     0.417000        1.0080           0
   51725 WT3  1881 TIP3 OH2  OT    -0.834000       15.9994           0
   51726 WT3  1881 TIP3 H1   HT     0.417000        1.0080           0
   51727 WT3  1881 TIP3 H2   HT     0.417000        1.0080           0
   51728 WT3  1882 TIP3 OH2  OT    -0.834000       15.9994           0
   51729 WT3  1882 TIP3 H1   HT     0.417000        1.0080           0
   51730 WT3  1882 TIP3 H2   HT     0.417000        1.0080           0
   51731 WT3  1883 TIP3 OH2  OT    -0.834000       15.9994           0
   51732 WT3  1883 TIP3 H1   HT     0.417000        1.0080           0
   51733 WT3  1883 TIP3 H2   HT     0.417000        1.0080           0
   51734 WT3  1885 TIP3 OH2  OT    -0.834000       15.9994           0
   51735 WT3  1885 TIP3 H1   HT     0.417000        1.0080           0
   51736 WT3  1885 TIP3 H2   HT     0.417000        1.0080           0
   51737 WT3  1891 TIP3 OH2  OT    -0.834000       15.9994           0
   51738 WT3  1891 TIP3 H1   HT     0.417000        1.0080           0
   51739 WT3  1891 TIP3 H2   HT     0.417000        1.0080           0
   51740 WT3  1892 TIP3 OH2  OT    -0.834000       15.9994           0
   51741 WT3  1892 TIP3 H1   HT     0.417000        1.0080           0
   51742 WT3  1892 TIP3 H2   HT     0.417000        1.0080           0
   51743 WT3  1894 TIP3 OH2  OT    -0.834000       15.9994           0
   51744 WT3  1894 TIP3 H1   HT     0.417000        1.0080           0
   51745 WT3  1894 TIP3 H2   HT     0.417000        1.0080           0
   51746 WT3  1895 TIP3 OH2  OT    -0.834000       15.9994           0
   51747 WT3  1895 TIP3 H1   HT     0.417000        1.0080           0
   51748 WT3  1895 TIP3 H2   HT     0.417000        1.0080           0
   51749 WT3  1896 TIP3 OH2  OT    -0.834000       15.9994           0
   51750 WT3  1896 TIP3 H1   HT     0.417000        1.0080           0
   51751 WT3  1896 TIP3 H2   HT     0.417000        1.0080           0
   51752 WT3  1897 TIP3 OH2  OT    -0.834000       15.9994           0
   51753 WT3  1897 TIP3 H1   HT     0.417000        1.0080           0
   51754 WT3  1897 TIP3 H2   HT     0.417000        1.0080           0
   51755 WT3  1898 TIP3 OH2  OT    -0.834000       15.9994           0
   51756 WT3  1898 TIP3 H1   HT     0.417000        1.0080           0
   51757 WT3  1898 TIP3 H2   HT     0.417000        1.0080           0
   51758 WT3  1899 TIP3 OH2  OT    -0.834000       15.9994           0
   51759 WT3  1899 TIP3 H1   HT     0.417000        1.0080           0
   51760 WT3  1899 TIP3 H2   HT     0.417000        1.0080           0
   51761 WT3  1900 TIP3 OH2  OT    -0.834000       15.9994           0
   51762 WT3  1900 TIP3 H1   HT     0.417000        1.0080           0
   51763 WT3  1900 TIP3 H2   HT     0.417000        1.0080           0
   51764 WT3  1901 TIP3 OH2  OT    -0.834000       15.9994           0
   51765 WT3  1901 TIP3 H1   HT     0.417000        1.0080           0
   51766 WT3  1901 TIP3 H2   HT     0.417000        1.0080           0
   51767 WT3  1906 TIP3 OH2  OT    -0.834000       15.9994           0
   51768 WT3  1906 TIP3 H1   HT     0.417000        1.0080           0
   51769 WT3  1906 TIP3 H2   HT     0.417000        1.0080           0
   51770 WT3  1907 TIP3 OH2  OT    -0.834000       15.9994           0
   51771 WT3  1907 TIP3 H1   HT     0.417000        1.0080           0
   51772 WT3  1907 TIP3 H2   HT     0.417000        1.0080           0
   51773 WT3  1911 TIP3 OH2  OT    -0.834000       15.9994           0
   51774 WT3  1911 TIP3 H1   HT     0.417000        1.0080           0
   51775 WT3  1911 TIP3 H2   HT     0.417000        1.0080           0
   51776 WT3  1912 TIP3 OH2  OT    -0.834000       15.9994           0
   51777 WT3  1912 TIP3 H1   HT     0.417000        1.0080           0
   51778 WT3  1912 TIP3 H2   HT     0.417000        1.0080           0
   51779 WT3  1913 TIP3 OH2  OT    -0.834000       15.9994           0
   51780 WT3  1913 TIP3 H1   HT     0.417000        1.0080           0
   51781 WT3  1913 TIP3 H2   HT     0.417000        1.0080           0
   51782 WT3  1914 TIP3 OH2  OT    -0.834000       15.9994           0
   51783 WT3  1914 TIP3 H1   HT     0.417000        1.0080           0
   51784 WT3  1914 TIP3 H2   HT     0.417000        1.0080           0
   51785 WT3  1915 TIP3 OH2  OT    -0.834000       15.9994           0
   51786 WT3  1915 TIP3 H1   HT     0.417000        1.0080           0
   51787 WT3  1915 TIP3 H2   HT     0.417000        1.0080           0
   51788 WT3  1916 TIP3 OH2  OT    -0.834000       15.9994           0
   51789 WT3  1916 TIP3 H1   HT     0.417000        1.0080           0
   51790 WT3  1916 TIP3 H2   HT     0.417000        1.0080           0
   51791 WT3  1917 TIP3 OH2  OT    -0.834000       15.9994           0
   51792 WT3  1917 TIP3 H1   HT     0.417000        1.0080           0
   51793 WT3  1917 TIP3 H2   HT     0.417000        1.0080           0
   51794 WT3  1918 TIP3 OH2  OT    -0.834000       15.9994           0
   51795 WT3  1918 TIP3 H1   HT     0.417000        1.0080           0
   51796 WT3  1918 TIP3 H2   HT     0.417000        1.0080           0
   51797 WT3  1920 TIP3 OH2  OT    -0.834000       15.9994           0
   51798 WT3  1920 TIP3 H1   HT     0.417000        1.0080           0
   51799 WT3  1920 TIP3 H2   HT     0.417000        1.0080           0
   51800 WT3  1921 TIP3 OH2  OT    -0.834000       15.9994           0
   51801 WT3  1921 TIP3 H1   HT     0.417000        1.0080           0
   51802 WT3  1921 TIP3 H2   HT     0.417000        1.0080           0
   51803 WT3  1922 TIP3 OH2  OT    -0.834000       15.9994           0
   51804 WT3  1922 TIP3 H1   HT     0.417000        1.0080           0
   51805 WT3  1922 TIP3 H2   HT     0.417000        1.0080           0
   51806 WT3  1923 TIP3 OH2  OT    -0.834000       15.9994           0
   51807 WT3  1923 TIP3 H1   HT     0.417000        1.0080           0
   51808 WT3  1923 TIP3 H2   HT     0.417000        1.0080           0
   51809 WT3  1924 TIP3 OH2  OT    -0.834000       15.9994           0
   51810 WT3  1924 TIP3 H1   HT     0.417000        1.0080           0
   51811 WT3  1924 TIP3 H2   HT     0.417000        1.0080           0
   51812 WT3  1925 TIP3 OH2  OT    -0.834000       15.9994           0
   51813 WT3  1925 TIP3 H1   HT     0.417000        1.0080           0
   51814 WT3  1925 TIP3 H2   HT     0.417000        1.0080           0
   51815 WT3  1931 TIP3 OH2  OT    -0.834000       15.9994           0
   51816 WT3  1931 TIP3 H1   HT     0.417000        1.0080           0
   51817 WT3  1931 TIP3 H2   HT     0.417000        1.0080           0
   51818 WT3  1934 TIP3 OH2  OT    -0.834000       15.9994           0
   51819 WT3  1934 TIP3 H1   HT     0.417000        1.0080           0
   51820 WT3  1934 TIP3 H2   HT     0.417000        1.0080           0
   51821 WT3  1935 TIP3 OH2  OT    -0.834000       15.9994           0
   51822 WT3  1935 TIP3 H1   HT     0.417000        1.0080           0
   51823 WT3  1935 TIP3 H2   HT     0.417000        1.0080           0
   51824 WT3  1936 TIP3 OH2  OT    -0.834000       15.9994           0
   51825 WT3  1936 TIP3 H1   HT     0.417000        1.0080           0
   51826 WT3  1936 TIP3 H2   HT     0.417000        1.0080           0
   51827 WT3  1937 TIP3 OH2  OT    -0.834000       15.9994           0
   51828 WT3  1937 TIP3 H1   HT     0.417000        1.0080           0
   51829 WT3  1937 TIP3 H2   HT     0.417000        1.0080           0
   51830 WT3  1938 TIP3 OH2  OT    -0.834000       15.9994           0
   51831 WT3  1938 TIP3 H1   HT     0.417000        1.0080           0
   51832 WT3  1938 TIP3 H2   HT     0.417000        1.0080           0
   51833 WT3  1939 TIP3 OH2  OT    -0.834000       15.9994           0
   51834 WT3  1939 TIP3 H1   HT     0.417000        1.0080           0
   51835 WT3  1939 TIP3 H2   HT     0.417000        1.0080           0
   51836 WT3  1940 TIP3 OH2  OT    -0.834000       15.9994           0
   51837 WT3  1940 TIP3 H1   HT     0.417000        1.0080           0
   51838 WT3  1940 TIP3 H2   HT     0.417000        1.0080           0
   51839 WT3  1941 TIP3 OH2  OT    -0.834000       15.9994           0
   51840 WT3  1941 TIP3 H1   HT     0.417000        1.0080           0
   51841 WT3  1941 TIP3 H2   HT     0.417000        1.0080           0
   51842 WT3  1942 TIP3 OH2  OT    -0.834000       15.9994           0
   51843 WT3  1942 TIP3 H1   HT     0.417000        1.0080           0
   51844 WT3  1942 TIP3 H2   HT     0.417000        1.0080           0
   51845 WT3  1943 TIP3 OH2  OT    -0.834000       15.9994           0
   51846 WT3  1943 TIP3 H1   HT     0.417000        1.0080           0
   51847 WT3  1943 TIP3 H2   HT     0.417000        1.0080           0
   51848 WT3  1945 TIP3 OH2  OT    -0.834000       15.9994           0
   51849 WT3  1945 TIP3 H1   HT     0.417000        1.0080           0
   51850 WT3  1945 TIP3 H2   HT     0.417000        1.0080           0
   51851 WT3  1946 TIP3 OH2  OT    -0.834000       15.9994           0
   51852 WT3  1946 TIP3 H1   HT     0.417000        1.0080           0
   51853 WT3  1946 TIP3 H2   HT     0.417000        1.0080           0
   51854 WT3  1947 TIP3 OH2  OT    -0.834000       15.9994           0
   51855 WT3  1947 TIP3 H1   HT     0.417000        1.0080           0
   51856 WT3  1947 TIP3 H2   HT     0.417000        1.0080           0
   51857 WT3  1948 TIP3 OH2  OT    -0.834000       15.9994           0
   51858 WT3  1948 TIP3 H1   HT     0.417000        1.0080           0
   51859 WT3  1948 TIP3 H2   HT     0.417000        1.0080           0
   51860 WT3  1949 TIP3 OH2  OT    -0.834000       15.9994           0
   51861 WT3  1949 TIP3 H1   HT     0.417000        1.0080           0
   51862 WT3  1949 TIP3 H2   HT     0.417000        1.0080           0
   51863 WT3  1950 TIP3 OH2  OT    -0.834000       15.9994           0
   51864 WT3  1950 TIP3 H1   HT     0.417000        1.0080           0
   51865 WT3  1950 TIP3 H2   HT     0.417000        1.0080           0
   51866 WT3  1952 TIP3 OH2  OT    -0.834000       15.9994           0
   51867 WT3  1952 TIP3 H1   HT     0.417000        1.0080           0
   51868 WT3  1952 TIP3 H2   HT     0.417000        1.0080           0
   51869 WT3  1954 TIP3 OH2  OT    -0.834000       15.9994           0
   51870 WT3  1954 TIP3 H1   HT     0.417000        1.0080           0
   51871 WT3  1954 TIP3 H2   HT     0.417000        1.0080           0
   51872 WT3  1955 TIP3 OH2  OT    -0.834000       15.9994           0
   51873 WT3  1955 TIP3 H1   HT     0.417000        1.0080           0
   51874 WT3  1955 TIP3 H2   HT     0.417000        1.0080           0
   51875 WT3  1959 TIP3 OH2  OT    -0.834000       15.9994           0
   51876 WT3  1959 TIP3 H1   HT     0.417000        1.0080           0
   51877 WT3  1959 TIP3 H2   HT     0.417000        1.0080           0
   51878 WT3  1960 TIP3 OH2  OT    -0.834000       15.9994           0
   51879 WT3  1960 TIP3 H1   HT     0.417000        1.0080           0
   51880 WT3  1960 TIP3 H2   HT     0.417000        1.0080           0
   51881 WT3  1961 TIP3 OH2  OT    -0.834000       15.9994           0
   51882 WT3  1961 TIP3 H1   HT     0.417000        1.0080           0
   51883 WT3  1961 TIP3 H2   HT     0.417000        1.0080           0
   51884 WT3  1962 TIP3 OH2  OT    -0.834000       15.9994           0
   51885 WT3  1962 TIP3 H1   HT     0.417000        1.0080           0
   51886 WT3  1962 TIP3 H2   HT     0.417000        1.0080           0
   51887 WT3  1963 TIP3 OH2  OT    -0.834000       15.9994           0
   51888 WT3  1963 TIP3 H1   HT     0.417000        1.0080           0
   51889 WT3  1963 TIP3 H2   HT     0.417000        1.0080           0
   51890 WT3  1965 TIP3 OH2  OT    -0.834000       15.9994           0
   51891 WT3  1965 TIP3 H1   HT     0.417000        1.0080           0
   51892 WT3  1965 TIP3 H2   HT     0.417000        1.0080           0
   51893 WT3  1966 TIP3 OH2  OT    -0.834000       15.9994           0
   51894 WT3  1966 TIP3 H1   HT     0.417000        1.0080           0
   51895 WT3  1966 TIP3 H2   HT     0.417000        1.0080           0
   51896 WT3  1967 TIP3 OH2  OT    -0.834000       15.9994           0
   51897 WT3  1967 TIP3 H1   HT     0.417000        1.0080           0
   51898 WT3  1967 TIP3 H2   HT     0.417000        1.0080           0
   51899 WT3  1968 TIP3 OH2  OT    -0.834000       15.9994           0
   51900 WT3  1968 TIP3 H1   HT     0.417000        1.0080           0
   51901 WT3  1968 TIP3 H2   HT     0.417000        1.0080           0
   51902 WT3  1969 TIP3 OH2  OT    -0.834000       15.9994           0
   51903 WT3  1969 TIP3 H1   HT     0.417000        1.0080           0
   51904 WT3  1969 TIP3 H2   HT     0.417000        1.0080           0
   51905 WT3  1970 TIP3 OH2  OT    -0.834000       15.9994           0
   51906 WT3  1970 TIP3 H1   HT     0.417000        1.0080           0
   51907 WT3  1970 TIP3 H2   HT     0.417000        1.0080           0
   51908 WT3  1976 TIP3 OH2  OT    -0.834000       15.9994           0
   51909 WT3  1976 TIP3 H1   HT     0.417000        1.0080           0
   51910 WT3  1976 TIP3 H2   HT     0.417000        1.0080           0
   51911 WT3  1977 TIP3 OH2  OT    -0.834000       15.9994           0
   51912 WT3  1977 TIP3 H1   HT     0.417000        1.0080           0
   51913 WT3  1977 TIP3 H2   HT     0.417000        1.0080           0
   51914 WT3  1978 TIP3 OH2  OT    -0.834000       15.9994           0
   51915 WT3  1978 TIP3 H1   HT     0.417000        1.0080           0
   51916 WT3  1978 TIP3 H2   HT     0.417000        1.0080           0
   51917 WT3  1979 TIP3 OH2  OT    -0.834000       15.9994           0
   51918 WT3  1979 TIP3 H1   HT     0.417000        1.0080           0
   51919 WT3  1979 TIP3 H2   HT     0.417000        1.0080           0
   51920 WT3  1980 TIP3 OH2  OT    -0.834000       15.9994           0
   51921 WT3  1980 TIP3 H1   HT     0.417000        1.0080           0
   51922 WT3  1980 TIP3 H2   HT     0.417000        1.0080           0
   51923 WT3  1981 TIP3 OH2  OT    -0.834000       15.9994           0
   51924 WT3  1981 TIP3 H1   HT     0.417000        1.0080           0
   51925 WT3  1981 TIP3 H2   HT     0.417000        1.0080           0
   51926 WT3  1982 TIP3 OH2  OT    -0.834000       15.9994           0
   51927 WT3  1982 TIP3 H1   HT     0.417000        1.0080           0
   51928 WT3  1982 TIP3 H2   HT     0.417000        1.0080           0
   51929 WT3  1984 TIP3 OH2  OT    -0.834000       15.9994           0
   51930 WT3  1984 TIP3 H1   HT     0.417000        1.0080           0
   51931 WT3  1984 TIP3 H2   HT     0.417000        1.0080           0
   51932 WT3  1986 TIP3 OH2  OT    -0.834000       15.9994           0
   51933 WT3  1986 TIP3 H1   HT     0.417000        1.0080           0
   51934 WT3  1986 TIP3 H2   HT     0.417000        1.0080           0
   51935 WT3  1987 TIP3 OH2  OT    -0.834000       15.9994           0
   51936 WT3  1987 TIP3 H1   HT     0.417000        1.0080           0
   51937 WT3  1987 TIP3 H2   HT     0.417000        1.0080           0
   51938 WT3  1988 TIP3 OH2  OT    -0.834000       15.9994           0
   51939 WT3  1988 TIP3 H1   HT     0.417000        1.0080           0
   51940 WT3  1988 TIP3 H2   HT     0.417000        1.0080           0
   51941 WT3  1989 TIP3 OH2  OT    -0.834000       15.9994           0
   51942 WT3  1989 TIP3 H1   HT     0.417000        1.0080           0
   51943 WT3  1989 TIP3 H2   HT     0.417000        1.0080           0
   51944 WT3  1993 TIP3 OH2  OT    -0.834000       15.9994           0
   51945 WT3  1993 TIP3 H1   HT     0.417000        1.0080           0
   51946 WT3  1993 TIP3 H2   HT     0.417000        1.0080           0
   51947 WT3  1994 TIP3 OH2  OT    -0.834000       15.9994           0
   51948 WT3  1994 TIP3 H1   HT     0.417000        1.0080           0
   51949 WT3  1994 TIP3 H2   HT     0.417000        1.0080           0
   51950 WT3  1999 TIP3 OH2  OT    -0.834000       15.9994           0
   51951 WT3  1999 TIP3 H1   HT     0.417000        1.0080           0
   51952 WT3  1999 TIP3 H2   HT     0.417000        1.0080           0
   51953 WT3  2000 TIP3 OH2  OT    -0.834000       15.9994           0
   51954 WT3  2000 TIP3 H1   HT     0.417000        1.0080           0
   51955 WT3  2000 TIP3 H2   HT     0.417000        1.0080           0
   51956 WT3  2001 TIP3 OH2  OT    -0.834000       15.9994           0
   51957 WT3  2001 TIP3 H1   HT     0.417000        1.0080           0
   51958 WT3  2001 TIP3 H2   HT     0.417000        1.0080           0
   51959 WT3  2002 TIP3 OH2  OT    -0.834000       15.9994           0
   51960 WT3  2002 TIP3 H1   HT     0.417000        1.0080           0
   51961 WT3  2002 TIP3 H2   HT     0.417000        1.0080           0
   51962 WT3  2003 TIP3 OH2  OT    -0.834000       15.9994           0
   51963 WT3  2003 TIP3 H1   HT     0.417000        1.0080           0
   51964 WT3  2003 TIP3 H2   HT     0.417000        1.0080           0
   51965 WT3  2004 TIP3 OH2  OT    -0.834000       15.9994           0
   51966 WT3  2004 TIP3 H1   HT     0.417000        1.0080           0
   51967 WT3  2004 TIP3 H2   HT     0.417000        1.0080           0
   51968 WT3  2007 TIP3 OH2  OT    -0.834000       15.9994           0
   51969 WT3  2007 TIP3 H1   HT     0.417000        1.0080           0
   51970 WT3  2007 TIP3 H2   HT     0.417000        1.0080           0
   51971 WT3  2009 TIP3 OH2  OT    -0.834000       15.9994           0
   51972 WT3  2009 TIP3 H1   HT     0.417000        1.0080           0
   51973 WT3  2009 TIP3 H2   HT     0.417000        1.0080           0
   51974 WT3  2011 TIP3 OH2  OT    -0.834000       15.9994           0
   51975 WT3  2011 TIP3 H1   HT     0.417000        1.0080           0
   51976 WT3  2011 TIP3 H2   HT     0.417000        1.0080           0
   51977 WT3  2014 TIP3 OH2  OT    -0.834000       15.9994           0
   51978 WT3  2014 TIP3 H1   HT     0.417000        1.0080           0
   51979 WT3  2014 TIP3 H2   HT     0.417000        1.0080           0
   51980 WT3  2016 TIP3 OH2  OT    -0.834000       15.9994           0
   51981 WT3  2016 TIP3 H1   HT     0.417000        1.0080           0
   51982 WT3  2016 TIP3 H2   HT     0.417000        1.0080           0
   51983 WT3  2018 TIP3 OH2  OT    -0.834000       15.9994           0
   51984 WT3  2018 TIP3 H1   HT     0.417000        1.0080           0
   51985 WT3  2018 TIP3 H2   HT     0.417000        1.0080           0
   51986 WT3  2019 TIP3 OH2  OT    -0.834000       15.9994           0
   51987 WT3  2019 TIP3 H1   HT     0.417000        1.0080           0
   51988 WT3  2019 TIP3 H2   HT     0.417000        1.0080           0
   51989 WT3  2020 TIP3 OH2  OT    -0.834000       15.9994           0
   51990 WT3  2020 TIP3 H1   HT     0.417000        1.0080           0
   51991 WT3  2020 TIP3 H2   HT     0.417000        1.0080           0
   51992 WT3  2021 TIP3 OH2  OT    -0.834000       15.9994           0
   51993 WT3  2021 TIP3 H1   HT     0.417000        1.0080           0
   51994 WT3  2021 TIP3 H2   HT     0.417000        1.0080           0
   51995 WT3  2022 TIP3 OH2  OT    -0.834000       15.9994           0
   51996 WT3  2022 TIP3 H1   HT     0.417000        1.0080           0
   51997 WT3  2022 TIP3 H2   HT     0.417000        1.0080           0
   51998 WT3  2023 TIP3 OH2  OT    -0.834000       15.9994           0
   51999 WT3  2023 TIP3 H1   HT     0.417000        1.0080           0
   52000 WT3  2023 TIP3 H2   HT     0.417000        1.0080           0
   52001 WT3  2026 TIP3 OH2  OT    -0.834000       15.9994           0
   52002 WT3  2026 TIP3 H1   HT     0.417000        1.0080           0
   52003 WT3  2026 TIP3 H2   HT     0.417000        1.0080           0
   52004 WT3  2027 TIP3 OH2  OT    -0.834000       15.9994           0
   52005 WT3  2027 TIP3 H1   HT     0.417000        1.0080           0
   52006 WT3  2027 TIP3 H2   HT     0.417000        1.0080           0
   52007 WT3  2028 TIP3 OH2  OT    -0.834000       15.9994           0
   52008 WT3  2028 TIP3 H1   HT     0.417000        1.0080           0
   52009 WT3  2028 TIP3 H2   HT     0.417000        1.0080           0
   52010 WT3  2029 TIP3 OH2  OT    -0.834000       15.9994           0
   52011 WT3  2029 TIP3 H1   HT     0.417000        1.0080           0
   52012 WT3  2029 TIP3 H2   HT     0.417000        1.0080           0
   52013 WT3  2031 TIP3 OH2  OT    -0.834000       15.9994           0
   52014 WT3  2031 TIP3 H1   HT     0.417000        1.0080           0
   52015 WT3  2031 TIP3 H2   HT     0.417000        1.0080           0
   52016 WT3  2032 TIP3 OH2  OT    -0.834000       15.9994           0
   52017 WT3  2032 TIP3 H1   HT     0.417000        1.0080           0
   52018 WT3  2032 TIP3 H2   HT     0.417000        1.0080           0
   52019 WT3  2034 TIP3 OH2  OT    -0.834000       15.9994           0
   52020 WT3  2034 TIP3 H1   HT     0.417000        1.0080           0
   52021 WT3  2034 TIP3 H2   HT     0.417000        1.0080           0
   52022 WT3  2037 TIP3 OH2  OT    -0.834000       15.9994           0
   52023 WT3  2037 TIP3 H1   HT     0.417000        1.0080           0
   52024 WT3  2037 TIP3 H2   HT     0.417000        1.0080           0
   52025 WT3  2038 TIP3 OH2  OT    -0.834000       15.9994           0
   52026 WT3  2038 TIP3 H1   HT     0.417000        1.0080           0
   52027 WT3  2038 TIP3 H2   HT     0.417000        1.0080           0
   52028 WT3  2039 TIP3 OH2  OT    -0.834000       15.9994           0
   52029 WT3  2039 TIP3 H1   HT     0.417000        1.0080           0
   52030 WT3  2039 TIP3 H2   HT     0.417000        1.0080           0
   52031 WT3  2040 TIP3 OH2  OT    -0.834000       15.9994           0
   52032 WT3  2040 TIP3 H1   HT     0.417000        1.0080           0
   52033 WT3  2040 TIP3 H2   HT     0.417000        1.0080           0
   52034 WT3  2041 TIP3 OH2  OT    -0.834000       15.9994           0
   52035 WT3  2041 TIP3 H1   HT     0.417000        1.0080           0
   52036 WT3  2041 TIP3 H2   HT     0.417000        1.0080           0
   52037 WT3  2042 TIP3 OH2  OT    -0.834000       15.9994           0
   52038 WT3  2042 TIP3 H1   HT     0.417000        1.0080           0
   52039 WT3  2042 TIP3 H2   HT     0.417000        1.0080           0
   52040 WT3  2044 TIP3 OH2  OT    -0.834000       15.9994           0
   52041 WT3  2044 TIP3 H1   HT     0.417000        1.0080           0
   52042 WT3  2044 TIP3 H2   HT     0.417000        1.0080           0
   52043 WT3  2045 TIP3 OH2  OT    -0.834000       15.9994           0
   52044 WT3  2045 TIP3 H1   HT     0.417000        1.0080           0
   52045 WT3  2045 TIP3 H2   HT     0.417000        1.0080           0
   52046 WT3  2046 TIP3 OH2  OT    -0.834000       15.9994           0
   52047 WT3  2046 TIP3 H1   HT     0.417000        1.0080           0
   52048 WT3  2046 TIP3 H2   HT     0.417000        1.0080           0
   52049 WT3  2049 TIP3 OH2  OT    -0.834000       15.9994           0
   52050 WT3  2049 TIP3 H1   HT     0.417000        1.0080           0
   52051 WT3  2049 TIP3 H2   HT     0.417000        1.0080           0
   52052 WT3  2050 TIP3 OH2  OT    -0.834000       15.9994           0
   52053 WT3  2050 TIP3 H1   HT     0.417000        1.0080           0
   52054 WT3  2050 TIP3 H2   HT     0.417000        1.0080           0
   52055 WT3  2052 TIP3 OH2  OT    -0.834000       15.9994           0
   52056 WT3  2052 TIP3 H1   HT     0.417000        1.0080           0
   52057 WT3  2052 TIP3 H2   HT     0.417000        1.0080           0
   52058 WT3  2059 TIP3 OH2  OT    -0.834000       15.9994           0
   52059 WT3  2059 TIP3 H1   HT     0.417000        1.0080           0
   52060 WT3  2059 TIP3 H2   HT     0.417000        1.0080           0
   52061 WT3  2060 TIP3 OH2  OT    -0.834000       15.9994           0
   52062 WT3  2060 TIP3 H1   HT     0.417000        1.0080           0
   52063 WT3  2060 TIP3 H2   HT     0.417000        1.0080           0
   52064 WT3  2061 TIP3 OH2  OT    -0.834000       15.9994           0
   52065 WT3  2061 TIP3 H1   HT     0.417000        1.0080           0
   52066 WT3  2061 TIP3 H2   HT     0.417000        1.0080           0
   52067 WT3  2062 TIP3 OH2  OT    -0.834000       15.9994           0
   52068 WT3  2062 TIP3 H1   HT     0.417000        1.0080           0
   52069 WT3  2062 TIP3 H2   HT     0.417000        1.0080           0
   52070 WT3  2063 TIP3 OH2  OT    -0.834000       15.9994           0
   52071 WT3  2063 TIP3 H1   HT     0.417000        1.0080           0
   52072 WT3  2063 TIP3 H2   HT     0.417000        1.0080           0
   52073 WT3  2064 TIP3 OH2  OT    -0.834000       15.9994           0
   52074 WT3  2064 TIP3 H1   HT     0.417000        1.0080           0
   52075 WT3  2064 TIP3 H2   HT     0.417000        1.0080           0
   52076 WT3  2065 TIP3 OH2  OT    -0.834000       15.9994           0
   52077 WT3  2065 TIP3 H1   HT     0.417000        1.0080           0
   52078 WT3  2065 TIP3 H2   HT     0.417000        1.0080           0
   52079 WT3  2066 TIP3 OH2  OT    -0.834000       15.9994           0
   52080 WT3  2066 TIP3 H1   HT     0.417000        1.0080           0
   52081 WT3  2066 TIP3 H2   HT     0.417000        1.0080           0
   52082 WT3  2067 TIP3 OH2  OT    -0.834000       15.9994           0
   52083 WT3  2067 TIP3 H1   HT     0.417000        1.0080           0
   52084 WT3  2067 TIP3 H2   HT     0.417000        1.0080           0
   52085 WT3  2068 TIP3 OH2  OT    -0.834000       15.9994           0
   52086 WT3  2068 TIP3 H1   HT     0.417000        1.0080           0
   52087 WT3  2068 TIP3 H2   HT     0.417000        1.0080           0
   52088 WT3  2069 TIP3 OH2  OT    -0.834000       15.9994           0
   52089 WT3  2069 TIP3 H1   HT     0.417000        1.0080           0
   52090 WT3  2069 TIP3 H2   HT     0.417000        1.0080           0
   52091 WT3  2070 TIP3 OH2  OT    -0.834000       15.9994           0
   52092 WT3  2070 TIP3 H1   HT     0.417000        1.0080           0
   52093 WT3  2070 TIP3 H2   HT     0.417000        1.0080           0
   52094 WT3  2072 TIP3 OH2  OT    -0.834000       15.9994           0
   52095 WT3  2072 TIP3 H1   HT     0.417000        1.0080           0
   52096 WT3  2072 TIP3 H2   HT     0.417000        1.0080           0
   52097 WT3  2073 TIP3 OH2  OT    -0.834000       15.9994           0
   52098 WT3  2073 TIP3 H1   HT     0.417000        1.0080           0
   52099 WT3  2073 TIP3 H2   HT     0.417000        1.0080           0
   52100 WT3  2075 TIP3 OH2  OT    -0.834000       15.9994           0
   52101 WT3  2075 TIP3 H1   HT     0.417000        1.0080           0
   52102 WT3  2075 TIP3 H2   HT     0.417000        1.0080           0
   52103 WT3  2079 TIP3 OH2  OT    -0.834000       15.9994           0
   52104 WT3  2079 TIP3 H1   HT     0.417000        1.0080           0
   52105 WT3  2079 TIP3 H2   HT     0.417000        1.0080           0
   52106 WT3  2081 TIP3 OH2  OT    -0.834000       15.9994           0
   52107 WT3  2081 TIP3 H1   HT     0.417000        1.0080           0
   52108 WT3  2081 TIP3 H2   HT     0.417000        1.0080           0
   52109 WT3  2082 TIP3 OH2  OT    -0.834000       15.9994           0
   52110 WT3  2082 TIP3 H1   HT     0.417000        1.0080           0
   52111 WT3  2082 TIP3 H2   HT     0.417000        1.0080           0
   52112 WT3  2083 TIP3 OH2  OT    -0.834000       15.9994           0
   52113 WT3  2083 TIP3 H1   HT     0.417000        1.0080           0
   52114 WT3  2083 TIP3 H2   HT     0.417000        1.0080           0
   52115 WT3  2084 TIP3 OH2  OT    -0.834000       15.9994           0
   52116 WT3  2084 TIP3 H1   HT     0.417000        1.0080           0
   52117 WT3  2084 TIP3 H2   HT     0.417000        1.0080           0
   52118 WT3  2086 TIP3 OH2  OT    -0.834000       15.9994           0
   52119 WT3  2086 TIP3 H1   HT     0.417000        1.0080           0
   52120 WT3  2086 TIP3 H2   HT     0.417000        1.0080           0
   52121 WT3  2087 TIP3 OH2  OT    -0.834000       15.9994           0
   52122 WT3  2087 TIP3 H1   HT     0.417000        1.0080           0
   52123 WT3  2087 TIP3 H2   HT     0.417000        1.0080           0
   52124 WT3  2088 TIP3 OH2  OT    -0.834000       15.9994           0
   52125 WT3  2088 TIP3 H1   HT     0.417000        1.0080           0
   52126 WT3  2088 TIP3 H2   HT     0.417000        1.0080           0
   52127 WT3  2089 TIP3 OH2  OT    -0.834000       15.9994           0
   52128 WT3  2089 TIP3 H1   HT     0.417000        1.0080           0
   52129 WT3  2089 TIP3 H2   HT     0.417000        1.0080           0
   52130 WT3  2090 TIP3 OH2  OT    -0.834000       15.9994           0
   52131 WT3  2090 TIP3 H1   HT     0.417000        1.0080           0
   52132 WT3  2090 TIP3 H2   HT     0.417000        1.0080           0
   52133 WT3  2091 TIP3 OH2  OT    -0.834000       15.9994           0
   52134 WT3  2091 TIP3 H1   HT     0.417000        1.0080           0
   52135 WT3  2091 TIP3 H2   HT     0.417000        1.0080           0
   52136 WT3  2092 TIP3 OH2  OT    -0.834000       15.9994           0
   52137 WT3  2092 TIP3 H1   HT     0.417000        1.0080           0
   52138 WT3  2092 TIP3 H2   HT     0.417000        1.0080           0
   52139 WT3  2093 TIP3 OH2  OT    -0.834000       15.9994           0
   52140 WT3  2093 TIP3 H1   HT     0.417000        1.0080           0
   52141 WT3  2093 TIP3 H2   HT     0.417000        1.0080           0
   52142 WT3  2098 TIP3 OH2  OT    -0.834000       15.9994           0
   52143 WT3  2098 TIP3 H1   HT     0.417000        1.0080           0
   52144 WT3  2098 TIP3 H2   HT     0.417000        1.0080           0
   52145 WT3  2101 TIP3 OH2  OT    -0.834000       15.9994           0
   52146 WT3  2101 TIP3 H1   HT     0.417000        1.0080           0
   52147 WT3  2101 TIP3 H2   HT     0.417000        1.0080           0
   52148 WT3  2102 TIP3 OH2  OT    -0.834000       15.9994           0
   52149 WT3  2102 TIP3 H1   HT     0.417000        1.0080           0
   52150 WT3  2102 TIP3 H2   HT     0.417000        1.0080           0
   52151 WT3  2103 TIP3 OH2  OT    -0.834000       15.9994           0
   52152 WT3  2103 TIP3 H1   HT     0.417000        1.0080           0
   52153 WT3  2103 TIP3 H2   HT     0.417000        1.0080           0
   52154 WT3  2104 TIP3 OH2  OT    -0.834000       15.9994           0
   52155 WT3  2104 TIP3 H1   HT     0.417000        1.0080           0
   52156 WT3  2104 TIP3 H2   HT     0.417000        1.0080           0
   52157 WT3  2105 TIP3 OH2  OT    -0.834000       15.9994           0
   52158 WT3  2105 TIP3 H1   HT     0.417000        1.0080           0
   52159 WT3  2105 TIP3 H2   HT     0.417000        1.0080           0
   52160 WT3  2106 TIP3 OH2  OT    -0.834000       15.9994           0
   52161 WT3  2106 TIP3 H1   HT     0.417000        1.0080           0
   52162 WT3  2106 TIP3 H2   HT     0.417000        1.0080           0
   52163 WT3  2107 TIP3 OH2  OT    -0.834000       15.9994           0
   52164 WT3  2107 TIP3 H1   HT     0.417000        1.0080           0
   52165 WT3  2107 TIP3 H2   HT     0.417000        1.0080           0
   52166 WT3  2109 TIP3 OH2  OT    -0.834000       15.9994           0
   52167 WT3  2109 TIP3 H1   HT     0.417000        1.0080           0
   52168 WT3  2109 TIP3 H2   HT     0.417000        1.0080           0
   52169 WT3  2111 TIP3 OH2  OT    -0.834000       15.9994           0
   52170 WT3  2111 TIP3 H1   HT     0.417000        1.0080           0
   52171 WT3  2111 TIP3 H2   HT     0.417000        1.0080           0
   52172 WT3  2112 TIP3 OH2  OT    -0.834000       15.9994           0
   52173 WT3  2112 TIP3 H1   HT     0.417000        1.0080           0
   52174 WT3  2112 TIP3 H2   HT     0.417000        1.0080           0
   52175 WT3  2113 TIP3 OH2  OT    -0.834000       15.9994           0
   52176 WT3  2113 TIP3 H1   HT     0.417000        1.0080           0
   52177 WT3  2113 TIP3 H2   HT     0.417000        1.0080           0
   52178 WT3  2115 TIP3 OH2  OT    -0.834000       15.9994           0
   52179 WT3  2115 TIP3 H1   HT     0.417000        1.0080           0
   52180 WT3  2115 TIP3 H2   HT     0.417000        1.0080           0
   52181 WT3  2116 TIP3 OH2  OT    -0.834000       15.9994           0
   52182 WT3  2116 TIP3 H1   HT     0.417000        1.0080           0
   52183 WT3  2116 TIP3 H2   HT     0.417000        1.0080           0
   52184 WT3  2117 TIP3 OH2  OT    -0.834000       15.9994           0
   52185 WT3  2117 TIP3 H1   HT     0.417000        1.0080           0
   52186 WT3  2117 TIP3 H2   HT     0.417000        1.0080           0
   52187 WT3  2122 TIP3 OH2  OT    -0.834000       15.9994           0
   52188 WT3  2122 TIP3 H1   HT     0.417000        1.0080           0
   52189 WT3  2122 TIP3 H2   HT     0.417000        1.0080           0
   52190 WT3  2123 TIP3 OH2  OT    -0.834000       15.9994           0
   52191 WT3  2123 TIP3 H1   HT     0.417000        1.0080           0
   52192 WT3  2123 TIP3 H2   HT     0.417000        1.0080           0
   52193 WT3  2124 TIP3 OH2  OT    -0.834000       15.9994           0
   52194 WT3  2124 TIP3 H1   HT     0.417000        1.0080           0
   52195 WT3  2124 TIP3 H2   HT     0.417000        1.0080           0
   52196 WT3  2125 TIP3 OH2  OT    -0.834000       15.9994           0
   52197 WT3  2125 TIP3 H1   HT     0.417000        1.0080           0
   52198 WT3  2125 TIP3 H2   HT     0.417000        1.0080           0
   52199 WT3  2127 TIP3 OH2  OT    -0.834000       15.9994           0
   52200 WT3  2127 TIP3 H1   HT     0.417000        1.0080           0
   52201 WT3  2127 TIP3 H2   HT     0.417000        1.0080           0
   52202 WT3  2128 TIP3 OH2  OT    -0.834000       15.9994           0
   52203 WT3  2128 TIP3 H1   HT     0.417000        1.0080           0
   52204 WT3  2128 TIP3 H2   HT     0.417000        1.0080           0
   52205 WT3  2130 TIP3 OH2  OT    -0.834000       15.9994           0
   52206 WT3  2130 TIP3 H1   HT     0.417000        1.0080           0
   52207 WT3  2130 TIP3 H2   HT     0.417000        1.0080           0
   52208 WT3  2131 TIP3 OH2  OT    -0.834000       15.9994           0
   52209 WT3  2131 TIP3 H1   HT     0.417000        1.0080           0
   52210 WT3  2131 TIP3 H2   HT     0.417000        1.0080           0
   52211 WT3  2132 TIP3 OH2  OT    -0.834000       15.9994           0
   52212 WT3  2132 TIP3 H1   HT     0.417000        1.0080           0
   52213 WT3  2132 TIP3 H2   HT     0.417000        1.0080           0
   52214 WT3  2133 TIP3 OH2  OT    -0.834000       15.9994           0
   52215 WT3  2133 TIP3 H1   HT     0.417000        1.0080           0
   52216 WT3  2133 TIP3 H2   HT     0.417000        1.0080           0
   52217 WT3  2135 TIP3 OH2  OT    -0.834000       15.9994           0
   52218 WT3  2135 TIP3 H1   HT     0.417000        1.0080           0
   52219 WT3  2135 TIP3 H2   HT     0.417000        1.0080           0
   52220 WT3  2138 TIP3 OH2  OT    -0.834000       15.9994           0
   52221 WT3  2138 TIP3 H1   HT     0.417000        1.0080           0
   52222 WT3  2138 TIP3 H2   HT     0.417000        1.0080           0
   52223 WT3  2143 TIP3 OH2  OT    -0.834000       15.9994           0
   52224 WT3  2143 TIP3 H1   HT     0.417000        1.0080           0
   52225 WT3  2143 TIP3 H2   HT     0.417000        1.0080           0
   52226 WT3  2146 TIP3 OH2  OT    -0.834000       15.9994           0
   52227 WT3  2146 TIP3 H1   HT     0.417000        1.0080           0
   52228 WT3  2146 TIP3 H2   HT     0.417000        1.0080           0
   52229 WT3  2147 TIP3 OH2  OT    -0.834000       15.9994           0
   52230 WT3  2147 TIP3 H1   HT     0.417000        1.0080           0
   52231 WT3  2147 TIP3 H2   HT     0.417000        1.0080           0
   52232 WT3  2148 TIP3 OH2  OT    -0.834000       15.9994           0
   52233 WT3  2148 TIP3 H1   HT     0.417000        1.0080           0
   52234 WT3  2148 TIP3 H2   HT     0.417000        1.0080           0
   52235 WT3  2149 TIP3 OH2  OT    -0.834000       15.9994           0
   52236 WT3  2149 TIP3 H1   HT     0.417000        1.0080           0
   52237 WT3  2149 TIP3 H2   HT     0.417000        1.0080           0
   52238 WT3  2151 TIP3 OH2  OT    -0.834000       15.9994           0
   52239 WT3  2151 TIP3 H1   HT     0.417000        1.0080           0
   52240 WT3  2151 TIP3 H2   HT     0.417000        1.0080           0
   52241 WT3  2153 TIP3 OH2  OT    -0.834000       15.9994           0
   52242 WT3  2153 TIP3 H1   HT     0.417000        1.0080           0
   52243 WT3  2153 TIP3 H2   HT     0.417000        1.0080           0
   52244 WT3  2154 TIP3 OH2  OT    -0.834000       15.9994           0
   52245 WT3  2154 TIP3 H1   HT     0.417000        1.0080           0
   52246 WT3  2154 TIP3 H2   HT     0.417000        1.0080           0
   52247 WT3  2155 TIP3 OH2  OT    -0.834000       15.9994           0
   52248 WT3  2155 TIP3 H1   HT     0.417000        1.0080           0
   52249 WT3  2155 TIP3 H2   HT     0.417000        1.0080           0
   52250 WT3  2156 TIP3 OH2  OT    -0.834000       15.9994           0
   52251 WT3  2156 TIP3 H1   HT     0.417000        1.0080           0
   52252 WT3  2156 TIP3 H2   HT     0.417000        1.0080           0
   52253 WT3  2157 TIP3 OH2  OT    -0.834000       15.9994           0
   52254 WT3  2157 TIP3 H1   HT     0.417000        1.0080           0
   52255 WT3  2157 TIP3 H2   HT     0.417000        1.0080           0
   52256 WT3  2163 TIP3 OH2  OT    -0.834000       15.9994           0
   52257 WT3  2163 TIP3 H1   HT     0.417000        1.0080           0
   52258 WT3  2163 TIP3 H2   HT     0.417000        1.0080           0
   52259 WT3  2165 TIP3 OH2  OT    -0.834000       15.9994           0
   52260 WT3  2165 TIP3 H1   HT     0.417000        1.0080           0
   52261 WT3  2165 TIP3 H2   HT     0.417000        1.0080           0
   52262 WT3  2166 TIP3 OH2  OT    -0.834000       15.9994           0
   52263 WT3  2166 TIP3 H1   HT     0.417000        1.0080           0
   52264 WT3  2166 TIP3 H2   HT     0.417000        1.0080           0
   52265 WT3  2167 TIP3 OH2  OT    -0.834000       15.9994           0
   52266 WT3  2167 TIP3 H1   HT     0.417000        1.0080           0
   52267 WT3  2167 TIP3 H2   HT     0.417000        1.0080           0
   52268 WT3  2168 TIP3 OH2  OT    -0.834000       15.9994           0
   52269 WT3  2168 TIP3 H1   HT     0.417000        1.0080           0
   52270 WT3  2168 TIP3 H2   HT     0.417000        1.0080           0
   52271 WT3  2169 TIP3 OH2  OT    -0.834000       15.9994           0
   52272 WT3  2169 TIP3 H1   HT     0.417000        1.0080           0
   52273 WT3  2169 TIP3 H2   HT     0.417000        1.0080           0
   52274 WT3  2170 TIP3 OH2  OT    -0.834000       15.9994           0
   52275 WT3  2170 TIP3 H1   HT     0.417000        1.0080           0
   52276 WT3  2170 TIP3 H2   HT     0.417000        1.0080           0
   52277 WT3  2171 TIP3 OH2  OT    -0.834000       15.9994           0
   52278 WT3  2171 TIP3 H1   HT     0.417000        1.0080           0
   52279 WT3  2171 TIP3 H2   HT     0.417000        1.0080           0
   52280 WT3  2172 TIP3 OH2  OT    -0.834000       15.9994           0
   52281 WT3  2172 TIP3 H1   HT     0.417000        1.0080           0
   52282 WT3  2172 TIP3 H2   HT     0.417000        1.0080           0
   52283 WT3  2173 TIP3 OH2  OT    -0.834000       15.9994           0
   52284 WT3  2173 TIP3 H1   HT     0.417000        1.0080           0
   52285 WT3  2173 TIP3 H2   HT     0.417000        1.0080           0
   52286 WT3  2174 TIP3 OH2  OT    -0.834000       15.9994           0
   52287 WT3  2174 TIP3 H1   HT     0.417000        1.0080           0
   52288 WT3  2174 TIP3 H2   HT     0.417000        1.0080           0
   52289 WT3  2175 TIP3 OH2  OT    -0.834000       15.9994           0
   52290 WT3  2175 TIP3 H1   HT     0.417000        1.0080           0
   52291 WT3  2175 TIP3 H2   HT     0.417000        1.0080           0
   52292 WT3  2176 TIP3 OH2  OT    -0.834000       15.9994           0
   52293 WT3  2176 TIP3 H1   HT     0.417000        1.0080           0
   52294 WT3  2176 TIP3 H2   HT     0.417000        1.0080           0
   52295 WT3  2177 TIP3 OH2  OT    -0.834000       15.9994           0
   52296 WT3  2177 TIP3 H1   HT     0.417000        1.0080           0
   52297 WT3  2177 TIP3 H2   HT     0.417000        1.0080           0
   52298 WT3  2183 TIP3 OH2  OT    -0.834000       15.9994           0
   52299 WT3  2183 TIP3 H1   HT     0.417000        1.0080           0
   52300 WT3  2183 TIP3 H2   HT     0.417000        1.0080           0
   52301 WT3  2185 TIP3 OH2  OT    -0.834000       15.9994           0
   52302 WT3  2185 TIP3 H1   HT     0.417000        1.0080           0
   52303 WT3  2185 TIP3 H2   HT     0.417000        1.0080           0
   52304 WT3  2186 TIP3 OH2  OT    -0.834000       15.9994           0
   52305 WT3  2186 TIP3 H1   HT     0.417000        1.0080           0
   52306 WT3  2186 TIP3 H2   HT     0.417000        1.0080           0
   52307 WT3  2187 TIP3 OH2  OT    -0.834000       15.9994           0
   52308 WT3  2187 TIP3 H1   HT     0.417000        1.0080           0
   52309 WT3  2187 TIP3 H2   HT     0.417000        1.0080           0
   52310 WT3  2188 TIP3 OH2  OT    -0.834000       15.9994           0
   52311 WT3  2188 TIP3 H1   HT     0.417000        1.0080           0
   52312 WT3  2188 TIP3 H2   HT     0.417000        1.0080           0
   52313 WT3  2189 TIP3 OH2  OT    -0.834000       15.9994           0
   52314 WT3  2189 TIP3 H1   HT     0.417000        1.0080           0
   52315 WT3  2189 TIP3 H2   HT     0.417000        1.0080           0
   52316 WT3  2190 TIP3 OH2  OT    -0.834000       15.9994           0
   52317 WT3  2190 TIP3 H1   HT     0.417000        1.0080           0
   52318 WT3  2190 TIP3 H2   HT     0.417000        1.0080           0
   52319 WT3  2191 TIP3 OH2  OT    -0.834000       15.9994           0
   52320 WT3  2191 TIP3 H1   HT     0.417000        1.0080           0
   52321 WT3  2191 TIP3 H2   HT     0.417000        1.0080           0
   52322 WT3  2192 TIP3 OH2  OT    -0.834000       15.9994           0
   52323 WT3  2192 TIP3 H1   HT     0.417000        1.0080           0
   52324 WT3  2192 TIP3 H2   HT     0.417000        1.0080           0
   52325 WT3  2193 TIP3 OH2  OT    -0.834000       15.9994           0
   52326 WT3  2193 TIP3 H1   HT     0.417000        1.0080           0
   52327 WT3  2193 TIP3 H2   HT     0.417000        1.0080           0
   52328 WT3  2194 TIP3 OH2  OT    -0.834000       15.9994           0
   52329 WT3  2194 TIP3 H1   HT     0.417000        1.0080           0
   52330 WT3  2194 TIP3 H2   HT     0.417000        1.0080           0
   52331 WT3  2195 TIP3 OH2  OT    -0.834000       15.9994           0
   52332 WT3  2195 TIP3 H1   HT     0.417000        1.0080           0
   52333 WT3  2195 TIP3 H2   HT     0.417000        1.0080           0
   52334 WT3  2196 TIP3 OH2  OT    -0.834000       15.9994           0
   52335 WT3  2196 TIP3 H1   HT     0.417000        1.0080           0
   52336 WT3  2196 TIP3 H2   HT     0.417000        1.0080           0
   52337 WT3  2197 TIP3 OH2  OT    -0.834000       15.9994           0
   52338 WT3  2197 TIP3 H1   HT     0.417000        1.0080           0
   52339 WT3  2197 TIP3 H2   HT     0.417000        1.0080           0
   52340 WT3  2198 TIP3 OH2  OT    -0.834000       15.9994           0
   52341 WT3  2198 TIP3 H1   HT     0.417000        1.0080           0
   52342 WT3  2198 TIP3 H2   HT     0.417000        1.0080           0
   52343 WT3  2200 TIP3 OH2  OT    -0.834000       15.9994           0
   52344 WT3  2200 TIP3 H1   HT     0.417000        1.0080           0
   52345 WT3  2200 TIP3 H2   HT     0.417000        1.0080           0
   52346 WT3  2204 TIP3 OH2  OT    -0.834000       15.9994           0
   52347 WT3  2204 TIP3 H1   HT     0.417000        1.0080           0
   52348 WT3  2204 TIP3 H2   HT     0.417000        1.0080           0
   52349 WT3  2205 TIP3 OH2  OT    -0.834000       15.9994           0
   52350 WT3  2205 TIP3 H1   HT     0.417000        1.0080           0
   52351 WT3  2205 TIP3 H2   HT     0.417000        1.0080           0
   52352 WT3  2206 TIP3 OH2  OT    -0.834000       15.9994           0
   52353 WT3  2206 TIP3 H1   HT     0.417000        1.0080           0
   52354 WT3  2206 TIP3 H2   HT     0.417000        1.0080           0
   52355 WT3  2207 TIP3 OH2  OT    -0.834000       15.9994           0
   52356 WT3  2207 TIP3 H1   HT     0.417000        1.0080           0
   52357 WT3  2207 TIP3 H2   HT     0.417000        1.0080           0
   52358 WT3  2208 TIP3 OH2  OT    -0.834000       15.9994           0
   52359 WT3  2208 TIP3 H1   HT     0.417000        1.0080           0
   52360 WT3  2208 TIP3 H2   HT     0.417000        1.0080           0
   52361 WT3  2209 TIP3 OH2  OT    -0.834000       15.9994           0
   52362 WT3  2209 TIP3 H1   HT     0.417000        1.0080           0
   52363 WT3  2209 TIP3 H2   HT     0.417000        1.0080           0
   52364 WT3  2210 TIP3 OH2  OT    -0.834000       15.9994           0
   52365 WT3  2210 TIP3 H1   HT     0.417000        1.0080           0
   52366 WT3  2210 TIP3 H2   HT     0.417000        1.0080           0
   52367 WT3  2211 TIP3 OH2  OT    -0.834000       15.9994           0
   52368 WT3  2211 TIP3 H1   HT     0.417000        1.0080           0
   52369 WT3  2211 TIP3 H2   HT     0.417000        1.0080           0
   52370 WT3  2212 TIP3 OH2  OT    -0.834000       15.9994           0
   52371 WT3  2212 TIP3 H1   HT     0.417000        1.0080           0
   52372 WT3  2212 TIP3 H2   HT     0.417000        1.0080           0
   52373 WT3  2213 TIP3 OH2  OT    -0.834000       15.9994           0
   52374 WT3  2213 TIP3 H1   HT     0.417000        1.0080           0
   52375 WT3  2213 TIP3 H2   HT     0.417000        1.0080           0
   52376 WT3  2214 TIP3 OH2  OT    -0.834000       15.9994           0
   52377 WT3  2214 TIP3 H1   HT     0.417000        1.0080           0
   52378 WT3  2214 TIP3 H2   HT     0.417000        1.0080           0
   52379 WT3  2215 TIP3 OH2  OT    -0.834000       15.9994           0
   52380 WT3  2215 TIP3 H1   HT     0.417000        1.0080           0
   52381 WT3  2215 TIP3 H2   HT     0.417000        1.0080           0
   52382 WT3  2216 TIP3 OH2  OT    -0.834000       15.9994           0
   52383 WT3  2216 TIP3 H1   HT     0.417000        1.0080           0
   52384 WT3  2216 TIP3 H2   HT     0.417000        1.0080           0
   52385 WT3  2220 TIP3 OH2  OT    -0.834000       15.9994           0
   52386 WT3  2220 TIP3 H1   HT     0.417000        1.0080           0
   52387 WT3  2220 TIP3 H2   HT     0.417000        1.0080           0
   52388 WT3  2223 TIP3 OH2  OT    -0.834000       15.9994           0
   52389 WT3  2223 TIP3 H1   HT     0.417000        1.0080           0
   52390 WT3  2223 TIP3 H2   HT     0.417000        1.0080           0
   52391 WT3  2227 TIP3 OH2  OT    -0.834000       15.9994           0
   52392 WT3  2227 TIP3 H1   HT     0.417000        1.0080           0
   52393 WT3  2227 TIP3 H2   HT     0.417000        1.0080           0
   52394 WT3  2229 TIP3 OH2  OT    -0.834000       15.9994           0
   52395 WT3  2229 TIP3 H1   HT     0.417000        1.0080           0
   52396 WT3  2229 TIP3 H2   HT     0.417000        1.0080           0
   52397 WT3  2230 TIP3 OH2  OT    -0.834000       15.9994           0
   52398 WT3  2230 TIP3 H1   HT     0.417000        1.0080           0
   52399 WT3  2230 TIP3 H2   HT     0.417000        1.0080           0
   52400 WT3  2232 TIP3 OH2  OT    -0.834000       15.9994           0
   52401 WT3  2232 TIP3 H1   HT     0.417000        1.0080           0
   52402 WT3  2232 TIP3 H2   HT     0.417000        1.0080           0
   52403 WT3  2233 TIP3 OH2  OT    -0.834000       15.9994           0
   52404 WT3  2233 TIP3 H1   HT     0.417000        1.0080           0
   52405 WT3  2233 TIP3 H2   HT     0.417000        1.0080           0
   52406 WT3  2234 TIP3 OH2  OT    -0.834000       15.9994           0
   52407 WT3  2234 TIP3 H1   HT     0.417000        1.0080           0
   52408 WT3  2234 TIP3 H2   HT     0.417000        1.0080           0
   52409 WT3  2235 TIP3 OH2  OT    -0.834000       15.9994           0
   52410 WT3  2235 TIP3 H1   HT     0.417000        1.0080           0
   52411 WT3  2235 TIP3 H2   HT     0.417000        1.0080           0
   52412 WT3  2236 TIP3 OH2  OT    -0.834000       15.9994           0
   52413 WT3  2236 TIP3 H1   HT     0.417000        1.0080           0
   52414 WT3  2236 TIP3 H2   HT     0.417000        1.0080           0
   52415 WT3  2237 TIP3 OH2  OT    -0.834000       15.9994           0
   52416 WT3  2237 TIP3 H1   HT     0.417000        1.0080           0
   52417 WT3  2237 TIP3 H2   HT     0.417000        1.0080           0
   52418 WT3  2238 TIP3 OH2  OT    -0.834000       15.9994           0
   52419 WT3  2238 TIP3 H1   HT     0.417000        1.0080           0
   52420 WT3  2238 TIP3 H2   HT     0.417000        1.0080           0
   52421 WT3  2239 TIP3 OH2  OT    -0.834000       15.9994           0
   52422 WT3  2239 TIP3 H1   HT     0.417000        1.0080           0
   52423 WT3  2239 TIP3 H2   HT     0.417000        1.0080           0
   52424 WT3  2240 TIP3 OH2  OT    -0.834000       15.9994           0
   52425 WT3  2240 TIP3 H1   HT     0.417000        1.0080           0
   52426 WT3  2240 TIP3 H2   HT     0.417000        1.0080           0
   52427 WT3  2241 TIP3 OH2  OT    -0.834000       15.9994           0
   52428 WT3  2241 TIP3 H1   HT     0.417000        1.0080           0
   52429 WT3  2241 TIP3 H2   HT     0.417000        1.0080           0
   52430 WT3  2250 TIP3 OH2  OT    -0.834000       15.9994           0
   52431 WT3  2250 TIP3 H1   HT     0.417000        1.0080           0
   52432 WT3  2250 TIP3 H2   HT     0.417000        1.0080           0
   52433 WT3  2251 TIP3 OH2  OT    -0.834000       15.9994           0
   52434 WT3  2251 TIP3 H1   HT     0.417000        1.0080           0
   52435 WT3  2251 TIP3 H2   HT     0.417000        1.0080           0
   52436 WT3  2252 TIP3 OH2  OT    -0.834000       15.9994           0
   52437 WT3  2252 TIP3 H1   HT     0.417000        1.0080           0
   52438 WT3  2252 TIP3 H2   HT     0.417000        1.0080           0
   52439 WT3  2253 TIP3 OH2  OT    -0.834000       15.9994           0
   52440 WT3  2253 TIP3 H1   HT     0.417000        1.0080           0
   52441 WT3  2253 TIP3 H2   HT     0.417000        1.0080           0
   52442 WT3  2254 TIP3 OH2  OT    -0.834000       15.9994           0
   52443 WT3  2254 TIP3 H1   HT     0.417000        1.0080           0
   52444 WT3  2254 TIP3 H2   HT     0.417000        1.0080           0
   52445 WT3  2255 TIP3 OH2  OT    -0.834000       15.9994           0
   52446 WT3  2255 TIP3 H1   HT     0.417000        1.0080           0
   52447 WT3  2255 TIP3 H2   HT     0.417000        1.0080           0
   52448 WT3  2256 TIP3 OH2  OT    -0.834000       15.9994           0
   52449 WT3  2256 TIP3 H1   HT     0.417000        1.0080           0
   52450 WT3  2256 TIP3 H2   HT     0.417000        1.0080           0
   52451 WT3  2257 TIP3 OH2  OT    -0.834000       15.9994           0
   52452 WT3  2257 TIP3 H1   HT     0.417000        1.0080           0
   52453 WT3  2257 TIP3 H2   HT     0.417000        1.0080           0
   52454 WT3  2258 TIP3 OH2  OT    -0.834000       15.9994           0
   52455 WT3  2258 TIP3 H1   HT     0.417000        1.0080           0
   52456 WT3  2258 TIP3 H2   HT     0.417000        1.0080           0
   52457 WT3  2259 TIP3 OH2  OT    -0.834000       15.9994           0
   52458 WT3  2259 TIP3 H1   HT     0.417000        1.0080           0
   52459 WT3  2259 TIP3 H2   HT     0.417000        1.0080           0
   52460 WT3  2261 TIP3 OH2  OT    -0.834000       15.9994           0
   52461 WT3  2261 TIP3 H1   HT     0.417000        1.0080           0
   52462 WT3  2261 TIP3 H2   HT     0.417000        1.0080           0
   52463 WT3  2269 TIP3 OH2  OT    -0.834000       15.9994           0
   52464 WT3  2269 TIP3 H1   HT     0.417000        1.0080           0
   52465 WT3  2269 TIP3 H2   HT     0.417000        1.0080           0
   52466 WT3  2271 TIP3 OH2  OT    -0.834000       15.9994           0
   52467 WT3  2271 TIP3 H1   HT     0.417000        1.0080           0
   52468 WT3  2271 TIP3 H2   HT     0.417000        1.0080           0
   52469 WT3  2272 TIP3 OH2  OT    -0.834000       15.9994           0
   52470 WT3  2272 TIP3 H1   HT     0.417000        1.0080           0
   52471 WT3  2272 TIP3 H2   HT     0.417000        1.0080           0
   52472 WT3  2273 TIP3 OH2  OT    -0.834000       15.9994           0
   52473 WT3  2273 TIP3 H1   HT     0.417000        1.0080           0
   52474 WT3  2273 TIP3 H2   HT     0.417000        1.0080           0
   52475 WT3  2274 TIP3 OH2  OT    -0.834000       15.9994           0
   52476 WT3  2274 TIP3 H1   HT     0.417000        1.0080           0
   52477 WT3  2274 TIP3 H2   HT     0.417000        1.0080           0
   52478 WT3  2275 TIP3 OH2  OT    -0.834000       15.9994           0
   52479 WT3  2275 TIP3 H1   HT     0.417000        1.0080           0
   52480 WT3  2275 TIP3 H2   HT     0.417000        1.0080           0
   52481 WT3  2276 TIP3 OH2  OT    -0.834000       15.9994           0
   52482 WT3  2276 TIP3 H1   HT     0.417000        1.0080           0
   52483 WT3  2276 TIP3 H2   HT     0.417000        1.0080           0
   52484 WT3  2277 TIP3 OH2  OT    -0.834000       15.9994           0
   52485 WT3  2277 TIP3 H1   HT     0.417000        1.0080           0
   52486 WT3  2277 TIP3 H2   HT     0.417000        1.0080           0
   52487 WT3  2278 TIP3 OH2  OT    -0.834000       15.9994           0
   52488 WT3  2278 TIP3 H1   HT     0.417000        1.0080           0
   52489 WT3  2278 TIP3 H2   HT     0.417000        1.0080           0
   52490 WT3  2279 TIP3 OH2  OT    -0.834000       15.9994           0
   52491 WT3  2279 TIP3 H1   HT     0.417000        1.0080           0
   52492 WT3  2279 TIP3 H2   HT     0.417000        1.0080           0
   52493 WT3  2282 TIP3 OH2  OT    -0.834000       15.9994           0
   52494 WT3  2282 TIP3 H1   HT     0.417000        1.0080           0
   52495 WT3  2282 TIP3 H2   HT     0.417000        1.0080           0
   52496 WT3  2283 TIP3 OH2  OT    -0.834000       15.9994           0
   52497 WT3  2283 TIP3 H1   HT     0.417000        1.0080           0
   52498 WT3  2283 TIP3 H2   HT     0.417000        1.0080           0
   52499 WT3  2284 TIP3 OH2  OT    -0.834000       15.9994           0
   52500 WT3  2284 TIP3 H1   HT     0.417000        1.0080           0
   52501 WT3  2284 TIP3 H2   HT     0.417000        1.0080           0
   52502 WT3  2285 TIP3 OH2  OT    -0.834000       15.9994           0
   52503 WT3  2285 TIP3 H1   HT     0.417000        1.0080           0
   52504 WT3  2285 TIP3 H2   HT     0.417000        1.0080           0
   52505 WT3  2288 TIP3 OH2  OT    -0.834000       15.9994           0
   52506 WT3  2288 TIP3 H1   HT     0.417000        1.0080           0
   52507 WT3  2288 TIP3 H2   HT     0.417000        1.0080           0
   52508 WT3  2290 TIP3 OH2  OT    -0.834000       15.9994           0
   52509 WT3  2290 TIP3 H1   HT     0.417000        1.0080           0
   52510 WT3  2290 TIP3 H2   HT     0.417000        1.0080           0
   52511 WT3  2293 TIP3 OH2  OT    -0.834000       15.9994           0
   52512 WT3  2293 TIP3 H1   HT     0.417000        1.0080           0
   52513 WT3  2293 TIP3 H2   HT     0.417000        1.0080           0
   52514 WT3  2294 TIP3 OH2  OT    -0.834000       15.9994           0
   52515 WT3  2294 TIP3 H1   HT     0.417000        1.0080           0
   52516 WT3  2294 TIP3 H2   HT     0.417000        1.0080           0
   52517 WT3  2295 TIP3 OH2  OT    -0.834000       15.9994           0
   52518 WT3  2295 TIP3 H1   HT     0.417000        1.0080           0
   52519 WT3  2295 TIP3 H2   HT     0.417000        1.0080           0
   52520 WT3  2296 TIP3 OH2  OT    -0.834000       15.9994           0
   52521 WT3  2296 TIP3 H1   HT     0.417000        1.0080           0
   52522 WT3  2296 TIP3 H2   HT     0.417000        1.0080           0
   52523 WT3  2297 TIP3 OH2  OT    -0.834000       15.9994           0
   52524 WT3  2297 TIP3 H1   HT     0.417000        1.0080           0
   52525 WT3  2297 TIP3 H2   HT     0.417000        1.0080           0
   52526 WT3  2298 TIP3 OH2  OT    -0.834000       15.9994           0
   52527 WT3  2298 TIP3 H1   HT     0.417000        1.0080           0
   52528 WT3  2298 TIP3 H2   HT     0.417000        1.0080           0
   52529 WT3  2299 TIP3 OH2  OT    -0.834000       15.9994           0
   52530 WT3  2299 TIP3 H1   HT     0.417000        1.0080           0
   52531 WT3  2299 TIP3 H2   HT     0.417000        1.0080           0
   52532 WT3  2300 TIP3 OH2  OT    -0.834000       15.9994           0
   52533 WT3  2300 TIP3 H1   HT     0.417000        1.0080           0
   52534 WT3  2300 TIP3 H2   HT     0.417000        1.0080           0
   52535 WT3  2301 TIP3 OH2  OT    -0.834000       15.9994           0
   52536 WT3  2301 TIP3 H1   HT     0.417000        1.0080           0
   52537 WT3  2301 TIP3 H2   HT     0.417000        1.0080           0
   52538 WT3  2305 TIP3 OH2  OT    -0.834000       15.9994           0
   52539 WT3  2305 TIP3 H1   HT     0.417000        1.0080           0
   52540 WT3  2305 TIP3 H2   HT     0.417000        1.0080           0
   52541 WT3  2309 TIP3 OH2  OT    -0.834000       15.9994           0
   52542 WT3  2309 TIP3 H1   HT     0.417000        1.0080           0
   52543 WT3  2309 TIP3 H2   HT     0.417000        1.0080           0
   52544 WT3  2311 TIP3 OH2  OT    -0.834000       15.9994           0
   52545 WT3  2311 TIP3 H1   HT     0.417000        1.0080           0
   52546 WT3  2311 TIP3 H2   HT     0.417000        1.0080           0
   52547 WT3  2312 TIP3 OH2  OT    -0.834000       15.9994           0
   52548 WT3  2312 TIP3 H1   HT     0.417000        1.0080           0
   52549 WT3  2312 TIP3 H2   HT     0.417000        1.0080           0
   52550 WT3  2313 TIP3 OH2  OT    -0.834000       15.9994           0
   52551 WT3  2313 TIP3 H1   HT     0.417000        1.0080           0
   52552 WT3  2313 TIP3 H2   HT     0.417000        1.0080           0
   52553 WT3  2314 TIP3 OH2  OT    -0.834000       15.9994           0
   52554 WT3  2314 TIP3 H1   HT     0.417000        1.0080           0
   52555 WT3  2314 TIP3 H2   HT     0.417000        1.0080           0
   52556 WT3  2315 TIP3 OH2  OT    -0.834000       15.9994           0
   52557 WT3  2315 TIP3 H1   HT     0.417000        1.0080           0
   52558 WT3  2315 TIP3 H2   HT     0.417000        1.0080           0
   52559 WT3  2316 TIP3 OH2  OT    -0.834000       15.9994           0
   52560 WT3  2316 TIP3 H1   HT     0.417000        1.0080           0
   52561 WT3  2316 TIP3 H2   HT     0.417000        1.0080           0
   52562 WT3  2317 TIP3 OH2  OT    -0.834000       15.9994           0
   52563 WT3  2317 TIP3 H1   HT     0.417000        1.0080           0
   52564 WT3  2317 TIP3 H2   HT     0.417000        1.0080           0
   52565 WT3  2318 TIP3 OH2  OT    -0.834000       15.9994           0
   52566 WT3  2318 TIP3 H1   HT     0.417000        1.0080           0
   52567 WT3  2318 TIP3 H2   HT     0.417000        1.0080           0
   52568 WT3  2319 TIP3 OH2  OT    -0.834000       15.9994           0
   52569 WT3  2319 TIP3 H1   HT     0.417000        1.0080           0
   52570 WT3  2319 TIP3 H2   HT     0.417000        1.0080           0
   52571 WT3  2320 TIP3 OH2  OT    -0.834000       15.9994           0
   52572 WT3  2320 TIP3 H1   HT     0.417000        1.0080           0
   52573 WT3  2320 TIP3 H2   HT     0.417000        1.0080           0
   52574 WT3  2321 TIP3 OH2  OT    -0.834000       15.9994           0
   52575 WT3  2321 TIP3 H1   HT     0.417000        1.0080           0
   52576 WT3  2321 TIP3 H2   HT     0.417000        1.0080           0
   52577 WT3  2322 TIP3 OH2  OT    -0.834000       15.9994           0
   52578 WT3  2322 TIP3 H1   HT     0.417000        1.0080           0
   52579 WT3  2322 TIP3 H2   HT     0.417000        1.0080           0
   52580 WT3  2326 TIP3 OH2  OT    -0.834000       15.9994           0
   52581 WT3  2326 TIP3 H1   HT     0.417000        1.0080           0
   52582 WT3  2326 TIP3 H2   HT     0.417000        1.0080           0
   52583 WT3  2327 TIP3 OH2  OT    -0.834000       15.9994           0
   52584 WT3  2327 TIP3 H1   HT     0.417000        1.0080           0
   52585 WT3  2327 TIP3 H2   HT     0.417000        1.0080           0
   52586 WT3  2328 TIP3 OH2  OT    -0.834000       15.9994           0
   52587 WT3  2328 TIP3 H1   HT     0.417000        1.0080           0
   52588 WT3  2328 TIP3 H2   HT     0.417000        1.0080           0
   52589 WT3  2329 TIP3 OH2  OT    -0.834000       15.9994           0
   52590 WT3  2329 TIP3 H1   HT     0.417000        1.0080           0
   52591 WT3  2329 TIP3 H2   HT     0.417000        1.0080           0
   52592 WT3  2331 TIP3 OH2  OT    -0.834000       15.9994           0
   52593 WT3  2331 TIP3 H1   HT     0.417000        1.0080           0
   52594 WT3  2331 TIP3 H2   HT     0.417000        1.0080           0
   52595 WT3  2332 TIP3 OH2  OT    -0.834000       15.9994           0
   52596 WT3  2332 TIP3 H1   HT     0.417000        1.0080           0
   52597 WT3  2332 TIP3 H2   HT     0.417000        1.0080           0
   52598 WT3  2333 TIP3 OH2  OT    -0.834000       15.9994           0
   52599 WT3  2333 TIP3 H1   HT     0.417000        1.0080           0
   52600 WT3  2333 TIP3 H2   HT     0.417000        1.0080           0
   52601 WT3  2335 TIP3 OH2  OT    -0.834000       15.9994           0
   52602 WT3  2335 TIP3 H1   HT     0.417000        1.0080           0
   52603 WT3  2335 TIP3 H2   HT     0.417000        1.0080           0
   52604 WT3  2337 TIP3 OH2  OT    -0.834000       15.9994           0
   52605 WT3  2337 TIP3 H1   HT     0.417000        1.0080           0
   52606 WT3  2337 TIP3 H2   HT     0.417000        1.0080           0
   52607 WT3  2338 TIP3 OH2  OT    -0.834000       15.9994           0
   52608 WT3  2338 TIP3 H1   HT     0.417000        1.0080           0
   52609 WT3  2338 TIP3 H2   HT     0.417000        1.0080           0
   52610 WT3  2339 TIP3 OH2  OT    -0.834000       15.9994           0
   52611 WT3  2339 TIP3 H1   HT     0.417000        1.0080           0
   52612 WT3  2339 TIP3 H2   HT     0.417000        1.0080           0
   52613 WT3  2340 TIP3 OH2  OT    -0.834000       15.9994           0
   52614 WT3  2340 TIP3 H1   HT     0.417000        1.0080           0
   52615 WT3  2340 TIP3 H2   HT     0.417000        1.0080           0
   52616 WT3  2341 TIP3 OH2  OT    -0.834000       15.9994           0
   52617 WT3  2341 TIP3 H1   HT     0.417000        1.0080           0
   52618 WT3  2341 TIP3 H2   HT     0.417000        1.0080           0
   52619 WT3  2342 TIP3 OH2  OT    -0.834000       15.9994           0
   52620 WT3  2342 TIP3 H1   HT     0.417000        1.0080           0
   52621 WT3  2342 TIP3 H2   HT     0.417000        1.0080           0
   52622 WT3  2343 TIP3 OH2  OT    -0.834000       15.9994           0
   52623 WT3  2343 TIP3 H1   HT     0.417000        1.0080           0
   52624 WT3  2343 TIP3 H2   HT     0.417000        1.0080           0
   52625 WT3  2344 TIP3 OH2  OT    -0.834000       15.9994           0
   52626 WT3  2344 TIP3 H1   HT     0.417000        1.0080           0
   52627 WT3  2344 TIP3 H2   HT     0.417000        1.0080           0
   52628 WT3  2345 TIP3 OH2  OT    -0.834000       15.9994           0
   52629 WT3  2345 TIP3 H1   HT     0.417000        1.0080           0
   52630 WT3  2345 TIP3 H2   HT     0.417000        1.0080           0
   52631 WT3  2346 TIP3 OH2  OT    -0.834000       15.9994           0
   52632 WT3  2346 TIP3 H1   HT     0.417000        1.0080           0
   52633 WT3  2346 TIP3 H2   HT     0.417000        1.0080           0
   52634 WT3  2351 TIP3 OH2  OT    -0.834000       15.9994           0
   52635 WT3  2351 TIP3 H1   HT     0.417000        1.0080           0
   52636 WT3  2351 TIP3 H2   HT     0.417000        1.0080           0
   52637 WT3  2352 TIP3 OH2  OT    -0.834000       15.9994           0
   52638 WT3  2352 TIP3 H1   HT     0.417000        1.0080           0
   52639 WT3  2352 TIP3 H2   HT     0.417000        1.0080           0
   52640 WT3  2355 TIP3 OH2  OT    -0.834000       15.9994           0
   52641 WT3  2355 TIP3 H1   HT     0.417000        1.0080           0
   52642 WT3  2355 TIP3 H2   HT     0.417000        1.0080           0
   52643 WT3  2357 TIP3 OH2  OT    -0.834000       15.9994           0
   52644 WT3  2357 TIP3 H1   HT     0.417000        1.0080           0
   52645 WT3  2357 TIP3 H2   HT     0.417000        1.0080           0
   52646 WT3  2359 TIP3 OH2  OT    -0.834000       15.9994           0
   52647 WT3  2359 TIP3 H1   HT     0.417000        1.0080           0
   52648 WT3  2359 TIP3 H2   HT     0.417000        1.0080           0
   52649 WT3  2360 TIP3 OH2  OT    -0.834000       15.9994           0
   52650 WT3  2360 TIP3 H1   HT     0.417000        1.0080           0
   52651 WT3  2360 TIP3 H2   HT     0.417000        1.0080           0
   52652 WT3  2361 TIP3 OH2  OT    -0.834000       15.9994           0
   52653 WT3  2361 TIP3 H1   HT     0.417000        1.0080           0
   52654 WT3  2361 TIP3 H2   HT     0.417000        1.0080           0
   52655 WT3  2362 TIP3 OH2  OT    -0.834000       15.9994           0
   52656 WT3  2362 TIP3 H1   HT     0.417000        1.0080           0
   52657 WT3  2362 TIP3 H2   HT     0.417000        1.0080           0
   52658 WT3  2363 TIP3 OH2  OT    -0.834000       15.9994           0
   52659 WT3  2363 TIP3 H1   HT     0.417000        1.0080           0
   52660 WT3  2363 TIP3 H2   HT     0.417000        1.0080           0
   52661 WT3  2364 TIP3 OH2  OT    -0.834000       15.9994           0
   52662 WT3  2364 TIP3 H1   HT     0.417000        1.0080           0
   52663 WT3  2364 TIP3 H2   HT     0.417000        1.0080           0
   52664 WT3  2365 TIP3 OH2  OT    -0.834000       15.9994           0
   52665 WT3  2365 TIP3 H1   HT     0.417000        1.0080           0
   52666 WT3  2365 TIP3 H2   HT     0.417000        1.0080           0
   52667 WT3  2368 TIP3 OH2  OT    -0.834000       15.9994           0
   52668 WT3  2368 TIP3 H1   HT     0.417000        1.0080           0
   52669 WT3  2368 TIP3 H2   HT     0.417000        1.0080           0
   52670 WT3  2375 TIP3 OH2  OT    -0.834000       15.9994           0
   52671 WT3  2375 TIP3 H1   HT     0.417000        1.0080           0
   52672 WT3  2375 TIP3 H2   HT     0.417000        1.0080           0
   52673 WT3  2376 TIP3 OH2  OT    -0.834000       15.9994           0
   52674 WT3  2376 TIP3 H1   HT     0.417000        1.0080           0
   52675 WT3  2376 TIP3 H2   HT     0.417000        1.0080           0
   52676 WT3  2377 TIP3 OH2  OT    -0.834000       15.9994           0
   52677 WT3  2377 TIP3 H1   HT     0.417000        1.0080           0
   52678 WT3  2377 TIP3 H2   HT     0.417000        1.0080           0
   52679 WT3  2378 TIP3 OH2  OT    -0.834000       15.9994           0
   52680 WT3  2378 TIP3 H1   HT     0.417000        1.0080           0
   52681 WT3  2378 TIP3 H2   HT     0.417000        1.0080           0
   52682 WT3  2380 TIP3 OH2  OT    -0.834000       15.9994           0
   52683 WT3  2380 TIP3 H1   HT     0.417000        1.0080           0
   52684 WT3  2380 TIP3 H2   HT     0.417000        1.0080           0
   52685 WT3  2381 TIP3 OH2  OT    -0.834000       15.9994           0
   52686 WT3  2381 TIP3 H1   HT     0.417000        1.0080           0
   52687 WT3  2381 TIP3 H2   HT     0.417000        1.0080           0
   52688 WT3  2382 TIP3 OH2  OT    -0.834000       15.9994           0
   52689 WT3  2382 TIP3 H1   HT     0.417000        1.0080           0
   52690 WT3  2382 TIP3 H2   HT     0.417000        1.0080           0
   52691 WT3  2383 TIP3 OH2  OT    -0.834000       15.9994           0
   52692 WT3  2383 TIP3 H1   HT     0.417000        1.0080           0
   52693 WT3  2383 TIP3 H2   HT     0.417000        1.0080           0
   52694 WT3  2384 TIP3 OH2  OT    -0.834000       15.9994           0
   52695 WT3  2384 TIP3 H1   HT     0.417000        1.0080           0
   52696 WT3  2384 TIP3 H2   HT     0.417000        1.0080           0
   52697 WT3  2386 TIP3 OH2  OT    -0.834000       15.9994           0
   52698 WT3  2386 TIP3 H1   HT     0.417000        1.0080           0
   52699 WT3  2386 TIP3 H2   HT     0.417000        1.0080           0
   52700 WT3  2388 TIP3 OH2  OT    -0.834000       15.9994           0
   52701 WT3  2388 TIP3 H1   HT     0.417000        1.0080           0
   52702 WT3  2388 TIP3 H2   HT     0.417000        1.0080           0
   52703 WT3  2392 TIP3 OH2  OT    -0.834000       15.9994           0
   52704 WT3  2392 TIP3 H1   HT     0.417000        1.0080           0
   52705 WT3  2392 TIP3 H2   HT     0.417000        1.0080           0
   52706 WT3  2395 TIP3 OH2  OT    -0.834000       15.9994           0
   52707 WT3  2395 TIP3 H1   HT     0.417000        1.0080           0
   52708 WT3  2395 TIP3 H2   HT     0.417000        1.0080           0
   52709 WT3  2397 TIP3 OH2  OT    -0.834000       15.9994           0
   52710 WT3  2397 TIP3 H1   HT     0.417000        1.0080           0
   52711 WT3  2397 TIP3 H2   HT     0.417000        1.0080           0
   52712 WT3  2398 TIP3 OH2  OT    -0.834000       15.9994           0
   52713 WT3  2398 TIP3 H1   HT     0.417000        1.0080           0
   52714 WT3  2398 TIP3 H2   HT     0.417000        1.0080           0
   52715 WT3  2399 TIP3 OH2  OT    -0.834000       15.9994           0
   52716 WT3  2399 TIP3 H1   HT     0.417000        1.0080           0
   52717 WT3  2399 TIP3 H2   HT     0.417000        1.0080           0
   52718 WT3  2400 TIP3 OH2  OT    -0.834000       15.9994           0
   52719 WT3  2400 TIP3 H1   HT     0.417000        1.0080           0
   52720 WT3  2400 TIP3 H2   HT     0.417000        1.0080           0
   52721 WT3  2402 TIP3 OH2  OT    -0.834000       15.9994           0
   52722 WT3  2402 TIP3 H1   HT     0.417000        1.0080           0
   52723 WT3  2402 TIP3 H2   HT     0.417000        1.0080           0
   52724 WT3  2403 TIP3 OH2  OT    -0.834000       15.9994           0
   52725 WT3  2403 TIP3 H1   HT     0.417000        1.0080           0
   52726 WT3  2403 TIP3 H2   HT     0.417000        1.0080           0
   52727 WT3  2404 TIP3 OH2  OT    -0.834000       15.9994           0
   52728 WT3  2404 TIP3 H1   HT     0.417000        1.0080           0
   52729 WT3  2404 TIP3 H2   HT     0.417000        1.0080           0
   52730 WT3  2405 TIP3 OH2  OT    -0.834000       15.9994           0
   52731 WT3  2405 TIP3 H1   HT     0.417000        1.0080           0
   52732 WT3  2405 TIP3 H2   HT     0.417000        1.0080           0
   52733 WT3  2406 TIP3 OH2  OT    -0.834000       15.9994           0
   52734 WT3  2406 TIP3 H1   HT     0.417000        1.0080           0
   52735 WT3  2406 TIP3 H2   HT     0.417000        1.0080           0
   52736 WT3  2407 TIP3 OH2  OT    -0.834000       15.9994           0
   52737 WT3  2407 TIP3 H1   HT     0.417000        1.0080           0
   52738 WT3  2407 TIP3 H2   HT     0.417000        1.0080           0
   52739 WT3  2417 TIP3 OH2  OT    -0.834000       15.9994           0
   52740 WT3  2417 TIP3 H1   HT     0.417000        1.0080           0
   52741 WT3  2417 TIP3 H2   HT     0.417000        1.0080           0
   52742 WT3  2418 TIP3 OH2  OT    -0.834000       15.9994           0
   52743 WT3  2418 TIP3 H1   HT     0.417000        1.0080           0
   52744 WT3  2418 TIP3 H2   HT     0.417000        1.0080           0
   52745 WT3  2420 TIP3 OH2  OT    -0.834000       15.9994           0
   52746 WT3  2420 TIP3 H1   HT     0.417000        1.0080           0
   52747 WT3  2420 TIP3 H2   HT     0.417000        1.0080           0
   52748 WT3  2421 TIP3 OH2  OT    -0.834000       15.9994           0
   52749 WT3  2421 TIP3 H1   HT     0.417000        1.0080           0
   52750 WT3  2421 TIP3 H2   HT     0.417000        1.0080           0
   52751 WT3  2422 TIP3 OH2  OT    -0.834000       15.9994           0
   52752 WT3  2422 TIP3 H1   HT     0.417000        1.0080           0
   52753 WT3  2422 TIP3 H2   HT     0.417000        1.0080           0
   52754 WT3  2423 TIP3 OH2  OT    -0.834000       15.9994           0
   52755 WT3  2423 TIP3 H1   HT     0.417000        1.0080           0
   52756 WT3  2423 TIP3 H2   HT     0.417000        1.0080           0
   52757 WT3  2424 TIP3 OH2  OT    -0.834000       15.9994           0
   52758 WT3  2424 TIP3 H1   HT     0.417000        1.0080           0
   52759 WT3  2424 TIP3 H2   HT     0.417000        1.0080           0
   52760 WT3  2425 TIP3 OH2  OT    -0.834000       15.9994           0
   52761 WT3  2425 TIP3 H1   HT     0.417000        1.0080           0
   52762 WT3  2425 TIP3 H2   HT     0.417000        1.0080           0
   52763 WT3  2426 TIP3 OH2  OT    -0.834000       15.9994           0
   52764 WT3  2426 TIP3 H1   HT     0.417000        1.0080           0
   52765 WT3  2426 TIP3 H2   HT     0.417000        1.0080           0
   52766 WT3  2427 TIP3 OH2  OT    -0.834000       15.9994           0
   52767 WT3  2427 TIP3 H1   HT     0.417000        1.0080           0
   52768 WT3  2427 TIP3 H2   HT     0.417000        1.0080           0
   52769 WT3  2428 TIP3 OH2  OT    -0.834000       15.9994           0
   52770 WT3  2428 TIP3 H1   HT     0.417000        1.0080           0
   52771 WT3  2428 TIP3 H2   HT     0.417000        1.0080           0
   52772 WT3  2430 TIP3 OH2  OT    -0.834000       15.9994           0
   52773 WT3  2430 TIP3 H1   HT     0.417000        1.0080           0
   52774 WT3  2430 TIP3 H2   HT     0.417000        1.0080           0
   52775 WT3  2431 TIP3 OH2  OT    -0.834000       15.9994           0
   52776 WT3  2431 TIP3 H1   HT     0.417000        1.0080           0
   52777 WT3  2431 TIP3 H2   HT     0.417000        1.0080           0
   52778 WT3  2432 TIP3 OH2  OT    -0.834000       15.9994           0
   52779 WT3  2432 TIP3 H1   HT     0.417000        1.0080           0
   52780 WT3  2432 TIP3 H2   HT     0.417000        1.0080           0
   52781 WT3  2436 TIP3 OH2  OT    -0.834000       15.9994           0
   52782 WT3  2436 TIP3 H1   HT     0.417000        1.0080           0
   52783 WT3  2436 TIP3 H2   HT     0.417000        1.0080           0
   52784 WT3  2439 TIP3 OH2  OT    -0.834000       15.9994           0
   52785 WT3  2439 TIP3 H1   HT     0.417000        1.0080           0
   52786 WT3  2439 TIP3 H2   HT     0.417000        1.0080           0
   52787 WT3  2440 TIP3 OH2  OT    -0.834000       15.9994           0
   52788 WT3  2440 TIP3 H1   HT     0.417000        1.0080           0
   52789 WT3  2440 TIP3 H2   HT     0.417000        1.0080           0
   52790 WT3  2441 TIP3 OH2  OT    -0.834000       15.9994           0
   52791 WT3  2441 TIP3 H1   HT     0.417000        1.0080           0
   52792 WT3  2441 TIP3 H2   HT     0.417000        1.0080           0
   52793 WT3  2442 TIP3 OH2  OT    -0.834000       15.9994           0
   52794 WT3  2442 TIP3 H1   HT     0.417000        1.0080           0
   52795 WT3  2442 TIP3 H2   HT     0.417000        1.0080           0
   52796 WT3  2443 TIP3 OH2  OT    -0.834000       15.9994           0
   52797 WT3  2443 TIP3 H1   HT     0.417000        1.0080           0
   52798 WT3  2443 TIP3 H2   HT     0.417000        1.0080           0
   52799 WT3  2444 TIP3 OH2  OT    -0.834000       15.9994           0
   52800 WT3  2444 TIP3 H1   HT     0.417000        1.0080           0
   52801 WT3  2444 TIP3 H2   HT     0.417000        1.0080           0
   52802 WT3  2445 TIP3 OH2  OT    -0.834000       15.9994           0
   52803 WT3  2445 TIP3 H1   HT     0.417000        1.0080           0
   52804 WT3  2445 TIP3 H2   HT     0.417000        1.0080           0
   52805 WT3  2446 TIP3 OH2  OT    -0.834000       15.9994           0
   52806 WT3  2446 TIP3 H1   HT     0.417000        1.0080           0
   52807 WT3  2446 TIP3 H2   HT     0.417000        1.0080           0
   52808 WT3  2448 TIP3 OH2  OT    -0.834000       15.9994           0
   52809 WT3  2448 TIP3 H1   HT     0.417000        1.0080           0
   52810 WT3  2448 TIP3 H2   HT     0.417000        1.0080           0
   52811 WT3  2449 TIP3 OH2  OT    -0.834000       15.9994           0
   52812 WT3  2449 TIP3 H1   HT     0.417000        1.0080           0
   52813 WT3  2449 TIP3 H2   HT     0.417000        1.0080           0
   52814 WT3  2450 TIP3 OH2  OT    -0.834000       15.9994           0
   52815 WT3  2450 TIP3 H1   HT     0.417000        1.0080           0
   52816 WT3  2450 TIP3 H2   HT     0.417000        1.0080           0
   52817 WT3  2453 TIP3 OH2  OT    -0.834000       15.9994           0
   52818 WT3  2453 TIP3 H1   HT     0.417000        1.0080           0
   52819 WT3  2453 TIP3 H2   HT     0.417000        1.0080           0
   52820 WT3  2458 TIP3 OH2  OT    -0.834000       15.9994           0
   52821 WT3  2458 TIP3 H1   HT     0.417000        1.0080           0
   52822 WT3  2458 TIP3 H2   HT     0.417000        1.0080           0
   52823 WT3  2459 TIP3 OH2  OT    -0.834000       15.9994           0
   52824 WT3  2459 TIP3 H1   HT     0.417000        1.0080           0
   52825 WT3  2459 TIP3 H2   HT     0.417000        1.0080           0
   52826 WT3  2460 TIP3 OH2  OT    -0.834000       15.9994           0
   52827 WT3  2460 TIP3 H1   HT     0.417000        1.0080           0
   52828 WT3  2460 TIP3 H2   HT     0.417000        1.0080           0
   52829 WT3  2461 TIP3 OH2  OT    -0.834000       15.9994           0
   52830 WT3  2461 TIP3 H1   HT     0.417000        1.0080           0
   52831 WT3  2461 TIP3 H2   HT     0.417000        1.0080           0
   52832 WT3  2462 TIP3 OH2  OT    -0.834000       15.9994           0
   52833 WT3  2462 TIP3 H1   HT     0.417000        1.0080           0
   52834 WT3  2462 TIP3 H2   HT     0.417000        1.0080           0
   52835 WT3  2463 TIP3 OH2  OT    -0.834000       15.9994           0
   52836 WT3  2463 TIP3 H1   HT     0.417000        1.0080           0
   52837 WT3  2463 TIP3 H2   HT     0.417000        1.0080           0
   52838 WT3  2464 TIP3 OH2  OT    -0.834000       15.9994           0
   52839 WT3  2464 TIP3 H1   HT     0.417000        1.0080           0
   52840 WT3  2464 TIP3 H2   HT     0.417000        1.0080           0
   52841 WT3  2465 TIP3 OH2  OT    -0.834000       15.9994           0
   52842 WT3  2465 TIP3 H1   HT     0.417000        1.0080           0
   52843 WT3  2465 TIP3 H2   HT     0.417000        1.0080           0
   52844 WT3  2467 TIP3 OH2  OT    -0.834000       15.9994           0
   52845 WT3  2467 TIP3 H1   HT     0.417000        1.0080           0
   52846 WT3  2467 TIP3 H2   HT     0.417000        1.0080           0
   52847 WT3  2468 TIP3 OH2  OT    -0.834000       15.9994           0
   52848 WT3  2468 TIP3 H1   HT     0.417000        1.0080           0
   52849 WT3  2468 TIP3 H2   HT     0.417000        1.0080           0
   52850 WT3  2469 TIP3 OH2  OT    -0.834000       15.9994           0
   52851 WT3  2469 TIP3 H1   HT     0.417000        1.0080           0
   52852 WT3  2469 TIP3 H2   HT     0.417000        1.0080           0
   52853 WT3  2470 TIP3 OH2  OT    -0.834000       15.9994           0
   52854 WT3  2470 TIP3 H1   HT     0.417000        1.0080           0
   52855 WT3  2470 TIP3 H2   HT     0.417000        1.0080           0
   52856 WT3  2473 TIP3 OH2  OT    -0.834000       15.9994           0
   52857 WT3  2473 TIP3 H1   HT     0.417000        1.0080           0
   52858 WT3  2473 TIP3 H2   HT     0.417000        1.0080           0
   52859 WT3  2477 TIP3 OH2  OT    -0.834000       15.9994           0
   52860 WT3  2477 TIP3 H1   HT     0.417000        1.0080           0
   52861 WT3  2477 TIP3 H2   HT     0.417000        1.0080           0
   52862 WT3  2479 TIP3 OH2  OT    -0.834000       15.9994           0
   52863 WT3  2479 TIP3 H1   HT     0.417000        1.0080           0
   52864 WT3  2479 TIP3 H2   HT     0.417000        1.0080           0
   52865 WT3  2480 TIP3 OH2  OT    -0.834000       15.9994           0
   52866 WT3  2480 TIP3 H1   HT     0.417000        1.0080           0
   52867 WT3  2480 TIP3 H2   HT     0.417000        1.0080           0
   52868 WT3  2482 TIP3 OH2  OT    -0.834000       15.9994           0
   52869 WT3  2482 TIP3 H1   HT     0.417000        1.0080           0
   52870 WT3  2482 TIP3 H2   HT     0.417000        1.0080           0
   52871 WT3  2483 TIP3 OH2  OT    -0.834000       15.9994           0
   52872 WT3  2483 TIP3 H1   HT     0.417000        1.0080           0
   52873 WT3  2483 TIP3 H2   HT     0.417000        1.0080           0
   52874 WT3  2484 TIP3 OH2  OT    -0.834000       15.9994           0
   52875 WT3  2484 TIP3 H1   HT     0.417000        1.0080           0
   52876 WT3  2484 TIP3 H2   HT     0.417000        1.0080           0
   52877 WT3  2485 TIP3 OH2  OT    -0.834000       15.9994           0
   52878 WT3  2485 TIP3 H1   HT     0.417000        1.0080           0
   52879 WT3  2485 TIP3 H2   HT     0.417000        1.0080           0
   52880 WT3  2486 TIP3 OH2  OT    -0.834000       15.9994           0
   52881 WT3  2486 TIP3 H1   HT     0.417000        1.0080           0
   52882 WT3  2486 TIP3 H2   HT     0.417000        1.0080           0
   52883 WT3  2487 TIP3 OH2  OT    -0.834000       15.9994           0
   52884 WT3  2487 TIP3 H1   HT     0.417000        1.0080           0
   52885 WT3  2487 TIP3 H2   HT     0.417000        1.0080           0
   52886 WT3  2488 TIP3 OH2  OT    -0.834000       15.9994           0
   52887 WT3  2488 TIP3 H1   HT     0.417000        1.0080           0
   52888 WT3  2488 TIP3 H2   HT     0.417000        1.0080           0
   52889 WT3  2489 TIP3 OH2  OT    -0.834000       15.9994           0
   52890 WT3  2489 TIP3 H1   HT     0.417000        1.0080           0
   52891 WT3  2489 TIP3 H2   HT     0.417000        1.0080           0
   52892 WT3  2491 TIP3 OH2  OT    -0.834000       15.9994           0
   52893 WT3  2491 TIP3 H1   HT     0.417000        1.0080           0
   52894 WT3  2491 TIP3 H2   HT     0.417000        1.0080           0
   52895 WT3  2492 TIP3 OH2  OT    -0.834000       15.9994           0
   52896 WT3  2492 TIP3 H1   HT     0.417000        1.0080           0
   52897 WT3  2492 TIP3 H2   HT     0.417000        1.0080           0
   52898 WT3  2494 TIP3 OH2  OT    -0.834000       15.9994           0
   52899 WT3  2494 TIP3 H1   HT     0.417000        1.0080           0
   52900 WT3  2494 TIP3 H2   HT     0.417000        1.0080           0
   52901 WT3  2499 TIP3 OH2  OT    -0.834000       15.9994           0
   52902 WT3  2499 TIP3 H1   HT     0.417000        1.0080           0
   52903 WT3  2499 TIP3 H2   HT     0.417000        1.0080           0
   52904 WT3  2500 TIP3 OH2  OT    -0.834000       15.9994           0
   52905 WT3  2500 TIP3 H1   HT     0.417000        1.0080           0
   52906 WT3  2500 TIP3 H2   HT     0.417000        1.0080           0
   52907 WT3  2501 TIP3 OH2  OT    -0.834000       15.9994           0
   52908 WT3  2501 TIP3 H1   HT     0.417000        1.0080           0
   52909 WT3  2501 TIP3 H2   HT     0.417000        1.0080           0
   52910 WT3  2503 TIP3 OH2  OT    -0.834000       15.9994           0
   52911 WT3  2503 TIP3 H1   HT     0.417000        1.0080           0
   52912 WT3  2503 TIP3 H2   HT     0.417000        1.0080           0
   52913 WT3  2504 TIP3 OH2  OT    -0.834000       15.9994           0
   52914 WT3  2504 TIP3 H1   HT     0.417000        1.0080           0
   52915 WT3  2504 TIP3 H2   HT     0.417000        1.0080           0
   52916 WT3  2505 TIP3 OH2  OT    -0.834000       15.9994           0
   52917 WT3  2505 TIP3 H1   HT     0.417000        1.0080           0
   52918 WT3  2505 TIP3 H2   HT     0.417000        1.0080           0
   52919 WT3  2506 TIP3 OH2  OT    -0.834000       15.9994           0
   52920 WT3  2506 TIP3 H1   HT     0.417000        1.0080           0
   52921 WT3  2506 TIP3 H2   HT     0.417000        1.0080           0
   52922 WT3  2507 TIP3 OH2  OT    -0.834000       15.9994           0
   52923 WT3  2507 TIP3 H1   HT     0.417000        1.0080           0
   52924 WT3  2507 TIP3 H2   HT     0.417000        1.0080           0
   52925 WT3  2508 TIP3 OH2  OT    -0.834000       15.9994           0
   52926 WT3  2508 TIP3 H1   HT     0.417000        1.0080           0
   52927 WT3  2508 TIP3 H2   HT     0.417000        1.0080           0
   52928 WT3  2509 TIP3 OH2  OT    -0.834000       15.9994           0
   52929 WT3  2509 TIP3 H1   HT     0.417000        1.0080           0
   52930 WT3  2509 TIP3 H2   HT     0.417000        1.0080           0
   52931 WT3  2510 TIP3 OH2  OT    -0.834000       15.9994           0
   52932 WT3  2510 TIP3 H1   HT     0.417000        1.0080           0
   52933 WT3  2510 TIP3 H2   HT     0.417000        1.0080           0
   52934 WT3  2512 TIP3 OH2  OT    -0.834000       15.9994           0
   52935 WT3  2512 TIP3 H1   HT     0.417000        1.0080           0
   52936 WT3  2512 TIP3 H2   HT     0.417000        1.0080           0
   52937 WT3  2513 TIP3 OH2  OT    -0.834000       15.9994           0
   52938 WT3  2513 TIP3 H1   HT     0.417000        1.0080           0
   52939 WT3  2513 TIP3 H2   HT     0.417000        1.0080           0
   52940 WT3  2515 TIP3 OH2  OT    -0.834000       15.9994           0
   52941 WT3  2515 TIP3 H1   HT     0.417000        1.0080           0
   52942 WT3  2515 TIP3 H2   HT     0.417000        1.0080           0
   52943 WT3  2519 TIP3 OH2  OT    -0.834000       15.9994           0
   52944 WT3  2519 TIP3 H1   HT     0.417000        1.0080           0
   52945 WT3  2519 TIP3 H2   HT     0.417000        1.0080           0
   52946 WT3  2521 TIP3 OH2  OT    -0.834000       15.9994           0
   52947 WT3  2521 TIP3 H1   HT     0.417000        1.0080           0
   52948 WT3  2521 TIP3 H2   HT     0.417000        1.0080           0
   52949 WT3  2522 TIP3 OH2  OT    -0.834000       15.9994           0
   52950 WT3  2522 TIP3 H1   HT     0.417000        1.0080           0
   52951 WT3  2522 TIP3 H2   HT     0.417000        1.0080           0
   52952 WT3  2523 TIP3 OH2  OT    -0.834000       15.9994           0
   52953 WT3  2523 TIP3 H1   HT     0.417000        1.0080           0
   52954 WT3  2523 TIP3 H2   HT     0.417000        1.0080           0
   52955 WT3  2525 TIP3 OH2  OT    -0.834000       15.9994           0
   52956 WT3  2525 TIP3 H1   HT     0.417000        1.0080           0
   52957 WT3  2525 TIP3 H2   HT     0.417000        1.0080           0
   52958 WT3  2526 TIP3 OH2  OT    -0.834000       15.9994           0
   52959 WT3  2526 TIP3 H1   HT     0.417000        1.0080           0
   52960 WT3  2526 TIP3 H2   HT     0.417000        1.0080           0
   52961 WT3  2527 TIP3 OH2  OT    -0.834000       15.9994           0
   52962 WT3  2527 TIP3 H1   HT     0.417000        1.0080           0
   52963 WT3  2527 TIP3 H2   HT     0.417000        1.0080           0
   52964 WT3  2528 TIP3 OH2  OT    -0.834000       15.9994           0
   52965 WT3  2528 TIP3 H1   HT     0.417000        1.0080           0
   52966 WT3  2528 TIP3 H2   HT     0.417000        1.0080           0
   52967 WT3  2530 TIP3 OH2  OT    -0.834000       15.9994           0
   52968 WT3  2530 TIP3 H1   HT     0.417000        1.0080           0
   52969 WT3  2530 TIP3 H2   HT     0.417000        1.0080           0
   52970 WT3  2531 TIP3 OH2  OT    -0.834000       15.9994           0
   52971 WT3  2531 TIP3 H1   HT     0.417000        1.0080           0
   52972 WT3  2531 TIP3 H2   HT     0.417000        1.0080           0
   52973 WT3  2532 TIP3 OH2  OT    -0.834000       15.9994           0
   52974 WT3  2532 TIP3 H1   HT     0.417000        1.0080           0
   52975 WT3  2532 TIP3 H2   HT     0.417000        1.0080           0
   52976 WT3  2533 TIP3 OH2  OT    -0.834000       15.9994           0
   52977 WT3  2533 TIP3 H1   HT     0.417000        1.0080           0
   52978 WT3  2533 TIP3 H2   HT     0.417000        1.0080           0
   52979 WT3  2534 TIP3 OH2  OT    -0.834000       15.9994           0
   52980 WT3  2534 TIP3 H1   HT     0.417000        1.0080           0
   52981 WT3  2534 TIP3 H2   HT     0.417000        1.0080           0
   52982 WT3  2536 TIP3 OH2  OT    -0.834000       15.9994           0
   52983 WT3  2536 TIP3 H1   HT     0.417000        1.0080           0
   52984 WT3  2536 TIP3 H2   HT     0.417000        1.0080           0
   52985 WT3  2538 TIP3 OH2  OT    -0.834000       15.9994           0
   52986 WT3  2538 TIP3 H1   HT     0.417000        1.0080           0
   52987 WT3  2538 TIP3 H2   HT     0.417000        1.0080           0
   52988 WT3  2539 TIP3 OH2  OT    -0.834000       15.9994           0
   52989 WT3  2539 TIP3 H1   HT     0.417000        1.0080           0
   52990 WT3  2539 TIP3 H2   HT     0.417000        1.0080           0
   52991 WT3  2540 TIP3 OH2  OT    -0.834000       15.9994           0
   52992 WT3  2540 TIP3 H1   HT     0.417000        1.0080           0
   52993 WT3  2540 TIP3 H2   HT     0.417000        1.0080           0
   52994 WT3  2541 TIP3 OH2  OT    -0.834000       15.9994           0
   52995 WT3  2541 TIP3 H1   HT     0.417000        1.0080           0
   52996 WT3  2541 TIP3 H2   HT     0.417000        1.0080           0
   52997 WT3  2544 TIP3 OH2  OT    -0.834000       15.9994           0
   52998 WT3  2544 TIP3 H1   HT     0.417000        1.0080           0
   52999 WT3  2544 TIP3 H2   HT     0.417000        1.0080           0
   53000 WT3  2545 TIP3 OH2  OT    -0.834000       15.9994           0
   53001 WT3  2545 TIP3 H1   HT     0.417000        1.0080           0
   53002 WT3  2545 TIP3 H2   HT     0.417000        1.0080           0
   53003 WT3  2547 TIP3 OH2  OT    -0.834000       15.9994           0
   53004 WT3  2547 TIP3 H1   HT     0.417000        1.0080           0
   53005 WT3  2547 TIP3 H2   HT     0.417000        1.0080           0
   53006 WT3  2548 TIP3 OH2  OT    -0.834000       15.9994           0
   53007 WT3  2548 TIP3 H1   HT     0.417000        1.0080           0
   53008 WT3  2548 TIP3 H2   HT     0.417000        1.0080           0
   53009 WT3  2549 TIP3 OH2  OT    -0.834000       15.9994           0
   53010 WT3  2549 TIP3 H1   HT     0.417000        1.0080           0
   53011 WT3  2549 TIP3 H2   HT     0.417000        1.0080           0
   53012 WT3  2550 TIP3 OH2  OT    -0.834000       15.9994           0
   53013 WT3  2550 TIP3 H1   HT     0.417000        1.0080           0
   53014 WT3  2550 TIP3 H2   HT     0.417000        1.0080           0
   53015 WT3  2551 TIP3 OH2  OT    -0.834000       15.9994           0
   53016 WT3  2551 TIP3 H1   HT     0.417000        1.0080           0
   53017 WT3  2551 TIP3 H2   HT     0.417000        1.0080           0
   53018 WT3  2552 TIP3 OH2  OT    -0.834000       15.9994           0
   53019 WT3  2552 TIP3 H1   HT     0.417000        1.0080           0
   53020 WT3  2552 TIP3 H2   HT     0.417000        1.0080           0
   53021 WT3  2553 TIP3 OH2  OT    -0.834000       15.9994           0
   53022 WT3  2553 TIP3 H1   HT     0.417000        1.0080           0
   53023 WT3  2553 TIP3 H2   HT     0.417000        1.0080           0
   53024 WT3  2554 TIP3 OH2  OT    -0.834000       15.9994           0
   53025 WT3  2554 TIP3 H1   HT     0.417000        1.0080           0
   53026 WT3  2554 TIP3 H2   HT     0.417000        1.0080           0
   53027 WT3  2558 TIP3 OH2  OT    -0.834000       15.9994           0
   53028 WT3  2558 TIP3 H1   HT     0.417000        1.0080           0
   53029 WT3  2558 TIP3 H2   HT     0.417000        1.0080           0
   53030 WT3  2562 TIP3 OH2  OT    -0.834000       15.9994           0
   53031 WT3  2562 TIP3 H1   HT     0.417000        1.0080           0
   53032 WT3  2562 TIP3 H2   HT     0.417000        1.0080           0
   53033 WT3  2563 TIP3 OH2  OT    -0.834000       15.9994           0
   53034 WT3  2563 TIP3 H1   HT     0.417000        1.0080           0
   53035 WT3  2563 TIP3 H2   HT     0.417000        1.0080           0
   53036 WT3  2564 TIP3 OH2  OT    -0.834000       15.9994           0
   53037 WT3  2564 TIP3 H1   HT     0.417000        1.0080           0
   53038 WT3  2564 TIP3 H2   HT     0.417000        1.0080           0
   53039 WT3  2566 TIP3 OH2  OT    -0.834000       15.9994           0
   53040 WT3  2566 TIP3 H1   HT     0.417000        1.0080           0
   53041 WT3  2566 TIP3 H2   HT     0.417000        1.0080           0
   53042 WT3  2567 TIP3 OH2  OT    -0.834000       15.9994           0
   53043 WT3  2567 TIP3 H1   HT     0.417000        1.0080           0
   53044 WT3  2567 TIP3 H2   HT     0.417000        1.0080           0
   53045 WT3  2569 TIP3 OH2  OT    -0.834000       15.9994           0
   53046 WT3  2569 TIP3 H1   HT     0.417000        1.0080           0
   53047 WT3  2569 TIP3 H2   HT     0.417000        1.0080           0
   53048 WT3  2570 TIP3 OH2  OT    -0.834000       15.9994           0
   53049 WT3  2570 TIP3 H1   HT     0.417000        1.0080           0
   53050 WT3  2570 TIP3 H2   HT     0.417000        1.0080           0
   53051 WT3  2572 TIP3 OH2  OT    -0.834000       15.9994           0
   53052 WT3  2572 TIP3 H1   HT     0.417000        1.0080           0
   53053 WT3  2572 TIP3 H2   HT     0.417000        1.0080           0
   53054 WT3  2573 TIP3 OH2  OT    -0.834000       15.9994           0
   53055 WT3  2573 TIP3 H1   HT     0.417000        1.0080           0
   53056 WT3  2573 TIP3 H2   HT     0.417000        1.0080           0
   53057 WT3  2574 TIP3 OH2  OT    -0.834000       15.9994           0
   53058 WT3  2574 TIP3 H1   HT     0.417000        1.0080           0
   53059 WT3  2574 TIP3 H2   HT     0.417000        1.0080           0
   53060 WT3  2576 TIP3 OH2  OT    -0.834000       15.9994           0
   53061 WT3  2576 TIP3 H1   HT     0.417000        1.0080           0
   53062 WT3  2576 TIP3 H2   HT     0.417000        1.0080           0
   53063 WT3  2580 TIP3 OH2  OT    -0.834000       15.9994           0
   53064 WT3  2580 TIP3 H1   HT     0.417000        1.0080           0
   53065 WT3  2580 TIP3 H2   HT     0.417000        1.0080           0
   53066 WT3  2582 TIP3 OH2  OT    -0.834000       15.9994           0
   53067 WT3  2582 TIP3 H1   HT     0.417000        1.0080           0
   53068 WT3  2582 TIP3 H2   HT     0.417000        1.0080           0
   53069 WT3  2584 TIP3 OH2  OT    -0.834000       15.9994           0
   53070 WT3  2584 TIP3 H1   HT     0.417000        1.0080           0
   53071 WT3  2584 TIP3 H2   HT     0.417000        1.0080           0
   53072 WT3  2587 TIP3 OH2  OT    -0.834000       15.9994           0
   53073 WT3  2587 TIP3 H1   HT     0.417000        1.0080           0
   53074 WT3  2587 TIP3 H2   HT     0.417000        1.0080           0
   53075 WT3  2588 TIP3 OH2  OT    -0.834000       15.9994           0
   53076 WT3  2588 TIP3 H1   HT     0.417000        1.0080           0
   53077 WT3  2588 TIP3 H2   HT     0.417000        1.0080           0
   53078 WT3  2589 TIP3 OH2  OT    -0.834000       15.9994           0
   53079 WT3  2589 TIP3 H1   HT     0.417000        1.0080           0
   53080 WT3  2589 TIP3 H2   HT     0.417000        1.0080           0
   53081 WT3  2590 TIP3 OH2  OT    -0.834000       15.9994           0
   53082 WT3  2590 TIP3 H1   HT     0.417000        1.0080           0
   53083 WT3  2590 TIP3 H2   HT     0.417000        1.0080           0
   53084 WT3  2591 TIP3 OH2  OT    -0.834000       15.9994           0
   53085 WT3  2591 TIP3 H1   HT     0.417000        1.0080           0
   53086 WT3  2591 TIP3 H2   HT     0.417000        1.0080           0
   53087 WT3  2593 TIP3 OH2  OT    -0.834000       15.9994           0
   53088 WT3  2593 TIP3 H1   HT     0.417000        1.0080           0
   53089 WT3  2593 TIP3 H2   HT     0.417000        1.0080           0
   53090 WT3  2595 TIP3 OH2  OT    -0.834000       15.9994           0
   53091 WT3  2595 TIP3 H1   HT     0.417000        1.0080           0
   53092 WT3  2595 TIP3 H2   HT     0.417000        1.0080           0
   53093 WT3  2596 TIP3 OH2  OT    -0.834000       15.9994           0
   53094 WT3  2596 TIP3 H1   HT     0.417000        1.0080           0
   53095 WT3  2596 TIP3 H2   HT     0.417000        1.0080           0
   53096 WT3  2597 TIP3 OH2  OT    -0.834000       15.9994           0
   53097 WT3  2597 TIP3 H1   HT     0.417000        1.0080           0
   53098 WT3  2597 TIP3 H2   HT     0.417000        1.0080           0
   53099 WT3  2598 TIP3 OH2  OT    -0.834000       15.9994           0
   53100 WT3  2598 TIP3 H1   HT     0.417000        1.0080           0
   53101 WT3  2598 TIP3 H2   HT     0.417000        1.0080           0
   53102 WT3  2606 TIP3 OH2  OT    -0.834000       15.9994           0
   53103 WT3  2606 TIP3 H1   HT     0.417000        1.0080           0
   53104 WT3  2606 TIP3 H2   HT     0.417000        1.0080           0
   53105 WT3  2607 TIP3 OH2  OT    -0.834000       15.9994           0
   53106 WT3  2607 TIP3 H1   HT     0.417000        1.0080           0
   53107 WT3  2607 TIP3 H2   HT     0.417000        1.0080           0
   53108 WT3  2609 TIP3 OH2  OT    -0.834000       15.9994           0
   53109 WT3  2609 TIP3 H1   HT     0.417000        1.0080           0
   53110 WT3  2609 TIP3 H2   HT     0.417000        1.0080           0
   53111 WT3  2610 TIP3 OH2  OT    -0.834000       15.9994           0
   53112 WT3  2610 TIP3 H1   HT     0.417000        1.0080           0
   53113 WT3  2610 TIP3 H2   HT     0.417000        1.0080           0
   53114 WT3  2612 TIP3 OH2  OT    -0.834000       15.9994           0
   53115 WT3  2612 TIP3 H1   HT     0.417000        1.0080           0
   53116 WT3  2612 TIP3 H2   HT     0.417000        1.0080           0
   53117 WT3  2613 TIP3 OH2  OT    -0.834000       15.9994           0
   53118 WT3  2613 TIP3 H1   HT     0.417000        1.0080           0
   53119 WT3  2613 TIP3 H2   HT     0.417000        1.0080           0
   53120 WT3  2615 TIP3 OH2  OT    -0.834000       15.9994           0
   53121 WT3  2615 TIP3 H1   HT     0.417000        1.0080           0
   53122 WT3  2615 TIP3 H2   HT     0.417000        1.0080           0
   53123 WT3  2616 TIP3 OH2  OT    -0.834000       15.9994           0
   53124 WT3  2616 TIP3 H1   HT     0.417000        1.0080           0
   53125 WT3  2616 TIP3 H2   HT     0.417000        1.0080           0
   53126 WT3  2617 TIP3 OH2  OT    -0.834000       15.9994           0
   53127 WT3  2617 TIP3 H1   HT     0.417000        1.0080           0
   53128 WT3  2617 TIP3 H2   HT     0.417000        1.0080           0
   53129 WT3  2618 TIP3 OH2  OT    -0.834000       15.9994           0
   53130 WT3  2618 TIP3 H1   HT     0.417000        1.0080           0
   53131 WT3  2618 TIP3 H2   HT     0.417000        1.0080           0
   53132 WT3  2619 TIP3 OH2  OT    -0.834000       15.9994           0
   53133 WT3  2619 TIP3 H1   HT     0.417000        1.0080           0
   53134 WT3  2619 TIP3 H2   HT     0.417000        1.0080           0
   53135 WT3  2622 TIP3 OH2  OT    -0.834000       15.9994           0
   53136 WT3  2622 TIP3 H1   HT     0.417000        1.0080           0
   53137 WT3  2622 TIP3 H2   HT     0.417000        1.0080           0
   53138 WT3  2628 TIP3 OH2  OT    -0.834000       15.9994           0
   53139 WT3  2628 TIP3 H1   HT     0.417000        1.0080           0
   53140 WT3  2628 TIP3 H2   HT     0.417000        1.0080           0
   53141 WT3  2632 TIP3 OH2  OT    -0.834000       15.9994           0
   53142 WT3  2632 TIP3 H1   HT     0.417000        1.0080           0
   53143 WT3  2632 TIP3 H2   HT     0.417000        1.0080           0
   53144 WT3  2634 TIP3 OH2  OT    -0.834000       15.9994           0
   53145 WT3  2634 TIP3 H1   HT     0.417000        1.0080           0
   53146 WT3  2634 TIP3 H2   HT     0.417000        1.0080           0
   53147 WT3  2635 TIP3 OH2  OT    -0.834000       15.9994           0
   53148 WT3  2635 TIP3 H1   HT     0.417000        1.0080           0
   53149 WT3  2635 TIP3 H2   HT     0.417000        1.0080           0
   53150 WT3  2636 TIP3 OH2  OT    -0.834000       15.9994           0
   53151 WT3  2636 TIP3 H1   HT     0.417000        1.0080           0
   53152 WT3  2636 TIP3 H2   HT     0.417000        1.0080           0
   53153 WT3  2637 TIP3 OH2  OT    -0.834000       15.9994           0
   53154 WT3  2637 TIP3 H1   HT     0.417000        1.0080           0
   53155 WT3  2637 TIP3 H2   HT     0.417000        1.0080           0
   53156 WT3  2638 TIP3 OH2  OT    -0.834000       15.9994           0
   53157 WT3  2638 TIP3 H1   HT     0.417000        1.0080           0
   53158 WT3  2638 TIP3 H2   HT     0.417000        1.0080           0
   53159 WT3  2643 TIP3 OH2  OT    -0.834000       15.9994           0
   53160 WT3  2643 TIP3 H1   HT     0.417000        1.0080           0
   53161 WT3  2643 TIP3 H2   HT     0.417000        1.0080           0
   53162 WT3  2644 TIP3 OH2  OT    -0.834000       15.9994           0
   53163 WT3  2644 TIP3 H1   HT     0.417000        1.0080           0
   53164 WT3  2644 TIP3 H2   HT     0.417000        1.0080           0
   53165 WT3  2648 TIP3 OH2  OT    -0.834000       15.9994           0
   53166 WT3  2648 TIP3 H1   HT     0.417000        1.0080           0
   53167 WT3  2648 TIP3 H2   HT     0.417000        1.0080           0
   53168 WT3  2649 TIP3 OH2  OT    -0.834000       15.9994           0
   53169 WT3  2649 TIP3 H1   HT     0.417000        1.0080           0
   53170 WT3  2649 TIP3 H2   HT     0.417000        1.0080           0
   53171 WT3  2650 TIP3 OH2  OT    -0.834000       15.9994           0
   53172 WT3  2650 TIP3 H1   HT     0.417000        1.0080           0
   53173 WT3  2650 TIP3 H2   HT     0.417000        1.0080           0
   53174 WT3  2651 TIP3 OH2  OT    -0.834000       15.9994           0
   53175 WT3  2651 TIP3 H1   HT     0.417000        1.0080           0
   53176 WT3  2651 TIP3 H2   HT     0.417000        1.0080           0
   53177 WT3  2653 TIP3 OH2  OT    -0.834000       15.9994           0
   53178 WT3  2653 TIP3 H1   HT     0.417000        1.0080           0
   53179 WT3  2653 TIP3 H2   HT     0.417000        1.0080           0
   53180 WT3  2654 TIP3 OH2  OT    -0.834000       15.9994           0
   53181 WT3  2654 TIP3 H1   HT     0.417000        1.0080           0
   53182 WT3  2654 TIP3 H2   HT     0.417000        1.0080           0
   53183 WT3  2655 TIP3 OH2  OT    -0.834000       15.9994           0
   53184 WT3  2655 TIP3 H1   HT     0.417000        1.0080           0
   53185 WT3  2655 TIP3 H2   HT     0.417000        1.0080           0
   53186 WT3  2656 TIP3 OH2  OT    -0.834000       15.9994           0
   53187 WT3  2656 TIP3 H1   HT     0.417000        1.0080           0
   53188 WT3  2656 TIP3 H2   HT     0.417000        1.0080           0
   53189 WT3  2657 TIP3 OH2  OT    -0.834000       15.9994           0
   53190 WT3  2657 TIP3 H1   HT     0.417000        1.0080           0
   53191 WT3  2657 TIP3 H2   HT     0.417000        1.0080           0
   53192 WT3  2658 TIP3 OH2  OT    -0.834000       15.9994           0
   53193 WT3  2658 TIP3 H1   HT     0.417000        1.0080           0
   53194 WT3  2658 TIP3 H2   HT     0.417000        1.0080           0
   53195 WT3  2662 TIP3 OH2  OT    -0.834000       15.9994           0
   53196 WT3  2662 TIP3 H1   HT     0.417000        1.0080           0
   53197 WT3  2662 TIP3 H2   HT     0.417000        1.0080           0
   53198 WT3  2663 TIP3 OH2  OT    -0.834000       15.9994           0
   53199 WT3  2663 TIP3 H1   HT     0.417000        1.0080           0
   53200 WT3  2663 TIP3 H2   HT     0.417000        1.0080           0
   53201 WT3  2667 TIP3 OH2  OT    -0.834000       15.9994           0
   53202 WT3  2667 TIP3 H1   HT     0.417000        1.0080           0
   53203 WT3  2667 TIP3 H2   HT     0.417000        1.0080           0
   53204 WT3  2668 TIP3 OH2  OT    -0.834000       15.9994           0
   53205 WT3  2668 TIP3 H1   HT     0.417000        1.0080           0
   53206 WT3  2668 TIP3 H2   HT     0.417000        1.0080           0
   53207 WT3  2669 TIP3 OH2  OT    -0.834000       15.9994           0
   53208 WT3  2669 TIP3 H1   HT     0.417000        1.0080           0
   53209 WT3  2669 TIP3 H2   HT     0.417000        1.0080           0
   53210 WT3  2670 TIP3 OH2  OT    -0.834000       15.9994           0
   53211 WT3  2670 TIP3 H1   HT     0.417000        1.0080           0
   53212 WT3  2670 TIP3 H2   HT     0.417000        1.0080           0
   53213 WT3  2672 TIP3 OH2  OT    -0.834000       15.9994           0
   53214 WT3  2672 TIP3 H1   HT     0.417000        1.0080           0
   53215 WT3  2672 TIP3 H2   HT     0.417000        1.0080           0
   53216 WT3  2673 TIP3 OH2  OT    -0.834000       15.9994           0
   53217 WT3  2673 TIP3 H1   HT     0.417000        1.0080           0
   53218 WT3  2673 TIP3 H2   HT     0.417000        1.0080           0
   53219 WT3  2674 TIP3 OH2  OT    -0.834000       15.9994           0
   53220 WT3  2674 TIP3 H1   HT     0.417000        1.0080           0
   53221 WT3  2674 TIP3 H2   HT     0.417000        1.0080           0
   53222 WT3  2675 TIP3 OH2  OT    -0.834000       15.9994           0
   53223 WT3  2675 TIP3 H1   HT     0.417000        1.0080           0
   53224 WT3  2675 TIP3 H2   HT     0.417000        1.0080           0
   53225 WT3  2677 TIP3 OH2  OT    -0.834000       15.9994           0
   53226 WT3  2677 TIP3 H1   HT     0.417000        1.0080           0
   53227 WT3  2677 TIP3 H2   HT     0.417000        1.0080           0
   53228 WT3  2678 TIP3 OH2  OT    -0.834000       15.9994           0
   53229 WT3  2678 TIP3 H1   HT     0.417000        1.0080           0
   53230 WT3  2678 TIP3 H2   HT     0.417000        1.0080           0
   53231 WT3  2679 TIP3 OH2  OT    -0.834000       15.9994           0
   53232 WT3  2679 TIP3 H1   HT     0.417000        1.0080           0
   53233 WT3  2679 TIP3 H2   HT     0.417000        1.0080           0
   53234 WT3  2680 TIP3 OH2  OT    -0.834000       15.9994           0
   53235 WT3  2680 TIP3 H1   HT     0.417000        1.0080           0
   53236 WT3  2680 TIP3 H2   HT     0.417000        1.0080           0
   53237 WT3  2681 TIP3 OH2  OT    -0.834000       15.9994           0
   53238 WT3  2681 TIP3 H1   HT     0.417000        1.0080           0
   53239 WT3  2681 TIP3 H2   HT     0.417000        1.0080           0
   53240 WT3  2682 TIP3 OH2  OT    -0.834000       15.9994           0
   53241 WT3  2682 TIP3 H1   HT     0.417000        1.0080           0
   53242 WT3  2682 TIP3 H2   HT     0.417000        1.0080           0
   53243 WT3  2683 TIP3 OH2  OT    -0.834000       15.9994           0
   53244 WT3  2683 TIP3 H1   HT     0.417000        1.0080           0
   53245 WT3  2683 TIP3 H2   HT     0.417000        1.0080           0
   53246 WT3  2684 TIP3 OH2  OT    -0.834000       15.9994           0
   53247 WT3  2684 TIP3 H1   HT     0.417000        1.0080           0
   53248 WT3  2684 TIP3 H2   HT     0.417000        1.0080           0
   53249 WT3  2689 TIP3 OH2  OT    -0.834000       15.9994           0
   53250 WT3  2689 TIP3 H1   HT     0.417000        1.0080           0
   53251 WT3  2689 TIP3 H2   HT     0.417000        1.0080           0
   53252 WT3  2690 TIP3 OH2  OT    -0.834000       15.9994           0
   53253 WT3  2690 TIP3 H1   HT     0.417000        1.0080           0
   53254 WT3  2690 TIP3 H2   HT     0.417000        1.0080           0
   53255 WT3  2691 TIP3 OH2  OT    -0.834000       15.9994           0
   53256 WT3  2691 TIP3 H1   HT     0.417000        1.0080           0
   53257 WT3  2691 TIP3 H2   HT     0.417000        1.0080           0
   53258 WT3  2692 TIP3 OH2  OT    -0.834000       15.9994           0
   53259 WT3  2692 TIP3 H1   HT     0.417000        1.0080           0
   53260 WT3  2692 TIP3 H2   HT     0.417000        1.0080           0
   53261 WT3  2693 TIP3 OH2  OT    -0.834000       15.9994           0
   53262 WT3  2693 TIP3 H1   HT     0.417000        1.0080           0
   53263 WT3  2693 TIP3 H2   HT     0.417000        1.0080           0
   53264 WT3  2694 TIP3 OH2  OT    -0.834000       15.9994           0
   53265 WT3  2694 TIP3 H1   HT     0.417000        1.0080           0
   53266 WT3  2694 TIP3 H2   HT     0.417000        1.0080           0
   53267 WT3  2695 TIP3 OH2  OT    -0.834000       15.9994           0
   53268 WT3  2695 TIP3 H1   HT     0.417000        1.0080           0
   53269 WT3  2695 TIP3 H2   HT     0.417000        1.0080           0
   53270 WT3  2696 TIP3 OH2  OT    -0.834000       15.9994           0
   53271 WT3  2696 TIP3 H1   HT     0.417000        1.0080           0
   53272 WT3  2696 TIP3 H2   HT     0.417000        1.0080           0
   53273 WT3  2697 TIP3 OH2  OT    -0.834000       15.9994           0
   53274 WT3  2697 TIP3 H1   HT     0.417000        1.0080           0
   53275 WT3  2697 TIP3 H2   HT     0.417000        1.0080           0
   53276 WT3  2699 TIP3 OH2  OT    -0.834000       15.9994           0
   53277 WT3  2699 TIP3 H1   HT     0.417000        1.0080           0
   53278 WT3  2699 TIP3 H2   HT     0.417000        1.0080           0
   53279 WT3  2700 TIP3 OH2  OT    -0.834000       15.9994           0
   53280 WT3  2700 TIP3 H1   HT     0.417000        1.0080           0
   53281 WT3  2700 TIP3 H2   HT     0.417000        1.0080           0
   53282 WT3  2701 TIP3 OH2  OT    -0.834000       15.9994           0
   53283 WT3  2701 TIP3 H1   HT     0.417000        1.0080           0
   53284 WT3  2701 TIP3 H2   HT     0.417000        1.0080           0
   53285 WT3  2702 TIP3 OH2  OT    -0.834000       15.9994           0
   53286 WT3  2702 TIP3 H1   HT     0.417000        1.0080           0
   53287 WT3  2702 TIP3 H2   HT     0.417000        1.0080           0
   53288 WT3  2703 TIP3 OH2  OT    -0.834000       15.9994           0
   53289 WT3  2703 TIP3 H1   HT     0.417000        1.0080           0
   53290 WT3  2703 TIP3 H2   HT     0.417000        1.0080           0
   53291 WT3  2704 TIP3 OH2  OT    -0.834000       15.9994           0
   53292 WT3  2704 TIP3 H1   HT     0.417000        1.0080           0
   53293 WT3  2704 TIP3 H2   HT     0.417000        1.0080           0
   53294 WT3  2709 TIP3 OH2  OT    -0.834000       15.9994           0
   53295 WT3  2709 TIP3 H1   HT     0.417000        1.0080           0
   53296 WT3  2709 TIP3 H2   HT     0.417000        1.0080           0
   53297 WT3  2710 TIP3 OH2  OT    -0.834000       15.9994           0
   53298 WT3  2710 TIP3 H1   HT     0.417000        1.0080           0
   53299 WT3  2710 TIP3 H2   HT     0.417000        1.0080           0
   53300 WT3  2712 TIP3 OH2  OT    -0.834000       15.9994           0
   53301 WT3  2712 TIP3 H1   HT     0.417000        1.0080           0
   53302 WT3  2712 TIP3 H2   HT     0.417000        1.0080           0
   53303 WT3  2713 TIP3 OH2  OT    -0.834000       15.9994           0
   53304 WT3  2713 TIP3 H1   HT     0.417000        1.0080           0
   53305 WT3  2713 TIP3 H2   HT     0.417000        1.0080           0
   53306 WT3  2714 TIP3 OH2  OT    -0.834000       15.9994           0
   53307 WT3  2714 TIP3 H1   HT     0.417000        1.0080           0
   53308 WT3  2714 TIP3 H2   HT     0.417000        1.0080           0
   53309 WT3  2715 TIP3 OH2  OT    -0.834000       15.9994           0
   53310 WT3  2715 TIP3 H1   HT     0.417000        1.0080           0
   53311 WT3  2715 TIP3 H2   HT     0.417000        1.0080           0
   53312 WT3  2716 TIP3 OH2  OT    -0.834000       15.9994           0
   53313 WT3  2716 TIP3 H1   HT     0.417000        1.0080           0
   53314 WT3  2716 TIP3 H2   HT     0.417000        1.0080           0
   53315 WT3  2717 TIP3 OH2  OT    -0.834000       15.9994           0
   53316 WT3  2717 TIP3 H1   HT     0.417000        1.0080           0
   53317 WT3  2717 TIP3 H2   HT     0.417000        1.0080           0
   53318 WT3  2718 TIP3 OH2  OT    -0.834000       15.9994           0
   53319 WT3  2718 TIP3 H1   HT     0.417000        1.0080           0
   53320 WT3  2718 TIP3 H2   HT     0.417000        1.0080           0
   53321 WT3  2719 TIP3 OH2  OT    -0.834000       15.9994           0
   53322 WT3  2719 TIP3 H1   HT     0.417000        1.0080           0
   53323 WT3  2719 TIP3 H2   HT     0.417000        1.0080           0
   53324 WT3  2720 TIP3 OH2  OT    -0.834000       15.9994           0
   53325 WT3  2720 TIP3 H1   HT     0.417000        1.0080           0
   53326 WT3  2720 TIP3 H2   HT     0.417000        1.0080           0
   53327 WT3  2721 TIP3 OH2  OT    -0.834000       15.9994           0
   53328 WT3  2721 TIP3 H1   HT     0.417000        1.0080           0
   53329 WT3  2721 TIP3 H2   HT     0.417000        1.0080           0
   53330 WT3  2722 TIP3 OH2  OT    -0.834000       15.9994           0
   53331 WT3  2722 TIP3 H1   HT     0.417000        1.0080           0
   53332 WT3  2722 TIP3 H2   HT     0.417000        1.0080           0
   53333 WT3  2723 TIP3 OH2  OT    -0.834000       15.9994           0
   53334 WT3  2723 TIP3 H1   HT     0.417000        1.0080           0
   53335 WT3  2723 TIP3 H2   HT     0.417000        1.0080           0
   53336 WT3  2724 TIP3 OH2  OT    -0.834000       15.9994           0
   53337 WT3  2724 TIP3 H1   HT     0.417000        1.0080           0
   53338 WT3  2724 TIP3 H2   HT     0.417000        1.0080           0
   53339 WT3  2732 TIP3 OH2  OT    -0.834000       15.9994           0
   53340 WT3  2732 TIP3 H1   HT     0.417000        1.0080           0
   53341 WT3  2732 TIP3 H2   HT     0.417000        1.0080           0
   53342 WT3  2734 TIP3 OH2  OT    -0.834000       15.9994           0
   53343 WT3  2734 TIP3 H1   HT     0.417000        1.0080           0
   53344 WT3  2734 TIP3 H2   HT     0.417000        1.0080           0
   53345 WT3  2735 TIP3 OH2  OT    -0.834000       15.9994           0
   53346 WT3  2735 TIP3 H1   HT     0.417000        1.0080           0
   53347 WT3  2735 TIP3 H2   HT     0.417000        1.0080           0
   53348 WT3  2736 TIP3 OH2  OT    -0.834000       15.9994           0
   53349 WT3  2736 TIP3 H1   HT     0.417000        1.0080           0
   53350 WT3  2736 TIP3 H2   HT     0.417000        1.0080           0
   53351 WT3  2737 TIP3 OH2  OT    -0.834000       15.9994           0
   53352 WT3  2737 TIP3 H1   HT     0.417000        1.0080           0
   53353 WT3  2737 TIP3 H2   HT     0.417000        1.0080           0
   53354 WT3  2738 TIP3 OH2  OT    -0.834000       15.9994           0
   53355 WT3  2738 TIP3 H1   HT     0.417000        1.0080           0
   53356 WT3  2738 TIP3 H2   HT     0.417000        1.0080           0
   53357 WT3  2739 TIP3 OH2  OT    -0.834000       15.9994           0
   53358 WT3  2739 TIP3 H1   HT     0.417000        1.0080           0
   53359 WT3  2739 TIP3 H2   HT     0.417000        1.0080           0
   53360 WT3  2740 TIP3 OH2  OT    -0.834000       15.9994           0
   53361 WT3  2740 TIP3 H1   HT     0.417000        1.0080           0
   53362 WT3  2740 TIP3 H2   HT     0.417000        1.0080           0
   53363 WT3  2743 TIP3 OH2  OT    -0.834000       15.9994           0
   53364 WT3  2743 TIP3 H1   HT     0.417000        1.0080           0
   53365 WT3  2743 TIP3 H2   HT     0.417000        1.0080           0
   53366 WT3  2744 TIP3 OH2  OT    -0.834000       15.9994           0
   53367 WT3  2744 TIP3 H1   HT     0.417000        1.0080           0
   53368 WT3  2744 TIP3 H2   HT     0.417000        1.0080           0
   53369 WT3  2746 TIP3 OH2  OT    -0.834000       15.9994           0
   53370 WT3  2746 TIP3 H1   HT     0.417000        1.0080           0
   53371 WT3  2746 TIP3 H2   HT     0.417000        1.0080           0
   53372 WT3  2753 TIP3 OH2  OT    -0.834000       15.9994           0
   53373 WT3  2753 TIP3 H1   HT     0.417000        1.0080           0
   53374 WT3  2753 TIP3 H2   HT     0.417000        1.0080           0
   53375 WT3  2754 TIP3 OH2  OT    -0.834000       15.9994           0
   53376 WT3  2754 TIP3 H1   HT     0.417000        1.0080           0
   53377 WT3  2754 TIP3 H2   HT     0.417000        1.0080           0
   53378 WT3  2755 TIP3 OH2  OT    -0.834000       15.9994           0
   53379 WT3  2755 TIP3 H1   HT     0.417000        1.0080           0
   53380 WT3  2755 TIP3 H2   HT     0.417000        1.0080           0
   53381 WT3  2756 TIP3 OH2  OT    -0.834000       15.9994           0
   53382 WT3  2756 TIP3 H1   HT     0.417000        1.0080           0
   53383 WT3  2756 TIP3 H2   HT     0.417000        1.0080           0
   53384 WT3  2758 TIP3 OH2  OT    -0.834000       15.9994           0
   53385 WT3  2758 TIP3 H1   HT     0.417000        1.0080           0
   53386 WT3  2758 TIP3 H2   HT     0.417000        1.0080           0
   53387 WT3  2760 TIP3 OH2  OT    -0.834000       15.9994           0
   53388 WT3  2760 TIP3 H1   HT     0.417000        1.0080           0
   53389 WT3  2760 TIP3 H2   HT     0.417000        1.0080           0
   53390 WT3  2762 TIP3 OH2  OT    -0.834000       15.9994           0
   53391 WT3  2762 TIP3 H1   HT     0.417000        1.0080           0
   53392 WT3  2762 TIP3 H2   HT     0.417000        1.0080           0
   53393 WT3  2767 TIP3 OH2  OT    -0.834000       15.9994           0
   53394 WT3  2767 TIP3 H1   HT     0.417000        1.0080           0
   53395 WT3  2767 TIP3 H2   HT     0.417000        1.0080           0
   53396 WT3  2771 TIP3 OH2  OT    -0.834000       15.9994           0
   53397 WT3  2771 TIP3 H1   HT     0.417000        1.0080           0
   53398 WT3  2771 TIP3 H2   HT     0.417000        1.0080           0
   53399 WT3  2776 TIP3 OH2  OT    -0.834000       15.9994           0
   53400 WT3  2776 TIP3 H1   HT     0.417000        1.0080           0
   53401 WT3  2776 TIP3 H2   HT     0.417000        1.0080           0
   53402 WT3  2777 TIP3 OH2  OT    -0.834000       15.9994           0
   53403 WT3  2777 TIP3 H1   HT     0.417000        1.0080           0
   53404 WT3  2777 TIP3 H2   HT     0.417000        1.0080           0
   53405 WT3  2779 TIP3 OH2  OT    -0.834000       15.9994           0
   53406 WT3  2779 TIP3 H1   HT     0.417000        1.0080           0
   53407 WT3  2779 TIP3 H2   HT     0.417000        1.0080           0
   53408 WT3  2780 TIP3 OH2  OT    -0.834000       15.9994           0
   53409 WT3  2780 TIP3 H1   HT     0.417000        1.0080           0
   53410 WT3  2780 TIP3 H2   HT     0.417000        1.0080           0
   53411 WT3  2782 TIP3 OH2  OT    -0.834000       15.9994           0
   53412 WT3  2782 TIP3 H1   HT     0.417000        1.0080           0
   53413 WT3  2782 TIP3 H2   HT     0.417000        1.0080           0
   53414 WT3  2783 TIP3 OH2  OT    -0.834000       15.9994           0
   53415 WT3  2783 TIP3 H1   HT     0.417000        1.0080           0
   53416 WT3  2783 TIP3 H2   HT     0.417000        1.0080           0
   53417 WT3  2784 TIP3 OH2  OT    -0.834000       15.9994           0
   53418 WT3  2784 TIP3 H1   HT     0.417000        1.0080           0
   53419 WT3  2784 TIP3 H2   HT     0.417000        1.0080           0
   53420 WT3  2785 TIP3 OH2  OT    -0.834000       15.9994           0
   53421 WT3  2785 TIP3 H1   HT     0.417000        1.0080           0
   53422 WT3  2785 TIP3 H2   HT     0.417000        1.0080           0
   53423 WT3  2786 TIP3 OH2  OT    -0.834000       15.9994           0
   53424 WT3  2786 TIP3 H1   HT     0.417000        1.0080           0
   53425 WT3  2786 TIP3 H2   HT     0.417000        1.0080           0
   53426 WT3  2790 TIP3 OH2  OT    -0.834000       15.9994           0
   53427 WT3  2790 TIP3 H1   HT     0.417000        1.0080           0
   53428 WT3  2790 TIP3 H2   HT     0.417000        1.0080           0
   53429 WT3  2793 TIP3 OH2  OT    -0.834000       15.9994           0
   53430 WT3  2793 TIP3 H1   HT     0.417000        1.0080           0
   53431 WT3  2793 TIP3 H2   HT     0.417000        1.0080           0
   53432 WT3  2794 TIP3 OH2  OT    -0.834000       15.9994           0
   53433 WT3  2794 TIP3 H1   HT     0.417000        1.0080           0
   53434 WT3  2794 TIP3 H2   HT     0.417000        1.0080           0
   53435 WT3  2795 TIP3 OH2  OT    -0.834000       15.9994           0
   53436 WT3  2795 TIP3 H1   HT     0.417000        1.0080           0
   53437 WT3  2795 TIP3 H2   HT     0.417000        1.0080           0
   53438 WT3  2796 TIP3 OH2  OT    -0.834000       15.9994           0
   53439 WT3  2796 TIP3 H1   HT     0.417000        1.0080           0
   53440 WT3  2796 TIP3 H2   HT     0.417000        1.0080           0
   53441 WT3  2798 TIP3 OH2  OT    -0.834000       15.9994           0
   53442 WT3  2798 TIP3 H1   HT     0.417000        1.0080           0
   53443 WT3  2798 TIP3 H2   HT     0.417000        1.0080           0
   53444 WT3  2799 TIP3 OH2  OT    -0.834000       15.9994           0
   53445 WT3  2799 TIP3 H1   HT     0.417000        1.0080           0
   53446 WT3  2799 TIP3 H2   HT     0.417000        1.0080           0
   53447 WT3  2801 TIP3 OH2  OT    -0.834000       15.9994           0
   53448 WT3  2801 TIP3 H1   HT     0.417000        1.0080           0
   53449 WT3  2801 TIP3 H2   HT     0.417000        1.0080           0
   53450 WT3  2802 TIP3 OH2  OT    -0.834000       15.9994           0
   53451 WT3  2802 TIP3 H1   HT     0.417000        1.0080           0
   53452 WT3  2802 TIP3 H2   HT     0.417000        1.0080           0
   53453 WT3  2803 TIP3 OH2  OT    -0.834000       15.9994           0
   53454 WT3  2803 TIP3 H1   HT     0.417000        1.0080           0
   53455 WT3  2803 TIP3 H2   HT     0.417000        1.0080           0
   53456 WT3  2805 TIP3 OH2  OT    -0.834000       15.9994           0
   53457 WT3  2805 TIP3 H1   HT     0.417000        1.0080           0
   53458 WT3  2805 TIP3 H2   HT     0.417000        1.0080           0
   53459 WT3  2806 TIP3 OH2  OT    -0.834000       15.9994           0
   53460 WT3  2806 TIP3 H1   HT     0.417000        1.0080           0
   53461 WT3  2806 TIP3 H2   HT     0.417000        1.0080           0
   53462 WT3  2807 TIP3 OH2  OT    -0.834000       15.9994           0
   53463 WT3  2807 TIP3 H1   HT     0.417000        1.0080           0
   53464 WT3  2807 TIP3 H2   HT     0.417000        1.0080           0
   53465 WT3  2808 TIP3 OH2  OT    -0.834000       15.9994           0
   53466 WT3  2808 TIP3 H1   HT     0.417000        1.0080           0
   53467 WT3  2808 TIP3 H2   HT     0.417000        1.0080           0
   53468 WT3  2809 TIP3 OH2  OT    -0.834000       15.9994           0
   53469 WT3  2809 TIP3 H1   HT     0.417000        1.0080           0
   53470 WT3  2809 TIP3 H2   HT     0.417000        1.0080           0
   53471 WT3  2814 TIP3 OH2  OT    -0.834000       15.9994           0
   53472 WT3  2814 TIP3 H1   HT     0.417000        1.0080           0
   53473 WT3  2814 TIP3 H2   HT     0.417000        1.0080           0
   53474 WT3  2815 TIP3 OH2  OT    -0.834000       15.9994           0
   53475 WT3  2815 TIP3 H1   HT     0.417000        1.0080           0
   53476 WT3  2815 TIP3 H2   HT     0.417000        1.0080           0
   53477 WT3  2817 TIP3 OH2  OT    -0.834000       15.9994           0
   53478 WT3  2817 TIP3 H1   HT     0.417000        1.0080           0
   53479 WT3  2817 TIP3 H2   HT     0.417000        1.0080           0
   53480 WT3  2818 TIP3 OH2  OT    -0.834000       15.9994           0
   53481 WT3  2818 TIP3 H1   HT     0.417000        1.0080           0
   53482 WT3  2818 TIP3 H2   HT     0.417000        1.0080           0
   53483 WT3  2820 TIP3 OH2  OT    -0.834000       15.9994           0
   53484 WT3  2820 TIP3 H1   HT     0.417000        1.0080           0
   53485 WT3  2820 TIP3 H2   HT     0.417000        1.0080           0
   53486 WT3  2821 TIP3 OH2  OT    -0.834000       15.9994           0
   53487 WT3  2821 TIP3 H1   HT     0.417000        1.0080           0
   53488 WT3  2821 TIP3 H2   HT     0.417000        1.0080           0
   53489 WT3  2822 TIP3 OH2  OT    -0.834000       15.9994           0
   53490 WT3  2822 TIP3 H1   HT     0.417000        1.0080           0
   53491 WT3  2822 TIP3 H2   HT     0.417000        1.0080           0
   53492 WT3  2823 TIP3 OH2  OT    -0.834000       15.9994           0
   53493 WT3  2823 TIP3 H1   HT     0.417000        1.0080           0
   53494 WT3  2823 TIP3 H2   HT     0.417000        1.0080           0
   53495 WT3  2824 TIP3 OH2  OT    -0.834000       15.9994           0
   53496 WT3  2824 TIP3 H1   HT     0.417000        1.0080           0
   53497 WT3  2824 TIP3 H2   HT     0.417000        1.0080           0
   53498 WT3  2825 TIP3 OH2  OT    -0.834000       15.9994           0
   53499 WT3  2825 TIP3 H1   HT     0.417000        1.0080           0
   53500 WT3  2825 TIP3 H2   HT     0.417000        1.0080           0
   53501 WT3  2826 TIP3 OH2  OT    -0.834000       15.9994           0
   53502 WT3  2826 TIP3 H1   HT     0.417000        1.0080           0
   53503 WT3  2826 TIP3 H2   HT     0.417000        1.0080           0
   53504 WT3  2827 TIP3 OH2  OT    -0.834000       15.9994           0
   53505 WT3  2827 TIP3 H1   HT     0.417000        1.0080           0
   53506 WT3  2827 TIP3 H2   HT     0.417000        1.0080           0
   53507 WT3  2829 TIP3 OH2  OT    -0.834000       15.9994           0
   53508 WT3  2829 TIP3 H1   HT     0.417000        1.0080           0
   53509 WT3  2829 TIP3 H2   HT     0.417000        1.0080           0
   53510 WT3  2831 TIP3 OH2  OT    -0.834000       15.9994           0
   53511 WT3  2831 TIP3 H1   HT     0.417000        1.0080           0
   53512 WT3  2831 TIP3 H2   HT     0.417000        1.0080           0
   53513 WT3  2832 TIP3 OH2  OT    -0.834000       15.9994           0
   53514 WT3  2832 TIP3 H1   HT     0.417000        1.0080           0
   53515 WT3  2832 TIP3 H2   HT     0.417000        1.0080           0
   53516 WT3  2838 TIP3 OH2  OT    -0.834000       15.9994           0
   53517 WT3  2838 TIP3 H1   HT     0.417000        1.0080           0
   53518 WT3  2838 TIP3 H2   HT     0.417000        1.0080           0
   53519 WT3  2839 TIP3 OH2  OT    -0.834000       15.9994           0
   53520 WT3  2839 TIP3 H1   HT     0.417000        1.0080           0
   53521 WT3  2839 TIP3 H2   HT     0.417000        1.0080           0
   53522 WT3  2840 TIP3 OH2  OT    -0.834000       15.9994           0
   53523 WT3  2840 TIP3 H1   HT     0.417000        1.0080           0
   53524 WT3  2840 TIP3 H2   HT     0.417000        1.0080           0
   53525 WT3  2841 TIP3 OH2  OT    -0.834000       15.9994           0
   53526 WT3  2841 TIP3 H1   HT     0.417000        1.0080           0
   53527 WT3  2841 TIP3 H2   HT     0.417000        1.0080           0
   53528 WT3  2842 TIP3 OH2  OT    -0.834000       15.9994           0
   53529 WT3  2842 TIP3 H1   HT     0.417000        1.0080           0
   53530 WT3  2842 TIP3 H2   HT     0.417000        1.0080           0
   53531 WT3  2843 TIP3 OH2  OT    -0.834000       15.9994           0
   53532 WT3  2843 TIP3 H1   HT     0.417000        1.0080           0
   53533 WT3  2843 TIP3 H2   HT     0.417000        1.0080           0
   53534 WT3  2844 TIP3 OH2  OT    -0.834000       15.9994           0
   53535 WT3  2844 TIP3 H1   HT     0.417000        1.0080           0
   53536 WT3  2844 TIP3 H2   HT     0.417000        1.0080           0
   53537 WT3  2845 TIP3 OH2  OT    -0.834000       15.9994           0
   53538 WT3  2845 TIP3 H1   HT     0.417000        1.0080           0
   53539 WT3  2845 TIP3 H2   HT     0.417000        1.0080           0
   53540 WT3  2846 TIP3 OH2  OT    -0.834000       15.9994           0
   53541 WT3  2846 TIP3 H1   HT     0.417000        1.0080           0
   53542 WT3  2846 TIP3 H2   HT     0.417000        1.0080           0
   53543 WT3  2847 TIP3 OH2  OT    -0.834000       15.9994           0
   53544 WT3  2847 TIP3 H1   HT     0.417000        1.0080           0
   53545 WT3  2847 TIP3 H2   HT     0.417000        1.0080           0
   53546 WT3  2848 TIP3 OH2  OT    -0.834000       15.9994           0
   53547 WT3  2848 TIP3 H1   HT     0.417000        1.0080           0
   53548 WT3  2848 TIP3 H2   HT     0.417000        1.0080           0
   53549 WT3  2853 TIP3 OH2  OT    -0.834000       15.9994           0
   53550 WT3  2853 TIP3 H1   HT     0.417000        1.0080           0
   53551 WT3  2853 TIP3 H2   HT     0.417000        1.0080           0
   53552 WT3  2857 TIP3 OH2  OT    -0.834000       15.9994           0
   53553 WT3  2857 TIP3 H1   HT     0.417000        1.0080           0
   53554 WT3  2857 TIP3 H2   HT     0.417000        1.0080           0
   53555 WT3  2858 TIP3 OH2  OT    -0.834000       15.9994           0
   53556 WT3  2858 TIP3 H1   HT     0.417000        1.0080           0
   53557 WT3  2858 TIP3 H2   HT     0.417000        1.0080           0
   53558 WT3  2859 TIP3 OH2  OT    -0.834000       15.9994           0
   53559 WT3  2859 TIP3 H1   HT     0.417000        1.0080           0
   53560 WT3  2859 TIP3 H2   HT     0.417000        1.0080           0
   53561 WT3  2860 TIP3 OH2  OT    -0.834000       15.9994           0
   53562 WT3  2860 TIP3 H1   HT     0.417000        1.0080           0
   53563 WT3  2860 TIP3 H2   HT     0.417000        1.0080           0
   53564 WT3  2861 TIP3 OH2  OT    -0.834000       15.9994           0
   53565 WT3  2861 TIP3 H1   HT     0.417000        1.0080           0
   53566 WT3  2861 TIP3 H2   HT     0.417000        1.0080           0
   53567 WT3  2862 TIP3 OH2  OT    -0.834000       15.9994           0
   53568 WT3  2862 TIP3 H1   HT     0.417000        1.0080           0
   53569 WT3  2862 TIP3 H2   HT     0.417000        1.0080           0
   53570 WT3  2863 TIP3 OH2  OT    -0.834000       15.9994           0
   53571 WT3  2863 TIP3 H1   HT     0.417000        1.0080           0
   53572 WT3  2863 TIP3 H2   HT     0.417000        1.0080           0
   53573 WT3  2864 TIP3 OH2  OT    -0.834000       15.9994           0
   53574 WT3  2864 TIP3 H1   HT     0.417000        1.0080           0
   53575 WT3  2864 TIP3 H2   HT     0.417000        1.0080           0
   53576 WT3  2865 TIP3 OH2  OT    -0.834000       15.9994           0
   53577 WT3  2865 TIP3 H1   HT     0.417000        1.0080           0
   53578 WT3  2865 TIP3 H2   HT     0.417000        1.0080           0
   53579 WT3  2866 TIP3 OH2  OT    -0.834000       15.9994           0
   53580 WT3  2866 TIP3 H1   HT     0.417000        1.0080           0
   53581 WT3  2866 TIP3 H2   HT     0.417000        1.0080           0
   53582 WT3  2869 TIP3 OH2  OT    -0.834000       15.9994           0
   53583 WT3  2869 TIP3 H1   HT     0.417000        1.0080           0
   53584 WT3  2869 TIP3 H2   HT     0.417000        1.0080           0
   53585 WT3  2871 TIP3 OH2  OT    -0.834000       15.9994           0
   53586 WT3  2871 TIP3 H1   HT     0.417000        1.0080           0
   53587 WT3  2871 TIP3 H2   HT     0.417000        1.0080           0
   53588 WT3  2874 TIP3 OH2  OT    -0.834000       15.9994           0
   53589 WT3  2874 TIP3 H1   HT     0.417000        1.0080           0
   53590 WT3  2874 TIP3 H2   HT     0.417000        1.0080           0
   53591 WT3  2877 TIP3 OH2  OT    -0.834000       15.9994           0
   53592 WT3  2877 TIP3 H1   HT     0.417000        1.0080           0
   53593 WT3  2877 TIP3 H2   HT     0.417000        1.0080           0
   53594 WT3  2878 TIP3 OH2  OT    -0.834000       15.9994           0
   53595 WT3  2878 TIP3 H1   HT     0.417000        1.0080           0
   53596 WT3  2878 TIP3 H2   HT     0.417000        1.0080           0
   53597 WT3  2880 TIP3 OH2  OT    -0.834000       15.9994           0
   53598 WT3  2880 TIP3 H1   HT     0.417000        1.0080           0
   53599 WT3  2880 TIP3 H2   HT     0.417000        1.0080           0
   53600 WT3  2883 TIP3 OH2  OT    -0.834000       15.9994           0
   53601 WT3  2883 TIP3 H1   HT     0.417000        1.0080           0
   53602 WT3  2883 TIP3 H2   HT     0.417000        1.0080           0
   53603 WT3  2884 TIP3 OH2  OT    -0.834000       15.9994           0
   53604 WT3  2884 TIP3 H1   HT     0.417000        1.0080           0
   53605 WT3  2884 TIP3 H2   HT     0.417000        1.0080           0
   53606 WT3  2885 TIP3 OH2  OT    -0.834000       15.9994           0
   53607 WT3  2885 TIP3 H1   HT     0.417000        1.0080           0
   53608 WT3  2885 TIP3 H2   HT     0.417000        1.0080           0
   53609 WT3  2886 TIP3 OH2  OT    -0.834000       15.9994           0
   53610 WT3  2886 TIP3 H1   HT     0.417000        1.0080           0
   53611 WT3  2886 TIP3 H2   HT     0.417000        1.0080           0
   53612 WT3  2887 TIP3 OH2  OT    -0.834000       15.9994           0
   53613 WT3  2887 TIP3 H1   HT     0.417000        1.0080           0
   53614 WT3  2887 TIP3 H2   HT     0.417000        1.0080           0
   53615 WT3  2888 TIP3 OH2  OT    -0.834000       15.9994           0
   53616 WT3  2888 TIP3 H1   HT     0.417000        1.0080           0
   53617 WT3  2888 TIP3 H2   HT     0.417000        1.0080           0
   53618 WT3  2890 TIP3 OH2  OT    -0.834000       15.9994           0
   53619 WT3  2890 TIP3 H1   HT     0.417000        1.0080           0
   53620 WT3  2890 TIP3 H2   HT     0.417000        1.0080           0
   53621 WT3  2893 TIP3 OH2  OT    -0.834000       15.9994           0
   53622 WT3  2893 TIP3 H1   HT     0.417000        1.0080           0
   53623 WT3  2893 TIP3 H2   HT     0.417000        1.0080           0
   53624 WT3  2897 TIP3 OH2  OT    -0.834000       15.9994           0
   53625 WT3  2897 TIP3 H1   HT     0.417000        1.0080           0
   53626 WT3  2897 TIP3 H2   HT     0.417000        1.0080           0
   53627 WT3  2899 TIP3 OH2  OT    -0.834000       15.9994           0
   53628 WT3  2899 TIP3 H1   HT     0.417000        1.0080           0
   53629 WT3  2899 TIP3 H2   HT     0.417000        1.0080           0
   53630 WT3  2900 TIP3 OH2  OT    -0.834000       15.9994           0
   53631 WT3  2900 TIP3 H1   HT     0.417000        1.0080           0
   53632 WT3  2900 TIP3 H2   HT     0.417000        1.0080           0
   53633 WT3  2901 TIP3 OH2  OT    -0.834000       15.9994           0
   53634 WT3  2901 TIP3 H1   HT     0.417000        1.0080           0
   53635 WT3  2901 TIP3 H2   HT     0.417000        1.0080           0
   53636 WT3  2902 TIP3 OH2  OT    -0.834000       15.9994           0
   53637 WT3  2902 TIP3 H1   HT     0.417000        1.0080           0
   53638 WT3  2902 TIP3 H2   HT     0.417000        1.0080           0
   53639 WT3  2903 TIP3 OH2  OT    -0.834000       15.9994           0
   53640 WT3  2903 TIP3 H1   HT     0.417000        1.0080           0
   53641 WT3  2903 TIP3 H2   HT     0.417000        1.0080           0
   53642 WT3  2904 TIP3 OH2  OT    -0.834000       15.9994           0
   53643 WT3  2904 TIP3 H1   HT     0.417000        1.0080           0
   53644 WT3  2904 TIP3 H2   HT     0.417000        1.0080           0
   53645 WT3  2905 TIP3 OH2  OT    -0.834000       15.9994           0
   53646 WT3  2905 TIP3 H1   HT     0.417000        1.0080           0
   53647 WT3  2905 TIP3 H2   HT     0.417000        1.0080           0
   53648 WT3  2906 TIP3 OH2  OT    -0.834000       15.9994           0
   53649 WT3  2906 TIP3 H1   HT     0.417000        1.0080           0
   53650 WT3  2906 TIP3 H2   HT     0.417000        1.0080           0
   53651 WT3  2907 TIP3 OH2  OT    -0.834000       15.9994           0
   53652 WT3  2907 TIP3 H1   HT     0.417000        1.0080           0
   53653 WT3  2907 TIP3 H2   HT     0.417000        1.0080           0
   53654 WT3  2911 TIP3 OH2  OT    -0.834000       15.9994           0
   53655 WT3  2911 TIP3 H1   HT     0.417000        1.0080           0
   53656 WT3  2911 TIP3 H2   HT     0.417000        1.0080           0
   53657 WT3  2913 TIP3 OH2  OT    -0.834000       15.9994           0
   53658 WT3  2913 TIP3 H1   HT     0.417000        1.0080           0
   53659 WT3  2913 TIP3 H2   HT     0.417000        1.0080           0
   53660 WT3  2915 TIP3 OH2  OT    -0.834000       15.9994           0
   53661 WT3  2915 TIP3 H1   HT     0.417000        1.0080           0
   53662 WT3  2915 TIP3 H2   HT     0.417000        1.0080           0
   53663 WT3  2918 TIP3 OH2  OT    -0.834000       15.9994           0
   53664 WT3  2918 TIP3 H1   HT     0.417000        1.0080           0
   53665 WT3  2918 TIP3 H2   HT     0.417000        1.0080           0
   53666 WT3  2919 TIP3 OH2  OT    -0.834000       15.9994           0
   53667 WT3  2919 TIP3 H1   HT     0.417000        1.0080           0
   53668 WT3  2919 TIP3 H2   HT     0.417000        1.0080           0
   53669 WT3  2920 TIP3 OH2  OT    -0.834000       15.9994           0
   53670 WT3  2920 TIP3 H1   HT     0.417000        1.0080           0
   53671 WT3  2920 TIP3 H2   HT     0.417000        1.0080           0
   53672 WT3  2922 TIP3 OH2  OT    -0.834000       15.9994           0
   53673 WT3  2922 TIP3 H1   HT     0.417000        1.0080           0
   53674 WT3  2922 TIP3 H2   HT     0.417000        1.0080           0
   53675 WT3  2924 TIP3 OH2  OT    -0.834000       15.9994           0
   53676 WT3  2924 TIP3 H1   HT     0.417000        1.0080           0
   53677 WT3  2924 TIP3 H2   HT     0.417000        1.0080           0
   53678 WT3  2925 TIP3 OH2  OT    -0.834000       15.9994           0
   53679 WT3  2925 TIP3 H1   HT     0.417000        1.0080           0
   53680 WT3  2925 TIP3 H2   HT     0.417000        1.0080           0
   53681 WT3  2926 TIP3 OH2  OT    -0.834000       15.9994           0
   53682 WT3  2926 TIP3 H1   HT     0.417000        1.0080           0
   53683 WT3  2926 TIP3 H2   HT     0.417000        1.0080           0
   53684 WT3  2927 TIP3 OH2  OT    -0.834000       15.9994           0
   53685 WT3  2927 TIP3 H1   HT     0.417000        1.0080           0
   53686 WT3  2927 TIP3 H2   HT     0.417000        1.0080           0
   53687 WT3  2928 TIP3 OH2  OT    -0.834000       15.9994           0
   53688 WT3  2928 TIP3 H1   HT     0.417000        1.0080           0
   53689 WT3  2928 TIP3 H2   HT     0.417000        1.0080           0
   53690 WT3  2929 TIP3 OH2  OT    -0.834000       15.9994           0
   53691 WT3  2929 TIP3 H1   HT     0.417000        1.0080           0
   53692 WT3  2929 TIP3 H2   HT     0.417000        1.0080           0
   53693 WT3  2930 TIP3 OH2  OT    -0.834000       15.9994           0
   53694 WT3  2930 TIP3 H1   HT     0.417000        1.0080           0
   53695 WT3  2930 TIP3 H2   HT     0.417000        1.0080           0
   53696 WT3  2931 TIP3 OH2  OT    -0.834000       15.9994           0
   53697 WT3  2931 TIP3 H1   HT     0.417000        1.0080           0
   53698 WT3  2931 TIP3 H2   HT     0.417000        1.0080           0
   53699 WT3  2932 TIP3 OH2  OT    -0.834000       15.9994           0
   53700 WT3  2932 TIP3 H1   HT     0.417000        1.0080           0
   53701 WT3  2932 TIP3 H2   HT     0.417000        1.0080           0
   53702 WT3  2933 TIP3 OH2  OT    -0.834000       15.9994           0
   53703 WT3  2933 TIP3 H1   HT     0.417000        1.0080           0
   53704 WT3  2933 TIP3 H2   HT     0.417000        1.0080           0
   53705 WT3  2934 TIP3 OH2  OT    -0.834000       15.9994           0
   53706 WT3  2934 TIP3 H1   HT     0.417000        1.0080           0
   53707 WT3  2934 TIP3 H2   HT     0.417000        1.0080           0
   53708 WT3  2938 TIP3 OH2  OT    -0.834000       15.9994           0
   53709 WT3  2938 TIP3 H1   HT     0.417000        1.0080           0
   53710 WT3  2938 TIP3 H2   HT     0.417000        1.0080           0
   53711 WT3  2942 TIP3 OH2  OT    -0.834000       15.9994           0
   53712 WT3  2942 TIP3 H1   HT     0.417000        1.0080           0
   53713 WT3  2942 TIP3 H2   HT     0.417000        1.0080           0
   53714 WT3  2946 TIP3 OH2  OT    -0.834000       15.9994           0
   53715 WT3  2946 TIP3 H1   HT     0.417000        1.0080           0
   53716 WT3  2946 TIP3 H2   HT     0.417000        1.0080           0
   53717 WT3  2947 TIP3 OH2  OT    -0.834000       15.9994           0
   53718 WT3  2947 TIP3 H1   HT     0.417000        1.0080           0
   53719 WT3  2947 TIP3 H2   HT     0.417000        1.0080           0
   53720 WT3  2948 TIP3 OH2  OT    -0.834000       15.9994           0
   53721 WT3  2948 TIP3 H1   HT     0.417000        1.0080           0
   53722 WT3  2948 TIP3 H2   HT     0.417000        1.0080           0
   53723 WT3  2949 TIP3 OH2  OT    -0.834000       15.9994           0
   53724 WT3  2949 TIP3 H1   HT     0.417000        1.0080           0
   53725 WT3  2949 TIP3 H2   HT     0.417000        1.0080           0
   53726 WT3  2952 TIP3 OH2  OT    -0.834000       15.9994           0
   53727 WT3  2952 TIP3 H1   HT     0.417000        1.0080           0
   53728 WT3  2952 TIP3 H2   HT     0.417000        1.0080           0
   53729 WT3  2953 TIP3 OH2  OT    -0.834000       15.9994           0
   53730 WT3  2953 TIP3 H1   HT     0.417000        1.0080           0
   53731 WT3  2953 TIP3 H2   HT     0.417000        1.0080           0
   53732 WT3  2955 TIP3 OH2  OT    -0.834000       15.9994           0
   53733 WT3  2955 TIP3 H1   HT     0.417000        1.0080           0
   53734 WT3  2955 TIP3 H2   HT     0.417000        1.0080           0
   53735 WT3  2960 TIP3 OH2  OT    -0.834000       15.9994           0
   53736 WT3  2960 TIP3 H1   HT     0.417000        1.0080           0
   53737 WT3  2960 TIP3 H2   HT     0.417000        1.0080           0
   53738 WT3  2961 TIP3 OH2  OT    -0.834000       15.9994           0
   53739 WT3  2961 TIP3 H1   HT     0.417000        1.0080           0
   53740 WT3  2961 TIP3 H2   HT     0.417000        1.0080           0
   53741 WT3  2963 TIP3 OH2  OT    -0.834000       15.9994           0
   53742 WT3  2963 TIP3 H1   HT     0.417000        1.0080           0
   53743 WT3  2963 TIP3 H2   HT     0.417000        1.0080           0
   53744 WT3  2964 TIP3 OH2  OT    -0.834000       15.9994           0
   53745 WT3  2964 TIP3 H1   HT     0.417000        1.0080           0
   53746 WT3  2964 TIP3 H2   HT     0.417000        1.0080           0
   53747 WT3  2965 TIP3 OH2  OT    -0.834000       15.9994           0
   53748 WT3  2965 TIP3 H1   HT     0.417000        1.0080           0
   53749 WT3  2965 TIP3 H2   HT     0.417000        1.0080           0
   53750 WT3  2966 TIP3 OH2  OT    -0.834000       15.9994           0
   53751 WT3  2966 TIP3 H1   HT     0.417000        1.0080           0
   53752 WT3  2966 TIP3 H2   HT     0.417000        1.0080           0
   53753 WT3  2967 TIP3 OH2  OT    -0.834000       15.9994           0
   53754 WT3  2967 TIP3 H1   HT     0.417000        1.0080           0
   53755 WT3  2967 TIP3 H2   HT     0.417000        1.0080           0
   53756 WT3  2968 TIP3 OH2  OT    -0.834000       15.9994           0
   53757 WT3  2968 TIP3 H1   HT     0.417000        1.0080           0
   53758 WT3  2968 TIP3 H2   HT     0.417000        1.0080           0
   53759 WT3  2969 TIP3 OH2  OT    -0.834000       15.9994           0
   53760 WT3  2969 TIP3 H1   HT     0.417000        1.0080           0
   53761 WT3  2969 TIP3 H2   HT     0.417000        1.0080           0
   53762 WT3  2970 TIP3 OH2  OT    -0.834000       15.9994           0
   53763 WT3  2970 TIP3 H1   HT     0.417000        1.0080           0
   53764 WT3  2970 TIP3 H2   HT     0.417000        1.0080           0
   53765 WT3  2975 TIP3 OH2  OT    -0.834000       15.9994           0
   53766 WT3  2975 TIP3 H1   HT     0.417000        1.0080           0
   53767 WT3  2975 TIP3 H2   HT     0.417000        1.0080           0
   53768 WT3  2978 TIP3 OH2  OT    -0.834000       15.9994           0
   53769 WT3  2978 TIP3 H1   HT     0.417000        1.0080           0
   53770 WT3  2978 TIP3 H2   HT     0.417000        1.0080           0
   53771 WT3  2979 TIP3 OH2  OT    -0.834000       15.9994           0
   53772 WT3  2979 TIP3 H1   HT     0.417000        1.0080           0
   53773 WT3  2979 TIP3 H2   HT     0.417000        1.0080           0
   53774 WT3  2983 TIP3 OH2  OT    -0.834000       15.9994           0
   53775 WT3  2983 TIP3 H1   HT     0.417000        1.0080           0
   53776 WT3  2983 TIP3 H2   HT     0.417000        1.0080           0
   53777 WT3  2984 TIP3 OH2  OT    -0.834000       15.9994           0
   53778 WT3  2984 TIP3 H1   HT     0.417000        1.0080           0
   53779 WT3  2984 TIP3 H2   HT     0.417000        1.0080           0
   53780 WT3  2986 TIP3 OH2  OT    -0.834000       15.9994           0
   53781 WT3  2986 TIP3 H1   HT     0.417000        1.0080           0
   53782 WT3  2986 TIP3 H2   HT     0.417000        1.0080           0
   53783 WT3  2987 TIP3 OH2  OT    -0.834000       15.9994           0
   53784 WT3  2987 TIP3 H1   HT     0.417000        1.0080           0
   53785 WT3  2987 TIP3 H2   HT     0.417000        1.0080           0
   53786 WT3  2988 TIP3 OH2  OT    -0.834000       15.9994           0
   53787 WT3  2988 TIP3 H1   HT     0.417000        1.0080           0
   53788 WT3  2988 TIP3 H2   HT     0.417000        1.0080           0
   53789 WT3  2990 TIP3 OH2  OT    -0.834000       15.9994           0
   53790 WT3  2990 TIP3 H1   HT     0.417000        1.0080           0
   53791 WT3  2990 TIP3 H2   HT     0.417000        1.0080           0
   53792 WT3  2991 TIP3 OH2  OT    -0.834000       15.9994           0
   53793 WT3  2991 TIP3 H1   HT     0.417000        1.0080           0
   53794 WT3  2991 TIP3 H2   HT     0.417000        1.0080           0
   53795 WT3  2992 TIP3 OH2  OT    -0.834000       15.9994           0
   53796 WT3  2992 TIP3 H1   HT     0.417000        1.0080           0
   53797 WT3  2992 TIP3 H2   HT     0.417000        1.0080           0
   53798 WT3  2993 TIP3 OH2  OT    -0.834000       15.9994           0
   53799 WT3  2993 TIP3 H1   HT     0.417000        1.0080           0
   53800 WT3  2993 TIP3 H2   HT     0.417000        1.0080           0
   53801 WT3  2994 TIP3 OH2  OT    -0.834000       15.9994           0
   53802 WT3  2994 TIP3 H1   HT     0.417000        1.0080           0
   53803 WT3  2994 TIP3 H2   HT     0.417000        1.0080           0
   53804 WT3  2995 TIP3 OH2  OT    -0.834000       15.9994           0
   53805 WT3  2995 TIP3 H1   HT     0.417000        1.0080           0
   53806 WT3  2995 TIP3 H2   HT     0.417000        1.0080           0
   53807 WT3  2996 TIP3 OH2  OT    -0.834000       15.9994           0
   53808 WT3  2996 TIP3 H1   HT     0.417000        1.0080           0
   53809 WT3  2996 TIP3 H2   HT     0.417000        1.0080           0
   53810 WT3  3002 TIP3 OH2  OT    -0.834000       15.9994           0
   53811 WT3  3002 TIP3 H1   HT     0.417000        1.0080           0
   53812 WT3  3002 TIP3 H2   HT     0.417000        1.0080           0
   53813 WT3  3006 TIP3 OH2  OT    -0.834000       15.9994           0
   53814 WT3  3006 TIP3 H1   HT     0.417000        1.0080           0
   53815 WT3  3006 TIP3 H2   HT     0.417000        1.0080           0
   53816 WT3  3007 TIP3 OH2  OT    -0.834000       15.9994           0
   53817 WT3  3007 TIP3 H1   HT     0.417000        1.0080           0
   53818 WT3  3007 TIP3 H2   HT     0.417000        1.0080           0
   53819 WT3  3008 TIP3 OH2  OT    -0.834000       15.9994           0
   53820 WT3  3008 TIP3 H1   HT     0.417000        1.0080           0
   53821 WT3  3008 TIP3 H2   HT     0.417000        1.0080           0
   53822 WT3  3009 TIP3 OH2  OT    -0.834000       15.9994           0
   53823 WT3  3009 TIP3 H1   HT     0.417000        1.0080           0
   53824 WT3  3009 TIP3 H2   HT     0.417000        1.0080           0
   53825 WT3  3010 TIP3 OH2  OT    -0.834000       15.9994           0
   53826 WT3  3010 TIP3 H1   HT     0.417000        1.0080           0
   53827 WT3  3010 TIP3 H2   HT     0.417000        1.0080           0
   53828 WT3  3011 TIP3 OH2  OT    -0.834000       15.9994           0
   53829 WT3  3011 TIP3 H1   HT     0.417000        1.0080           0
   53830 WT3  3011 TIP3 H2   HT     0.417000        1.0080           0
   53831 WT3  3012 TIP3 OH2  OT    -0.834000       15.9994           0
   53832 WT3  3012 TIP3 H1   HT     0.417000        1.0080           0
   53833 WT3  3012 TIP3 H2   HT     0.417000        1.0080           0
   53834 WT3  3013 TIP3 OH2  OT    -0.834000       15.9994           0
   53835 WT3  3013 TIP3 H1   HT     0.417000        1.0080           0
   53836 WT3  3013 TIP3 H2   HT     0.417000        1.0080           0
   53837 WT3  3015 TIP3 OH2  OT    -0.834000       15.9994           0
   53838 WT3  3015 TIP3 H1   HT     0.417000        1.0080           0
   53839 WT3  3015 TIP3 H2   HT     0.417000        1.0080           0
   53840 WT3  3016 TIP3 OH2  OT    -0.834000       15.9994           0
   53841 WT3  3016 TIP3 H1   HT     0.417000        1.0080           0
   53842 WT3  3016 TIP3 H2   HT     0.417000        1.0080           0
   53843 WT3  3017 TIP3 OH2  OT    -0.834000       15.9994           0
   53844 WT3  3017 TIP3 H1   HT     0.417000        1.0080           0
   53845 WT3  3017 TIP3 H2   HT     0.417000        1.0080           0
   53846 WT3  3018 TIP3 OH2  OT    -0.834000       15.9994           0
   53847 WT3  3018 TIP3 H1   HT     0.417000        1.0080           0
   53848 WT3  3018 TIP3 H2   HT     0.417000        1.0080           0
   53849 WT3  3019 TIP3 OH2  OT    -0.834000       15.9994           0
   53850 WT3  3019 TIP3 H1   HT     0.417000        1.0080           0
   53851 WT3  3019 TIP3 H2   HT     0.417000        1.0080           0
   53852 WT3  3022 TIP3 OH2  OT    -0.834000       15.9994           0
   53853 WT3  3022 TIP3 H1   HT     0.417000        1.0080           0
   53854 WT3  3022 TIP3 H2   HT     0.417000        1.0080           0
   53855 WT3  3027 TIP3 OH2  OT    -0.834000       15.9994           0
   53856 WT3  3027 TIP3 H1   HT     0.417000        1.0080           0
   53857 WT3  3027 TIP3 H2   HT     0.417000        1.0080           0
   53858 WT3  3028 TIP3 OH2  OT    -0.834000       15.9994           0
   53859 WT3  3028 TIP3 H1   HT     0.417000        1.0080           0
   53860 WT3  3028 TIP3 H2   HT     0.417000        1.0080           0
   53861 WT3  3029 TIP3 OH2  OT    -0.834000       15.9994           0
   53862 WT3  3029 TIP3 H1   HT     0.417000        1.0080           0
   53863 WT3  3029 TIP3 H2   HT     0.417000        1.0080           0
   53864 WT3  3030 TIP3 OH2  OT    -0.834000       15.9994           0
   53865 WT3  3030 TIP3 H1   HT     0.417000        1.0080           0
   53866 WT3  3030 TIP3 H2   HT     0.417000        1.0080           0
   53867 WT3  3031 TIP3 OH2  OT    -0.834000       15.9994           0
   53868 WT3  3031 TIP3 H1   HT     0.417000        1.0080           0
   53869 WT3  3031 TIP3 H2   HT     0.417000        1.0080           0
   53870 WT3  3033 TIP3 OH2  OT    -0.834000       15.9994           0
   53871 WT3  3033 TIP3 H1   HT     0.417000        1.0080           0
   53872 WT3  3033 TIP3 H2   HT     0.417000        1.0080           0
   53873 WT3  3034 TIP3 OH2  OT    -0.834000       15.9994           0
   53874 WT3  3034 TIP3 H1   HT     0.417000        1.0080           0
   53875 WT3  3034 TIP3 H2   HT     0.417000        1.0080           0
   53876 WT3  3035 TIP3 OH2  OT    -0.834000       15.9994           0
   53877 WT3  3035 TIP3 H1   HT     0.417000        1.0080           0
   53878 WT3  3035 TIP3 H2   HT     0.417000        1.0080           0
   53879 WT3  3037 TIP3 OH2  OT    -0.834000       15.9994           0
   53880 WT3  3037 TIP3 H1   HT     0.417000        1.0080           0
   53881 WT3  3037 TIP3 H2   HT     0.417000        1.0080           0
   53882 WT3  3040 TIP3 OH2  OT    -0.834000       15.9994           0
   53883 WT3  3040 TIP3 H1   HT     0.417000        1.0080           0
   53884 WT3  3040 TIP3 H2   HT     0.417000        1.0080           0
   53885 WT3  3046 TIP3 OH2  OT    -0.834000       15.9994           0
   53886 WT3  3046 TIP3 H1   HT     0.417000        1.0080           0
   53887 WT3  3046 TIP3 H2   HT     0.417000        1.0080           0
   53888 WT3  3048 TIP3 OH2  OT    -0.834000       15.9994           0
   53889 WT3  3048 TIP3 H1   HT     0.417000        1.0080           0
   53890 WT3  3048 TIP3 H2   HT     0.417000        1.0080           0
   53891 WT3  3049 TIP3 OH2  OT    -0.834000       15.9994           0
   53892 WT3  3049 TIP3 H1   HT     0.417000        1.0080           0
   53893 WT3  3049 TIP3 H2   HT     0.417000        1.0080           0
   53894 WT3  3050 TIP3 OH2  OT    -0.834000       15.9994           0
   53895 WT3  3050 TIP3 H1   HT     0.417000        1.0080           0
   53896 WT3  3050 TIP3 H2   HT     0.417000        1.0080           0
   53897 WT3  3051 TIP3 OH2  OT    -0.834000       15.9994           0
   53898 WT3  3051 TIP3 H1   HT     0.417000        1.0080           0
   53899 WT3  3051 TIP3 H2   HT     0.417000        1.0080           0
   53900 WT3  3052 TIP3 OH2  OT    -0.834000       15.9994           0
   53901 WT3  3052 TIP3 H1   HT     0.417000        1.0080           0
   53902 WT3  3052 TIP3 H2   HT     0.417000        1.0080           0
   53903 WT3  3053 TIP3 OH2  OT    -0.834000       15.9994           0
   53904 WT3  3053 TIP3 H1   HT     0.417000        1.0080           0
   53905 WT3  3053 TIP3 H2   HT     0.417000        1.0080           0
   53906 WT3  3054 TIP3 OH2  OT    -0.834000       15.9994           0
   53907 WT3  3054 TIP3 H1   HT     0.417000        1.0080           0
   53908 WT3  3054 TIP3 H2   HT     0.417000        1.0080           0
   53909 WT3  3055 TIP3 OH2  OT    -0.834000       15.9994           0
   53910 WT3  3055 TIP3 H1   HT     0.417000        1.0080           0
   53911 WT3  3055 TIP3 H2   HT     0.417000        1.0080           0
   53912 WT3  3056 TIP3 OH2  OT    -0.834000       15.9994           0
   53913 WT3  3056 TIP3 H1   HT     0.417000        1.0080           0
   53914 WT3  3056 TIP3 H2   HT     0.417000        1.0080           0
   53915 WT3  3057 TIP3 OH2  OT    -0.834000       15.9994           0
   53916 WT3  3057 TIP3 H1   HT     0.417000        1.0080           0
   53917 WT3  3057 TIP3 H2   HT     0.417000        1.0080           0
   53918 WT3  3067 TIP3 OH2  OT    -0.834000       15.9994           0
   53919 WT3  3067 TIP3 H1   HT     0.417000        1.0080           0
   53920 WT3  3067 TIP3 H2   HT     0.417000        1.0080           0
   53921 WT3  3069 TIP3 OH2  OT    -0.834000       15.9994           0
   53922 WT3  3069 TIP3 H1   HT     0.417000        1.0080           0
   53923 WT3  3069 TIP3 H2   HT     0.417000        1.0080           0
   53924 WT3  3070 TIP3 OH2  OT    -0.834000       15.9994           0
   53925 WT3  3070 TIP3 H1   HT     0.417000        1.0080           0
   53926 WT3  3070 TIP3 H2   HT     0.417000        1.0080           0
   53927 WT3  3071 TIP3 OH2  OT    -0.834000       15.9994           0
   53928 WT3  3071 TIP3 H1   HT     0.417000        1.0080           0
   53929 WT3  3071 TIP3 H2   HT     0.417000        1.0080           0
   53930 WT3  3072 TIP3 OH2  OT    -0.834000       15.9994           0
   53931 WT3  3072 TIP3 H1   HT     0.417000        1.0080           0
   53932 WT3  3072 TIP3 H2   HT     0.417000        1.0080           0
   53933 WT3  3073 TIP3 OH2  OT    -0.834000       15.9994           0
   53934 WT3  3073 TIP3 H1   HT     0.417000        1.0080           0
   53935 WT3  3073 TIP3 H2   HT     0.417000        1.0080           0
   53936 WT3  3074 TIP3 OH2  OT    -0.834000       15.9994           0
   53937 WT3  3074 TIP3 H1   HT     0.417000        1.0080           0
   53938 WT3  3074 TIP3 H2   HT     0.417000        1.0080           0
   53939 WT3  3075 TIP3 OH2  OT    -0.834000       15.9994           0
   53940 WT3  3075 TIP3 H1   HT     0.417000        1.0080           0
   53941 WT3  3075 TIP3 H2   HT     0.417000        1.0080           0
   53942 WT3  3076 TIP3 OH2  OT    -0.834000       15.9994           0
   53943 WT3  3076 TIP3 H1   HT     0.417000        1.0080           0
   53944 WT3  3076 TIP3 H2   HT     0.417000        1.0080           0
   53945 WT3  3077 TIP3 OH2  OT    -0.834000       15.9994           0
   53946 WT3  3077 TIP3 H1   HT     0.417000        1.0080           0
   53947 WT3  3077 TIP3 H2   HT     0.417000        1.0080           0
   53948 WT3  3078 TIP3 OH2  OT    -0.834000       15.9994           0
   53949 WT3  3078 TIP3 H1   HT     0.417000        1.0080           0
   53950 WT3  3078 TIP3 H2   HT     0.417000        1.0080           0
   53951 WT3  3079 TIP3 OH2  OT    -0.834000       15.9994           0
   53952 WT3  3079 TIP3 H1   HT     0.417000        1.0080           0
   53953 WT3  3079 TIP3 H2   HT     0.417000        1.0080           0
   53954 WT3  3081 TIP3 OH2  OT    -0.834000       15.9994           0
   53955 WT3  3081 TIP3 H1   HT     0.417000        1.0080           0
   53956 WT3  3081 TIP3 H2   HT     0.417000        1.0080           0
   53957 WT3  3085 TIP3 OH2  OT    -0.834000       15.9994           0
   53958 WT3  3085 TIP3 H1   HT     0.417000        1.0080           0
   53959 WT3  3085 TIP3 H2   HT     0.417000        1.0080           0
   53960 WT3  3086 TIP3 OH2  OT    -0.834000       15.9994           0
   53961 WT3  3086 TIP3 H1   HT     0.417000        1.0080           0
   53962 WT3  3086 TIP3 H2   HT     0.417000        1.0080           0
   53963 WT3  3087 TIP3 OH2  OT    -0.834000       15.9994           0
   53964 WT3  3087 TIP3 H1   HT     0.417000        1.0080           0
   53965 WT3  3087 TIP3 H2   HT     0.417000        1.0080           0
   53966 WT3  3088 TIP3 OH2  OT    -0.834000       15.9994           0
   53967 WT3  3088 TIP3 H1   HT     0.417000        1.0080           0
   53968 WT3  3088 TIP3 H2   HT     0.417000        1.0080           0
   53969 WT3  3091 TIP3 OH2  OT    -0.834000       15.9994           0
   53970 WT3  3091 TIP3 H1   HT     0.417000        1.0080           0
   53971 WT3  3091 TIP3 H2   HT     0.417000        1.0080           0
   53972 WT3  3092 TIP3 OH2  OT    -0.834000       15.9994           0
   53973 WT3  3092 TIP3 H1   HT     0.417000        1.0080           0
   53974 WT3  3092 TIP3 H2   HT     0.417000        1.0080           0
   53975 WT3  3093 TIP3 OH2  OT    -0.834000       15.9994           0
   53976 WT3  3093 TIP3 H1   HT     0.417000        1.0080           0
   53977 WT3  3093 TIP3 H2   HT     0.417000        1.0080           0
   53978 WT3  3094 TIP3 OH2  OT    -0.834000       15.9994           0
   53979 WT3  3094 TIP3 H1   HT     0.417000        1.0080           0
   53980 WT3  3094 TIP3 H2   HT     0.417000        1.0080           0
   53981 WT3  3095 TIP3 OH2  OT    -0.834000       15.9994           0
   53982 WT3  3095 TIP3 H1   HT     0.417000        1.0080           0
   53983 WT3  3095 TIP3 H2   HT     0.417000        1.0080           0
   53984 WT3  3096 TIP3 OH2  OT    -0.834000       15.9994           0
   53985 WT3  3096 TIP3 H1   HT     0.417000        1.0080           0
   53986 WT3  3096 TIP3 H2   HT     0.417000        1.0080           0
   53987 WT3  3097 TIP3 OH2  OT    -0.834000       15.9994           0
   53988 WT3  3097 TIP3 H1   HT     0.417000        1.0080           0
   53989 WT3  3097 TIP3 H2   HT     0.417000        1.0080           0
   53990 WT3  3098 TIP3 OH2  OT    -0.834000       15.9994           0
   53991 WT3  3098 TIP3 H1   HT     0.417000        1.0080           0
   53992 WT3  3098 TIP3 H2   HT     0.417000        1.0080           0
   53993 WT3  3100 TIP3 OH2  OT    -0.834000       15.9994           0
   53994 WT3  3100 TIP3 H1   HT     0.417000        1.0080           0
   53995 WT3  3100 TIP3 H2   HT     0.417000        1.0080           0
   53996 WT3  3104 TIP3 OH2  OT    -0.834000       15.9994           0
   53997 WT3  3104 TIP3 H1   HT     0.417000        1.0080           0
   53998 WT3  3104 TIP3 H2   HT     0.417000        1.0080           0
   53999 WT3  3108 TIP3 OH2  OT    -0.834000       15.9994           0
   54000 WT3  3108 TIP3 H1   HT     0.417000        1.0080           0
   54001 WT3  3108 TIP3 H2   HT     0.417000        1.0080           0
   54002 WT3  3109 TIP3 OH2  OT    -0.834000       15.9994           0
   54003 WT3  3109 TIP3 H1   HT     0.417000        1.0080           0
   54004 WT3  3109 TIP3 H2   HT     0.417000        1.0080           0
   54005 WT3  3110 TIP3 OH2  OT    -0.834000       15.9994           0
   54006 WT3  3110 TIP3 H1   HT     0.417000        1.0080           0
   54007 WT3  3110 TIP3 H2   HT     0.417000        1.0080           0
   54008 WT3  3111 TIP3 OH2  OT    -0.834000       15.9994           0
   54009 WT3  3111 TIP3 H1   HT     0.417000        1.0080           0
   54010 WT3  3111 TIP3 H2   HT     0.417000        1.0080           0
   54011 WT3  3112 TIP3 OH2  OT    -0.834000       15.9994           0
   54012 WT3  3112 TIP3 H1   HT     0.417000        1.0080           0
   54013 WT3  3112 TIP3 H2   HT     0.417000        1.0080           0
   54014 WT3  3114 TIP3 OH2  OT    -0.834000       15.9994           0
   54015 WT3  3114 TIP3 H1   HT     0.417000        1.0080           0
   54016 WT3  3114 TIP3 H2   HT     0.417000        1.0080           0
   54017 WT3  3116 TIP3 OH2  OT    -0.834000       15.9994           0
   54018 WT3  3116 TIP3 H1   HT     0.417000        1.0080           0
   54019 WT3  3116 TIP3 H2   HT     0.417000        1.0080           0
   54020 WT3  3118 TIP3 OH2  OT    -0.834000       15.9994           0
   54021 WT3  3118 TIP3 H1   HT     0.417000        1.0080           0
   54022 WT3  3118 TIP3 H2   HT     0.417000        1.0080           0
   54023 WT3  3119 TIP3 OH2  OT    -0.834000       15.9994           0
   54024 WT3  3119 TIP3 H1   HT     0.417000        1.0080           0
   54025 WT3  3119 TIP3 H2   HT     0.417000        1.0080           0
   54026 WT3  3121 TIP3 OH2  OT    -0.834000       15.9994           0
   54027 WT3  3121 TIP3 H1   HT     0.417000        1.0080           0
   54028 WT3  3121 TIP3 H2   HT     0.417000        1.0080           0
   54029 WT3  3122 TIP3 OH2  OT    -0.834000       15.9994           0
   54030 WT3  3122 TIP3 H1   HT     0.417000        1.0080           0
   54031 WT3  3122 TIP3 H2   HT     0.417000        1.0080           0
   54032 WT3  3128 TIP3 OH2  OT    -0.834000       15.9994           0
   54033 WT3  3128 TIP3 H1   HT     0.417000        1.0080           0
   54034 WT3  3128 TIP3 H2   HT     0.417000        1.0080           0
   54035 WT3  3129 TIP3 OH2  OT    -0.834000       15.9994           0
   54036 WT3  3129 TIP3 H1   HT     0.417000        1.0080           0
   54037 WT3  3129 TIP3 H2   HT     0.417000        1.0080           0
   54038 WT3  3131 TIP3 OH2  OT    -0.834000       15.9994           0
   54039 WT3  3131 TIP3 H1   HT     0.417000        1.0080           0
   54040 WT3  3131 TIP3 H2   HT     0.417000        1.0080           0
   54041 WT3  3134 TIP3 OH2  OT    -0.834000       15.9994           0
   54042 WT3  3134 TIP3 H1   HT     0.417000        1.0080           0
   54043 WT3  3134 TIP3 H2   HT     0.417000        1.0080           0
   54044 WT3  3136 TIP3 OH2  OT    -0.834000       15.9994           0
   54045 WT3  3136 TIP3 H1   HT     0.417000        1.0080           0
   54046 WT3  3136 TIP3 H2   HT     0.417000        1.0080           0
   54047 WT3  3137 TIP3 OH2  OT    -0.834000       15.9994           0
   54048 WT3  3137 TIP3 H1   HT     0.417000        1.0080           0
   54049 WT3  3137 TIP3 H2   HT     0.417000        1.0080           0
   54050 WT3  3138 TIP3 OH2  OT    -0.834000       15.9994           0
   54051 WT3  3138 TIP3 H1   HT     0.417000        1.0080           0
   54052 WT3  3138 TIP3 H2   HT     0.417000        1.0080           0
   54053 WT3  3140 TIP3 OH2  OT    -0.834000       15.9994           0
   54054 WT3  3140 TIP3 H1   HT     0.417000        1.0080           0
   54055 WT3  3140 TIP3 H2   HT     0.417000        1.0080           0
   54056 WT3  3143 TIP3 OH2  OT    -0.834000       15.9994           0
   54057 WT3  3143 TIP3 H1   HT     0.417000        1.0080           0
   54058 WT3  3143 TIP3 H2   HT     0.417000        1.0080           0
   54059 WT3  3145 TIP3 OH2  OT    -0.834000       15.9994           0
   54060 WT3  3145 TIP3 H1   HT     0.417000        1.0080           0
   54061 WT3  3145 TIP3 H2   HT     0.417000        1.0080           0
   54062 WT3  3150 TIP3 OH2  OT    -0.834000       15.9994           0
   54063 WT3  3150 TIP3 H1   HT     0.417000        1.0080           0
   54064 WT3  3150 TIP3 H2   HT     0.417000        1.0080           0
   54065 WT3  3151 TIP3 OH2  OT    -0.834000       15.9994           0
   54066 WT3  3151 TIP3 H1   HT     0.417000        1.0080           0
   54067 WT3  3151 TIP3 H2   HT     0.417000        1.0080           0
   54068 WT3  3152 TIP3 OH2  OT    -0.834000       15.9994           0
   54069 WT3  3152 TIP3 H1   HT     0.417000        1.0080           0
   54070 WT3  3152 TIP3 H2   HT     0.417000        1.0080           0
   54071 WT3  3153 TIP3 OH2  OT    -0.834000       15.9994           0
   54072 WT3  3153 TIP3 H1   HT     0.417000        1.0080           0
   54073 WT3  3153 TIP3 H2   HT     0.417000        1.0080           0
   54074 WT3  3154 TIP3 OH2  OT    -0.834000       15.9994           0
   54075 WT3  3154 TIP3 H1   HT     0.417000        1.0080           0
   54076 WT3  3154 TIP3 H2   HT     0.417000        1.0080           0
   54077 WT3  3155 TIP3 OH2  OT    -0.834000       15.9994           0
   54078 WT3  3155 TIP3 H1   HT     0.417000        1.0080           0
   54079 WT3  3155 TIP3 H2   HT     0.417000        1.0080           0
   54080 WT3  3156 TIP3 OH2  OT    -0.834000       15.9994           0
   54081 WT3  3156 TIP3 H1   HT     0.417000        1.0080           0
   54082 WT3  3156 TIP3 H2   HT     0.417000        1.0080           0
   54083 WT3  3157 TIP3 OH2  OT    -0.834000       15.9994           0
   54084 WT3  3157 TIP3 H1   HT     0.417000        1.0080           0
   54085 WT3  3157 TIP3 H2   HT     0.417000        1.0080           0
   54086 WT3  3158 TIP3 OH2  OT    -0.834000       15.9994           0
   54087 WT3  3158 TIP3 H1   HT     0.417000        1.0080           0
   54088 WT3  3158 TIP3 H2   HT     0.417000        1.0080           0
   54089 WT3  3159 TIP3 OH2  OT    -0.834000       15.9994           0
   54090 WT3  3159 TIP3 H1   HT     0.417000        1.0080           0
   54091 WT3  3159 TIP3 H2   HT     0.417000        1.0080           0
   54092 WT3  3161 TIP3 OH2  OT    -0.834000       15.9994           0
   54093 WT3  3161 TIP3 H1   HT     0.417000        1.0080           0
   54094 WT3  3161 TIP3 H2   HT     0.417000        1.0080           0
   54095 WT3  3164 TIP3 OH2  OT    -0.834000       15.9994           0
   54096 WT3  3164 TIP3 H1   HT     0.417000        1.0080           0
   54097 WT3  3164 TIP3 H2   HT     0.417000        1.0080           0
   54098 WT3  3165 TIP3 OH2  OT    -0.834000       15.9994           0
   54099 WT3  3165 TIP3 H1   HT     0.417000        1.0080           0
   54100 WT3  3165 TIP3 H2   HT     0.417000        1.0080           0
   54101 WT3  3166 TIP3 OH2  OT    -0.834000       15.9994           0
   54102 WT3  3166 TIP3 H1   HT     0.417000        1.0080           0
   54103 WT3  3166 TIP3 H2   HT     0.417000        1.0080           0
   54104 WT3  3167 TIP3 OH2  OT    -0.834000       15.9994           0
   54105 WT3  3167 TIP3 H1   HT     0.417000        1.0080           0
   54106 WT3  3167 TIP3 H2   HT     0.417000        1.0080           0
   54107 WT3  3172 TIP3 OH2  OT    -0.834000       15.9994           0
   54108 WT3  3172 TIP3 H1   HT     0.417000        1.0080           0
   54109 WT3  3172 TIP3 H2   HT     0.417000        1.0080           0
   54110 WT3  3173 TIP3 OH2  OT    -0.834000       15.9994           0
   54111 WT3  3173 TIP3 H1   HT     0.417000        1.0080           0
   54112 WT3  3173 TIP3 H2   HT     0.417000        1.0080           0
   54113 WT3  3174 TIP3 OH2  OT    -0.834000       15.9994           0
   54114 WT3  3174 TIP3 H1   HT     0.417000        1.0080           0
   54115 WT3  3174 TIP3 H2   HT     0.417000        1.0080           0
   54116 WT3  3175 TIP3 OH2  OT    -0.834000       15.9994           0
   54117 WT3  3175 TIP3 H1   HT     0.417000        1.0080           0
   54118 WT3  3175 TIP3 H2   HT     0.417000        1.0080           0
   54119 WT3  3176 TIP3 OH2  OT    -0.834000       15.9994           0
   54120 WT3  3176 TIP3 H1   HT     0.417000        1.0080           0
   54121 WT3  3176 TIP3 H2   HT     0.417000        1.0080           0
   54122 WT3  3177 TIP3 OH2  OT    -0.834000       15.9994           0
   54123 WT3  3177 TIP3 H1   HT     0.417000        1.0080           0
   54124 WT3  3177 TIP3 H2   HT     0.417000        1.0080           0
   54125 WT3  3178 TIP3 OH2  OT    -0.834000       15.9994           0
   54126 WT3  3178 TIP3 H1   HT     0.417000        1.0080           0
   54127 WT3  3178 TIP3 H2   HT     0.417000        1.0080           0
   54128 WT3  3179 TIP3 OH2  OT    -0.834000       15.9994           0
   54129 WT3  3179 TIP3 H1   HT     0.417000        1.0080           0
   54130 WT3  3179 TIP3 H2   HT     0.417000        1.0080           0
   54131 WT3  3180 TIP3 OH2  OT    -0.834000       15.9994           0
   54132 WT3  3180 TIP3 H1   HT     0.417000        1.0080           0
   54133 WT3  3180 TIP3 H2   HT     0.417000        1.0080           0
   54134 WT3  3181 TIP3 OH2  OT    -0.834000       15.9994           0
   54135 WT3  3181 TIP3 H1   HT     0.417000        1.0080           0
   54136 WT3  3181 TIP3 H2   HT     0.417000        1.0080           0
   54137 WT3  3183 TIP3 OH2  OT    -0.834000       15.9994           0
   54138 WT3  3183 TIP3 H1   HT     0.417000        1.0080           0
   54139 WT3  3183 TIP3 H2   HT     0.417000        1.0080           0
   54140 WT3  3184 TIP3 OH2  OT    -0.834000       15.9994           0
   54141 WT3  3184 TIP3 H1   HT     0.417000        1.0080           0
   54142 WT3  3184 TIP3 H2   HT     0.417000        1.0080           0
   54143 WT3  3185 TIP3 OH2  OT    -0.834000       15.9994           0
   54144 WT3  3185 TIP3 H1   HT     0.417000        1.0080           0
   54145 WT3  3185 TIP3 H2   HT     0.417000        1.0080           0
   54146 WT3  3187 TIP3 OH2  OT    -0.834000       15.9994           0
   54147 WT3  3187 TIP3 H1   HT     0.417000        1.0080           0
   54148 WT3  3187 TIP3 H2   HT     0.417000        1.0080           0
   54149 WT3  3189 TIP3 OH2  OT    -0.834000       15.9994           0
   54150 WT3  3189 TIP3 H1   HT     0.417000        1.0080           0
   54151 WT3  3189 TIP3 H2   HT     0.417000        1.0080           0
   54152 WT3  3192 TIP3 OH2  OT    -0.834000       15.9994           0
   54153 WT3  3192 TIP3 H1   HT     0.417000        1.0080           0
   54154 WT3  3192 TIP3 H2   HT     0.417000        1.0080           0
   54155 WT3  3193 TIP3 OH2  OT    -0.834000       15.9994           0
   54156 WT3  3193 TIP3 H1   HT     0.417000        1.0080           0
   54157 WT3  3193 TIP3 H2   HT     0.417000        1.0080           0
   54158 WT3  3195 TIP3 OH2  OT    -0.834000       15.9994           0
   54159 WT3  3195 TIP3 H1   HT     0.417000        1.0080           0
   54160 WT3  3195 TIP3 H2   HT     0.417000        1.0080           0
   54161 WT3  3196 TIP3 OH2  OT    -0.834000       15.9994           0
   54162 WT3  3196 TIP3 H1   HT     0.417000        1.0080           0
   54163 WT3  3196 TIP3 H2   HT     0.417000        1.0080           0
   54164 WT3  3197 TIP3 OH2  OT    -0.834000       15.9994           0
   54165 WT3  3197 TIP3 H1   HT     0.417000        1.0080           0
   54166 WT3  3197 TIP3 H2   HT     0.417000        1.0080           0
   54167 WT3  3198 TIP3 OH2  OT    -0.834000       15.9994           0
   54168 WT3  3198 TIP3 H1   HT     0.417000        1.0080           0
   54169 WT3  3198 TIP3 H2   HT     0.417000        1.0080           0
   54170 WT3  3199 TIP3 OH2  OT    -0.834000       15.9994           0
   54171 WT3  3199 TIP3 H1   HT     0.417000        1.0080           0
   54172 WT3  3199 TIP3 H2   HT     0.417000        1.0080           0
   54173 WT3  3200 TIP3 OH2  OT    -0.834000       15.9994           0
   54174 WT3  3200 TIP3 H1   HT     0.417000        1.0080           0
   54175 WT3  3200 TIP3 H2   HT     0.417000        1.0080           0
   54176 WT3  3201 TIP3 OH2  OT    -0.834000       15.9994           0
   54177 WT3  3201 TIP3 H1   HT     0.417000        1.0080           0
   54178 WT3  3201 TIP3 H2   HT     0.417000        1.0080           0
   54179 WT3  3202 TIP3 OH2  OT    -0.834000       15.9994           0
   54180 WT3  3202 TIP3 H1   HT     0.417000        1.0080           0
   54181 WT3  3202 TIP3 H2   HT     0.417000        1.0080           0
   54182 WT3  3203 TIP3 OH2  OT    -0.834000       15.9994           0
   54183 WT3  3203 TIP3 H1   HT     0.417000        1.0080           0
   54184 WT3  3203 TIP3 H2   HT     0.417000        1.0080           0
   54185 WT3  3204 TIP3 OH2  OT    -0.834000       15.9994           0
   54186 WT3  3204 TIP3 H1   HT     0.417000        1.0080           0
   54187 WT3  3204 TIP3 H2   HT     0.417000        1.0080           0
   54188 WT3  3205 TIP3 OH2  OT    -0.834000       15.9994           0
   54189 WT3  3205 TIP3 H1   HT     0.417000        1.0080           0
   54190 WT3  3205 TIP3 H2   HT     0.417000        1.0080           0
   54191 WT3  3207 TIP3 OH2  OT    -0.834000       15.9994           0
   54192 WT3  3207 TIP3 H1   HT     0.417000        1.0080           0
   54193 WT3  3207 TIP3 H2   HT     0.417000        1.0080           0
   54194 WT3  3210 TIP3 OH2  OT    -0.834000       15.9994           0
   54195 WT3  3210 TIP3 H1   HT     0.417000        1.0080           0
   54196 WT3  3210 TIP3 H2   HT     0.417000        1.0080           0
   54197 WT3  3214 TIP3 OH2  OT    -0.834000       15.9994           0
   54198 WT3  3214 TIP3 H1   HT     0.417000        1.0080           0
   54199 WT3  3214 TIP3 H2   HT     0.417000        1.0080           0
   54200 WT3  3215 TIP3 OH2  OT    -0.834000       15.9994           0
   54201 WT3  3215 TIP3 H1   HT     0.417000        1.0080           0
   54202 WT3  3215 TIP3 H2   HT     0.417000        1.0080           0
   54203 WT3  3216 TIP3 OH2  OT    -0.834000       15.9994           0
   54204 WT3  3216 TIP3 H1   HT     0.417000        1.0080           0
   54205 WT3  3216 TIP3 H2   HT     0.417000        1.0080           0
   54206 WT3  3218 TIP3 OH2  OT    -0.834000       15.9994           0
   54207 WT3  3218 TIP3 H1   HT     0.417000        1.0080           0
   54208 WT3  3218 TIP3 H2   HT     0.417000        1.0080           0
   54209 WT3  3219 TIP3 OH2  OT    -0.834000       15.9994           0
   54210 WT3  3219 TIP3 H1   HT     0.417000        1.0080           0
   54211 WT3  3219 TIP3 H2   HT     0.417000        1.0080           0
   54212 WT3  3220 TIP3 OH2  OT    -0.834000       15.9994           0
   54213 WT3  3220 TIP3 H1   HT     0.417000        1.0080           0
   54214 WT3  3220 TIP3 H2   HT     0.417000        1.0080           0
   54215 WT3  3221 TIP3 OH2  OT    -0.834000       15.9994           0
   54216 WT3  3221 TIP3 H1   HT     0.417000        1.0080           0
   54217 WT3  3221 TIP3 H2   HT     0.417000        1.0080           0
   54218 WT3  3223 TIP3 OH2  OT    -0.834000       15.9994           0
   54219 WT3  3223 TIP3 H1   HT     0.417000        1.0080           0
   54220 WT3  3223 TIP3 H2   HT     0.417000        1.0080           0
   54221 WT3  3224 TIP3 OH2  OT    -0.834000       15.9994           0
   54222 WT3  3224 TIP3 H1   HT     0.417000        1.0080           0
   54223 WT3  3224 TIP3 H2   HT     0.417000        1.0080           0
   54224 WT3  3225 TIP3 OH2  OT    -0.834000       15.9994           0
   54225 WT3  3225 TIP3 H1   HT     0.417000        1.0080           0
   54226 WT3  3225 TIP3 H2   HT     0.417000        1.0080           0
   54227 WT3  3226 TIP3 OH2  OT    -0.834000       15.9994           0
   54228 WT3  3226 TIP3 H1   HT     0.417000        1.0080           0
   54229 WT3  3226 TIP3 H2   HT     0.417000        1.0080           0
   54230 WT3  3227 TIP3 OH2  OT    -0.834000       15.9994           0
   54231 WT3  3227 TIP3 H1   HT     0.417000        1.0080           0
   54232 WT3  3227 TIP3 H2   HT     0.417000        1.0080           0
   54233 WT3  3228 TIP3 OH2  OT    -0.834000       15.9994           0
   54234 WT3  3228 TIP3 H1   HT     0.417000        1.0080           0
   54235 WT3  3228 TIP3 H2   HT     0.417000        1.0080           0
   54236 WT3  3229 TIP3 OH2  OT    -0.834000       15.9994           0
   54237 WT3  3229 TIP3 H1   HT     0.417000        1.0080           0
   54238 WT3  3229 TIP3 H2   HT     0.417000        1.0080           0
   54239 WT3  3233 TIP3 OH2  OT    -0.834000       15.9994           0
   54240 WT3  3233 TIP3 H1   HT     0.417000        1.0080           0
   54241 WT3  3233 TIP3 H2   HT     0.417000        1.0080           0
   54242 WT3  3234 TIP3 OH2  OT    -0.834000       15.9994           0
   54243 WT3  3234 TIP3 H1   HT     0.417000        1.0080           0
   54244 WT3  3234 TIP3 H2   HT     0.417000        1.0080           0
   54245 WT3  3236 TIP3 OH2  OT    -0.834000       15.9994           0
   54246 WT3  3236 TIP3 H1   HT     0.417000        1.0080           0
   54247 WT3  3236 TIP3 H2   HT     0.417000        1.0080           0
   54248 WT3  3237 TIP3 OH2  OT    -0.834000       15.9994           0
   54249 WT3  3237 TIP3 H1   HT     0.417000        1.0080           0
   54250 WT3  3237 TIP3 H2   HT     0.417000        1.0080           0
   54251 WT3  3238 TIP3 OH2  OT    -0.834000       15.9994           0
   54252 WT3  3238 TIP3 H1   HT     0.417000        1.0080           0
   54253 WT3  3238 TIP3 H2   HT     0.417000        1.0080           0
   54254 WT3  3240 TIP3 OH2  OT    -0.834000       15.9994           0
   54255 WT3  3240 TIP3 H1   HT     0.417000        1.0080           0
   54256 WT3  3240 TIP3 H2   HT     0.417000        1.0080           0
   54257 WT3  3241 TIP3 OH2  OT    -0.834000       15.9994           0
   54258 WT3  3241 TIP3 H1   HT     0.417000        1.0080           0
   54259 WT3  3241 TIP3 H2   HT     0.417000        1.0080           0
   54260 WT3  3242 TIP3 OH2  OT    -0.834000       15.9994           0
   54261 WT3  3242 TIP3 H1   HT     0.417000        1.0080           0
   54262 WT3  3242 TIP3 H2   HT     0.417000        1.0080           0
   54263 WT3  3244 TIP3 OH2  OT    -0.834000       15.9994           0
   54264 WT3  3244 TIP3 H1   HT     0.417000        1.0080           0
   54265 WT3  3244 TIP3 H2   HT     0.417000        1.0080           0
   54266 WT3  3245 TIP3 OH2  OT    -0.834000       15.9994           0
   54267 WT3  3245 TIP3 H1   HT     0.417000        1.0080           0
   54268 WT3  3245 TIP3 H2   HT     0.417000        1.0080           0
   54269 WT3  3247 TIP3 OH2  OT    -0.834000       15.9994           0
   54270 WT3  3247 TIP3 H1   HT     0.417000        1.0080           0
   54271 WT3  3247 TIP3 H2   HT     0.417000        1.0080           0
   54272 WT3  3249 TIP3 OH2  OT    -0.834000       15.9994           0
   54273 WT3  3249 TIP3 H1   HT     0.417000        1.0080           0
   54274 WT3  3249 TIP3 H2   HT     0.417000        1.0080           0
   54275 WT3  3257 TIP3 OH2  OT    -0.834000       15.9994           0
   54276 WT3  3257 TIP3 H1   HT     0.417000        1.0080           0
   54277 WT3  3257 TIP3 H2   HT     0.417000        1.0080           0
   54278 WT3  3261 TIP3 OH2  OT    -0.834000       15.9994           0
   54279 WT3  3261 TIP3 H1   HT     0.417000        1.0080           0
   54280 WT3  3261 TIP3 H2   HT     0.417000        1.0080           0
   54281 WT3  3262 TIP3 OH2  OT    -0.834000       15.9994           0
   54282 WT3  3262 TIP3 H1   HT     0.417000        1.0080           0
   54283 WT3  3262 TIP3 H2   HT     0.417000        1.0080           0
   54284 WT3  3263 TIP3 OH2  OT    -0.834000       15.9994           0
   54285 WT3  3263 TIP3 H1   HT     0.417000        1.0080           0
   54286 WT3  3263 TIP3 H2   HT     0.417000        1.0080           0
   54287 WT3  3266 TIP3 OH2  OT    -0.834000       15.9994           0
   54288 WT3  3266 TIP3 H1   HT     0.417000        1.0080           0
   54289 WT3  3266 TIP3 H2   HT     0.417000        1.0080           0
   54290 WT3  3267 TIP3 OH2  OT    -0.834000       15.9994           0
   54291 WT3  3267 TIP3 H1   HT     0.417000        1.0080           0
   54292 WT3  3267 TIP3 H2   HT     0.417000        1.0080           0
   54293 WT3  3269 TIP3 OH2  OT    -0.834000       15.9994           0
   54294 WT3  3269 TIP3 H1   HT     0.417000        1.0080           0
   54295 WT3  3269 TIP3 H2   HT     0.417000        1.0080           0
   54296 WT3  3270 TIP3 OH2  OT    -0.834000       15.9994           0
   54297 WT3  3270 TIP3 H1   HT     0.417000        1.0080           0
   54298 WT3  3270 TIP3 H2   HT     0.417000        1.0080           0
   54299 WT3  3272 TIP3 OH2  OT    -0.834000       15.9994           0
   54300 WT3  3272 TIP3 H1   HT     0.417000        1.0080           0
   54301 WT3  3272 TIP3 H2   HT     0.417000        1.0080           0
   54302 WT3  3274 TIP3 OH2  OT    -0.834000       15.9994           0
   54303 WT3  3274 TIP3 H1   HT     0.417000        1.0080           0
   54304 WT3  3274 TIP3 H2   HT     0.417000        1.0080           0
   54305 WT3  3275 TIP3 OH2  OT    -0.834000       15.9994           0
   54306 WT3  3275 TIP3 H1   HT     0.417000        1.0080           0
   54307 WT3  3275 TIP3 H2   HT     0.417000        1.0080           0
   54308 WT3  3276 TIP3 OH2  OT    -0.834000       15.9994           0
   54309 WT3  3276 TIP3 H1   HT     0.417000        1.0080           0
   54310 WT3  3276 TIP3 H2   HT     0.417000        1.0080           0
   54311 WT3  3277 TIP3 OH2  OT    -0.834000       15.9994           0
   54312 WT3  3277 TIP3 H1   HT     0.417000        1.0080           0
   54313 WT3  3277 TIP3 H2   HT     0.417000        1.0080           0
   54314 WT3  3278 TIP3 OH2  OT    -0.834000       15.9994           0
   54315 WT3  3278 TIP3 H1   HT     0.417000        1.0080           0
   54316 WT3  3278 TIP3 H2   HT     0.417000        1.0080           0
   54317 WT3  3279 TIP3 OH2  OT    -0.834000       15.9994           0
   54318 WT3  3279 TIP3 H1   HT     0.417000        1.0080           0
   54319 WT3  3279 TIP3 H2   HT     0.417000        1.0080           0
   54320 WT3  3280 TIP3 OH2  OT    -0.834000       15.9994           0
   54321 WT3  3280 TIP3 H1   HT     0.417000        1.0080           0
   54322 WT3  3280 TIP3 H2   HT     0.417000        1.0080           0
   54323 WT3  3283 TIP3 OH2  OT    -0.834000       15.9994           0
   54324 WT3  3283 TIP3 H1   HT     0.417000        1.0080           0
   54325 WT3  3283 TIP3 H2   HT     0.417000        1.0080           0
   54326 WT3  3284 TIP3 OH2  OT    -0.834000       15.9994           0
   54327 WT3  3284 TIP3 H1   HT     0.417000        1.0080           0
   54328 WT3  3284 TIP3 H2   HT     0.417000        1.0080           0
   54329 WT3  3286 TIP3 OH2  OT    -0.834000       15.9994           0
   54330 WT3  3286 TIP3 H1   HT     0.417000        1.0080           0
   54331 WT3  3286 TIP3 H2   HT     0.417000        1.0080           0
   54332 WT3  3287 TIP3 OH2  OT    -0.834000       15.9994           0
   54333 WT3  3287 TIP3 H1   HT     0.417000        1.0080           0
   54334 WT3  3287 TIP3 H2   HT     0.417000        1.0080           0
   54335 WT3  3288 TIP3 OH2  OT    -0.834000       15.9994           0
   54336 WT3  3288 TIP3 H1   HT     0.417000        1.0080           0
   54337 WT3  3288 TIP3 H2   HT     0.417000        1.0080           0
   54338 WT3  3289 TIP3 OH2  OT    -0.834000       15.9994           0
   54339 WT3  3289 TIP3 H1   HT     0.417000        1.0080           0
   54340 WT3  3289 TIP3 H2   HT     0.417000        1.0080           0
   54341 WT3  3291 TIP3 OH2  OT    -0.834000       15.9994           0
   54342 WT3  3291 TIP3 H1   HT     0.417000        1.0080           0
   54343 WT3  3291 TIP3 H2   HT     0.417000        1.0080           0
   54344 WT3  3293 TIP3 OH2  OT    -0.834000       15.9994           0
   54345 WT3  3293 TIP3 H1   HT     0.417000        1.0080           0
   54346 WT3  3293 TIP3 H2   HT     0.417000        1.0080           0
   54347 WT3  3296 TIP3 OH2  OT    -0.834000       15.9994           0
   54348 WT3  3296 TIP3 H1   HT     0.417000        1.0080           0
   54349 WT3  3296 TIP3 H2   HT     0.417000        1.0080           0
   54350 WT3  3298 TIP3 OH2  OT    -0.834000       15.9994           0
   54351 WT3  3298 TIP3 H1   HT     0.417000        1.0080           0
   54352 WT3  3298 TIP3 H2   HT     0.417000        1.0080           0
   54353 WT3  3302 TIP3 OH2  OT    -0.834000       15.9994           0
   54354 WT3  3302 TIP3 H1   HT     0.417000        1.0080           0
   54355 WT3  3302 TIP3 H2   HT     0.417000        1.0080           0
   54356 WT3  3303 TIP3 OH2  OT    -0.834000       15.9994           0
   54357 WT3  3303 TIP3 H1   HT     0.417000        1.0080           0
   54358 WT3  3303 TIP3 H2   HT     0.417000        1.0080           0
   54359 WT3  3304 TIP3 OH2  OT    -0.834000       15.9994           0
   54360 WT3  3304 TIP3 H1   HT     0.417000        1.0080           0
   54361 WT3  3304 TIP3 H2   HT     0.417000        1.0080           0
   54362 WT3  3306 TIP3 OH2  OT    -0.834000       15.9994           0
   54363 WT3  3306 TIP3 H1   HT     0.417000        1.0080           0
   54364 WT3  3306 TIP3 H2   HT     0.417000        1.0080           0
   54365 WT3  3307 TIP3 OH2  OT    -0.834000       15.9994           0
   54366 WT3  3307 TIP3 H1   HT     0.417000        1.0080           0
   54367 WT3  3307 TIP3 H2   HT     0.417000        1.0080           0
   54368 WT3  3308 TIP3 OH2  OT    -0.834000       15.9994           0
   54369 WT3  3308 TIP3 H1   HT     0.417000        1.0080           0
   54370 WT3  3308 TIP3 H2   HT     0.417000        1.0080           0
   54371 WT3  3310 TIP3 OH2  OT    -0.834000       15.9994           0
   54372 WT3  3310 TIP3 H1   HT     0.417000        1.0080           0
   54373 WT3  3310 TIP3 H2   HT     0.417000        1.0080           0
   54374 WT3  3311 TIP3 OH2  OT    -0.834000       15.9994           0
   54375 WT3  3311 TIP3 H1   HT     0.417000        1.0080           0
   54376 WT3  3311 TIP3 H2   HT     0.417000        1.0080           0
   54377 WT3  3312 TIP3 OH2  OT    -0.834000       15.9994           0
   54378 WT3  3312 TIP3 H1   HT     0.417000        1.0080           0
   54379 WT3  3312 TIP3 H2   HT     0.417000        1.0080           0
   54380 WT3  3314 TIP3 OH2  OT    -0.834000       15.9994           0
   54381 WT3  3314 TIP3 H1   HT     0.417000        1.0080           0
   54382 WT3  3314 TIP3 H2   HT     0.417000        1.0080           0
   54383 WT3  3317 TIP3 OH2  OT    -0.834000       15.9994           0
   54384 WT3  3317 TIP3 H1   HT     0.417000        1.0080           0
   54385 WT3  3317 TIP3 H2   HT     0.417000        1.0080           0
   54386 WT3  3319 TIP3 OH2  OT    -0.834000       15.9994           0
   54387 WT3  3319 TIP3 H1   HT     0.417000        1.0080           0
   54388 WT3  3319 TIP3 H2   HT     0.417000        1.0080           0
   54389 WT3  3320 TIP3 OH2  OT    -0.834000       15.9994           0
   54390 WT3  3320 TIP3 H1   HT     0.417000        1.0080           0
   54391 WT3  3320 TIP3 H2   HT     0.417000        1.0080           0
   54392 WT3  3321 TIP3 OH2  OT    -0.834000       15.9994           0
   54393 WT3  3321 TIP3 H1   HT     0.417000        1.0080           0
   54394 WT3  3321 TIP3 H2   HT     0.417000        1.0080           0
   54395 WT3  3322 TIP3 OH2  OT    -0.834000       15.9994           0
   54396 WT3  3322 TIP3 H1   HT     0.417000        1.0080           0
   54397 WT3  3322 TIP3 H2   HT     0.417000        1.0080           0
   54398 WT3  3325 TIP3 OH2  OT    -0.834000       15.9994           0
   54399 WT3  3325 TIP3 H1   HT     0.417000        1.0080           0
   54400 WT3  3325 TIP3 H2   HT     0.417000        1.0080           0
   54401 WT3  3326 TIP3 OH2  OT    -0.834000       15.9994           0
   54402 WT3  3326 TIP3 H1   HT     0.417000        1.0080           0
   54403 WT3  3326 TIP3 H2   HT     0.417000        1.0080           0
   54404 WT3  3327 TIP3 OH2  OT    -0.834000       15.9994           0
   54405 WT3  3327 TIP3 H1   HT     0.417000        1.0080           0
   54406 WT3  3327 TIP3 H2   HT     0.417000        1.0080           0
   54407 WT3  3328 TIP3 OH2  OT    -0.834000       15.9994           0
   54408 WT3  3328 TIP3 H1   HT     0.417000        1.0080           0
   54409 WT3  3328 TIP3 H2   HT     0.417000        1.0080           0
   54410 WT3  3330 TIP3 OH2  OT    -0.834000       15.9994           0
   54411 WT3  3330 TIP3 H1   HT     0.417000        1.0080           0
   54412 WT3  3330 TIP3 H2   HT     0.417000        1.0080           0
   54413 WT3  3332 TIP3 OH2  OT    -0.834000       15.9994           0
   54414 WT3  3332 TIP3 H1   HT     0.417000        1.0080           0
   54415 WT3  3332 TIP3 H2   HT     0.417000        1.0080           0
   54416 WT3  3335 TIP3 OH2  OT    -0.834000       15.9994           0
   54417 WT3  3335 TIP3 H1   HT     0.417000        1.0080           0
   54418 WT3  3335 TIP3 H2   HT     0.417000        1.0080           0
   54419 WT3  3337 TIP3 OH2  OT    -0.834000       15.9994           0
   54420 WT3  3337 TIP3 H1   HT     0.417000        1.0080           0
   54421 WT3  3337 TIP3 H2   HT     0.417000        1.0080           0
   54422 WT3  3341 TIP3 OH2  OT    -0.834000       15.9994           0
   54423 WT3  3341 TIP3 H1   HT     0.417000        1.0080           0
   54424 WT3  3341 TIP3 H2   HT     0.417000        1.0080           0
   54425 WT3  3344 TIP3 OH2  OT    -0.834000       15.9994           0
   54426 WT3  3344 TIP3 H1   HT     0.417000        1.0080           0
   54427 WT3  3344 TIP3 H2   HT     0.417000        1.0080           0
   54428 WT3  3345 TIP3 OH2  OT    -0.834000       15.9994           0
   54429 WT3  3345 TIP3 H1   HT     0.417000        1.0080           0
   54430 WT3  3345 TIP3 H2   HT     0.417000        1.0080           0
   54431 WT3  3346 TIP3 OH2  OT    -0.834000       15.9994           0
   54432 WT3  3346 TIP3 H1   HT     0.417000        1.0080           0
   54433 WT3  3346 TIP3 H2   HT     0.417000        1.0080           0
   54434 WT3  3347 TIP3 OH2  OT    -0.834000       15.9994           0
   54435 WT3  3347 TIP3 H1   HT     0.417000        1.0080           0
   54436 WT3  3347 TIP3 H2   HT     0.417000        1.0080           0
   54437 WT3  3349 TIP3 OH2  OT    -0.834000       15.9994           0
   54438 WT3  3349 TIP3 H1   HT     0.417000        1.0080           0
   54439 WT3  3349 TIP3 H2   HT     0.417000        1.0080           0
   54440 WT3  3351 TIP3 OH2  OT    -0.834000       15.9994           0
   54441 WT3  3351 TIP3 H1   HT     0.417000        1.0080           0
   54442 WT3  3351 TIP3 H2   HT     0.417000        1.0080           0
   54443 WT3  3352 TIP3 OH2  OT    -0.834000       15.9994           0
   54444 WT3  3352 TIP3 H1   HT     0.417000        1.0080           0
   54445 WT3  3352 TIP3 H2   HT     0.417000        1.0080           0
   54446 WT3  3353 TIP3 OH2  OT    -0.834000       15.9994           0
   54447 WT3  3353 TIP3 H1   HT     0.417000        1.0080           0
   54448 WT3  3353 TIP3 H2   HT     0.417000        1.0080           0
   54449 WT3  3354 TIP3 OH2  OT    -0.834000       15.9994           0
   54450 WT3  3354 TIP3 H1   HT     0.417000        1.0080           0
   54451 WT3  3354 TIP3 H2   HT     0.417000        1.0080           0
   54452 WT3  3355 TIP3 OH2  OT    -0.834000       15.9994           0
   54453 WT3  3355 TIP3 H1   HT     0.417000        1.0080           0
   54454 WT3  3355 TIP3 H2   HT     0.417000        1.0080           0
   54455 WT3  3362 TIP3 OH2  OT    -0.834000       15.9994           0
   54456 WT3  3362 TIP3 H1   HT     0.417000        1.0080           0
   54457 WT3  3362 TIP3 H2   HT     0.417000        1.0080           0
   54458 WT3  3363 TIP3 OH2  OT    -0.834000       15.9994           0
   54459 WT3  3363 TIP3 H1   HT     0.417000        1.0080           0
   54460 WT3  3363 TIP3 H2   HT     0.417000        1.0080           0
   54461 WT3  3364 TIP3 OH2  OT    -0.834000       15.9994           0
   54462 WT3  3364 TIP3 H1   HT     0.417000        1.0080           0
   54463 WT3  3364 TIP3 H2   HT     0.417000        1.0080           0
   54464 WT3  3365 TIP3 OH2  OT    -0.834000       15.9994           0
   54465 WT3  3365 TIP3 H1   HT     0.417000        1.0080           0
   54466 WT3  3365 TIP3 H2   HT     0.417000        1.0080           0
   54467 WT3  3366 TIP3 OH2  OT    -0.834000       15.9994           0
   54468 WT3  3366 TIP3 H1   HT     0.417000        1.0080           0
   54469 WT3  3366 TIP3 H2   HT     0.417000        1.0080           0
   54470 WT3  3367 TIP3 OH2  OT    -0.834000       15.9994           0
   54471 WT3  3367 TIP3 H1   HT     0.417000        1.0080           0
   54472 WT3  3367 TIP3 H2   HT     0.417000        1.0080           0
   54473 WT3  3368 TIP3 OH2  OT    -0.834000       15.9994           0
   54474 WT3  3368 TIP3 H1   HT     0.417000        1.0080           0
   54475 WT3  3368 TIP3 H2   HT     0.417000        1.0080           0
   54476 WT3  3369 TIP3 OH2  OT    -0.834000       15.9994           0
   54477 WT3  3369 TIP3 H1   HT     0.417000        1.0080           0
   54478 WT3  3369 TIP3 H2   HT     0.417000        1.0080           0
   54479 WT3  3371 TIP3 OH2  OT    -0.834000       15.9994           0
   54480 WT3  3371 TIP3 H1   HT     0.417000        1.0080           0
   54481 WT3  3371 TIP3 H2   HT     0.417000        1.0080           0
   54482 WT3  3372 TIP3 OH2  OT    -0.834000       15.9994           0
   54483 WT3  3372 TIP3 H1   HT     0.417000        1.0080           0
   54484 WT3  3372 TIP3 H2   HT     0.417000        1.0080           0
   54485 WT3  3373 TIP3 OH2  OT    -0.834000       15.9994           0
   54486 WT3  3373 TIP3 H1   HT     0.417000        1.0080           0
   54487 WT3  3373 TIP3 H2   HT     0.417000        1.0080           0
   54488 WT3  3375 TIP3 OH2  OT    -0.834000       15.9994           0
   54489 WT3  3375 TIP3 H1   HT     0.417000        1.0080           0
   54490 WT3  3375 TIP3 H2   HT     0.417000        1.0080           0
   54491 WT3  3377 TIP3 OH2  OT    -0.834000       15.9994           0
   54492 WT3  3377 TIP3 H1   HT     0.417000        1.0080           0
   54493 WT3  3377 TIP3 H2   HT     0.417000        1.0080           0
   54494 WT3  3381 TIP3 OH2  OT    -0.834000       15.9994           0
   54495 WT3  3381 TIP3 H1   HT     0.417000        1.0080           0
   54496 WT3  3381 TIP3 H2   HT     0.417000        1.0080           0
   54497 WT3  3382 TIP3 OH2  OT    -0.834000       15.9994           0
   54498 WT3  3382 TIP3 H1   HT     0.417000        1.0080           0
   54499 WT3  3382 TIP3 H2   HT     0.417000        1.0080           0
   54500 WT3  3383 TIP3 OH2  OT    -0.834000       15.9994           0
   54501 WT3  3383 TIP3 H1   HT     0.417000        1.0080           0
   54502 WT3  3383 TIP3 H2   HT     0.417000        1.0080           0
   54503 WT3  3384 TIP3 OH2  OT    -0.834000       15.9994           0
   54504 WT3  3384 TIP3 H1   HT     0.417000        1.0080           0
   54505 WT3  3384 TIP3 H2   HT     0.417000        1.0080           0
   54506 WT3  3386 TIP3 OH2  OT    -0.834000       15.9994           0
   54507 WT3  3386 TIP3 H1   HT     0.417000        1.0080           0
   54508 WT3  3386 TIP3 H2   HT     0.417000        1.0080           0
   54509 WT3  3387 TIP3 OH2  OT    -0.834000       15.9994           0
   54510 WT3  3387 TIP3 H1   HT     0.417000        1.0080           0
   54511 WT3  3387 TIP3 H2   HT     0.417000        1.0080           0
   54512 WT3  3388 TIP3 OH2  OT    -0.834000       15.9994           0
   54513 WT3  3388 TIP3 H1   HT     0.417000        1.0080           0
   54514 WT3  3388 TIP3 H2   HT     0.417000        1.0080           0
   54515 WT3  3390 TIP3 OH2  OT    -0.834000       15.9994           0
   54516 WT3  3390 TIP3 H1   HT     0.417000        1.0080           0
   54517 WT3  3390 TIP3 H2   HT     0.417000        1.0080           0
   54518 WT3  3391 TIP3 OH2  OT    -0.834000       15.9994           0
   54519 WT3  3391 TIP3 H1   HT     0.417000        1.0080           0
   54520 WT3  3391 TIP3 H2   HT     0.417000        1.0080           0
   54521 WT3  3392 TIP3 OH2  OT    -0.834000       15.9994           0
   54522 WT3  3392 TIP3 H1   HT     0.417000        1.0080           0
   54523 WT3  3392 TIP3 H2   HT     0.417000        1.0080           0
   54524 WT3  3393 TIP3 OH2  OT    -0.834000       15.9994           0
   54525 WT3  3393 TIP3 H1   HT     0.417000        1.0080           0
   54526 WT3  3393 TIP3 H2   HT     0.417000        1.0080           0
   54527 WT3  3396 TIP3 OH2  OT    -0.834000       15.9994           0
   54528 WT3  3396 TIP3 H1   HT     0.417000        1.0080           0
   54529 WT3  3396 TIP3 H2   HT     0.417000        1.0080           0
   54530 WT3  3397 TIP3 OH2  OT    -0.834000       15.9994           0
   54531 WT3  3397 TIP3 H1   HT     0.417000        1.0080           0
   54532 WT3  3397 TIP3 H2   HT     0.417000        1.0080           0
   54533 WT3  3401 TIP3 OH2  OT    -0.834000       15.9994           0
   54534 WT3  3401 TIP3 H1   HT     0.417000        1.0080           0
   54535 WT3  3401 TIP3 H2   HT     0.417000        1.0080           0
   54536 WT3  3404 TIP3 OH2  OT    -0.834000       15.9994           0
   54537 WT3  3404 TIP3 H1   HT     0.417000        1.0080           0
   54538 WT3  3404 TIP3 H2   HT     0.417000        1.0080           0
   54539 WT3  3405 TIP3 OH2  OT    -0.834000       15.9994           0
   54540 WT3  3405 TIP3 H1   HT     0.417000        1.0080           0
   54541 WT3  3405 TIP3 H2   HT     0.417000        1.0080           0
   54542 WT3  3406 TIP3 OH2  OT    -0.834000       15.9994           0
   54543 WT3  3406 TIP3 H1   HT     0.417000        1.0080           0
   54544 WT3  3406 TIP3 H2   HT     0.417000        1.0080           0
   54545 WT3  3409 TIP3 OH2  OT    -0.834000       15.9994           0
   54546 WT3  3409 TIP3 H1   HT     0.417000        1.0080           0
   54547 WT3  3409 TIP3 H2   HT     0.417000        1.0080           0
   54548 WT3  3410 TIP3 OH2  OT    -0.834000       15.9994           0
   54549 WT3  3410 TIP3 H1   HT     0.417000        1.0080           0
   54550 WT3  3410 TIP3 H2   HT     0.417000        1.0080           0
   54551 WT3  3411 TIP3 OH2  OT    -0.834000       15.9994           0
   54552 WT3  3411 TIP3 H1   HT     0.417000        1.0080           0
   54553 WT3  3411 TIP3 H2   HT     0.417000        1.0080           0
   54554 WT3  3412 TIP3 OH2  OT    -0.834000       15.9994           0
   54555 WT3  3412 TIP3 H1   HT     0.417000        1.0080           0
   54556 WT3  3412 TIP3 H2   HT     0.417000        1.0080           0
   54557 WT3  3413 TIP3 OH2  OT    -0.834000       15.9994           0
   54558 WT3  3413 TIP3 H1   HT     0.417000        1.0080           0
   54559 WT3  3413 TIP3 H2   HT     0.417000        1.0080           0
   54560 WT3  3414 TIP3 OH2  OT    -0.834000       15.9994           0
   54561 WT3  3414 TIP3 H1   HT     0.417000        1.0080           0
   54562 WT3  3414 TIP3 H2   HT     0.417000        1.0080           0
   54563 WT3  3417 TIP3 OH2  OT    -0.834000       15.9994           0
   54564 WT3  3417 TIP3 H1   HT     0.417000        1.0080           0
   54565 WT3  3417 TIP3 H2   HT     0.417000        1.0080           0
   54566 WT3  3418 TIP3 OH2  OT    -0.834000       15.9994           0
   54567 WT3  3418 TIP3 H1   HT     0.417000        1.0080           0
   54568 WT3  3418 TIP3 H2   HT     0.417000        1.0080           0
   54569 WT3  3424 TIP3 OH2  OT    -0.834000       15.9994           0
   54570 WT3  3424 TIP3 H1   HT     0.417000        1.0080           0
   54571 WT3  3424 TIP3 H2   HT     0.417000        1.0080           0
   54572 WT3  3426 TIP3 OH2  OT    -0.834000       15.9994           0
   54573 WT3  3426 TIP3 H1   HT     0.417000        1.0080           0
   54574 WT3  3426 TIP3 H2   HT     0.417000        1.0080           0
   54575 WT3  3427 TIP3 OH2  OT    -0.834000       15.9994           0
   54576 WT3  3427 TIP3 H1   HT     0.417000        1.0080           0
   54577 WT3  3427 TIP3 H2   HT     0.417000        1.0080           0
   54578 WT3  3428 TIP3 OH2  OT    -0.834000       15.9994           0
   54579 WT3  3428 TIP3 H1   HT     0.417000        1.0080           0
   54580 WT3  3428 TIP3 H2   HT     0.417000        1.0080           0
   54581 WT3  3429 TIP3 OH2  OT    -0.834000       15.9994           0
   54582 WT3  3429 TIP3 H1   HT     0.417000        1.0080           0
   54583 WT3  3429 TIP3 H2   HT     0.417000        1.0080           0
   54584 WT3  3430 TIP3 OH2  OT    -0.834000       15.9994           0
   54585 WT3  3430 TIP3 H1   HT     0.417000        1.0080           0
   54586 WT3  3430 TIP3 H2   HT     0.417000        1.0080           0
   54587 WT3  3431 TIP3 OH2  OT    -0.834000       15.9994           0
   54588 WT3  3431 TIP3 H1   HT     0.417000        1.0080           0
   54589 WT3  3431 TIP3 H2   HT     0.417000        1.0080           0
   54590 WT3  3432 TIP3 OH2  OT    -0.834000       15.9994           0
   54591 WT3  3432 TIP3 H1   HT     0.417000        1.0080           0
   54592 WT3  3432 TIP3 H2   HT     0.417000        1.0080           0
   54593 WT3  3433 TIP3 OH2  OT    -0.834000       15.9994           0
   54594 WT3  3433 TIP3 H1   HT     0.417000        1.0080           0
   54595 WT3  3433 TIP3 H2   HT     0.417000        1.0080           0
   54596 WT3  3434 TIP3 OH2  OT    -0.834000       15.9994           0
   54597 WT3  3434 TIP3 H1   HT     0.417000        1.0080           0
   54598 WT3  3434 TIP3 H2   HT     0.417000        1.0080           0
   54599 WT3  3435 TIP3 OH2  OT    -0.834000       15.9994           0
   54600 WT3  3435 TIP3 H1   HT     0.417000        1.0080           0
   54601 WT3  3435 TIP3 H2   HT     0.417000        1.0080           0
   54602 WT3  3437 TIP3 OH2  OT    -0.834000       15.9994           0
   54603 WT3  3437 TIP3 H1   HT     0.417000        1.0080           0
   54604 WT3  3437 TIP3 H2   HT     0.417000        1.0080           0
   54605 WT3  3439 TIP3 OH2  OT    -0.834000       15.9994           0
   54606 WT3  3439 TIP3 H1   HT     0.417000        1.0080           0
   54607 WT3  3439 TIP3 H2   HT     0.417000        1.0080           0
   54608 WT3  3442 TIP3 OH2  OT    -0.834000       15.9994           0
   54609 WT3  3442 TIP3 H1   HT     0.417000        1.0080           0
   54610 WT3  3442 TIP3 H2   HT     0.417000        1.0080           0
   54611 WT3  3443 TIP3 OH2  OT    -0.834000       15.9994           0
   54612 WT3  3443 TIP3 H1   HT     0.417000        1.0080           0
   54613 WT3  3443 TIP3 H2   HT     0.417000        1.0080           0
   54614 WT3  3445 TIP3 OH2  OT    -0.834000       15.9994           0
   54615 WT3  3445 TIP3 H1   HT     0.417000        1.0080           0
   54616 WT3  3445 TIP3 H2   HT     0.417000        1.0080           0
   54617 WT3  3446 TIP3 OH2  OT    -0.834000       15.9994           0
   54618 WT3  3446 TIP3 H1   HT     0.417000        1.0080           0
   54619 WT3  3446 TIP3 H2   HT     0.417000        1.0080           0
   54620 WT3  3447 TIP3 OH2  OT    -0.834000       15.9994           0
   54621 WT3  3447 TIP3 H1   HT     0.417000        1.0080           0
   54622 WT3  3447 TIP3 H2   HT     0.417000        1.0080           0
   54623 WT3  3448 TIP3 OH2  OT    -0.834000       15.9994           0
   54624 WT3  3448 TIP3 H1   HT     0.417000        1.0080           0
   54625 WT3  3448 TIP3 H2   HT     0.417000        1.0080           0
   54626 WT3  3449 TIP3 OH2  OT    -0.834000       15.9994           0
   54627 WT3  3449 TIP3 H1   HT     0.417000        1.0080           0
   54628 WT3  3449 TIP3 H2   HT     0.417000        1.0080           0
   54629 WT3  3450 TIP3 OH2  OT    -0.834000       15.9994           0
   54630 WT3  3450 TIP3 H1   HT     0.417000        1.0080           0
   54631 WT3  3450 TIP3 H2   HT     0.417000        1.0080           0
   54632 WT3  3452 TIP3 OH2  OT    -0.834000       15.9994           0
   54633 WT3  3452 TIP3 H1   HT     0.417000        1.0080           0
   54634 WT3  3452 TIP3 H2   HT     0.417000        1.0080           0
   54635 WT3  3453 TIP3 OH2  OT    -0.834000       15.9994           0
   54636 WT3  3453 TIP3 H1   HT     0.417000        1.0080           0
   54637 WT3  3453 TIP3 H2   HT     0.417000        1.0080           0
   54638 WT3  3454 TIP3 OH2  OT    -0.834000       15.9994           0
   54639 WT3  3454 TIP3 H1   HT     0.417000        1.0080           0
   54640 WT3  3454 TIP3 H2   HT     0.417000        1.0080           0
   54641 WT3  3455 TIP3 OH2  OT    -0.834000       15.9994           0
   54642 WT3  3455 TIP3 H1   HT     0.417000        1.0080           0
   54643 WT3  3455 TIP3 H2   HT     0.417000        1.0080           0
   54644 WT3  3456 TIP3 OH2  OT    -0.834000       15.9994           0
   54645 WT3  3456 TIP3 H1   HT     0.417000        1.0080           0
   54646 WT3  3456 TIP3 H2   HT     0.417000        1.0080           0
   54647 WT3  3460 TIP3 OH2  OT    -0.834000       15.9994           0
   54648 WT3  3460 TIP3 H1   HT     0.417000        1.0080           0
   54649 WT3  3460 TIP3 H2   HT     0.417000        1.0080           0
   54650 WT3  3461 TIP3 OH2  OT    -0.834000       15.9994           0
   54651 WT3  3461 TIP3 H1   HT     0.417000        1.0080           0
   54652 WT3  3461 TIP3 H2   HT     0.417000        1.0080           0
   54653 WT3  3465 TIP3 OH2  OT    -0.834000       15.9994           0
   54654 WT3  3465 TIP3 H1   HT     0.417000        1.0080           0
   54655 WT3  3465 TIP3 H2   HT     0.417000        1.0080           0
   54656 WT3  3466 TIP3 OH2  OT    -0.834000       15.9994           0
   54657 WT3  3466 TIP3 H1   HT     0.417000        1.0080           0
   54658 WT3  3466 TIP3 H2   HT     0.417000        1.0080           0
   54659 WT3  3467 TIP3 OH2  OT    -0.834000       15.9994           0
   54660 WT3  3467 TIP3 H1   HT     0.417000        1.0080           0
   54661 WT3  3467 TIP3 H2   HT     0.417000        1.0080           0
   54662 WT3  3469 TIP3 OH2  OT    -0.834000       15.9994           0
   54663 WT3  3469 TIP3 H1   HT     0.417000        1.0080           0
   54664 WT3  3469 TIP3 H2   HT     0.417000        1.0080           0
   54665 WT3  3470 TIP3 OH2  OT    -0.834000       15.9994           0
   54666 WT3  3470 TIP3 H1   HT     0.417000        1.0080           0
   54667 WT3  3470 TIP3 H2   HT     0.417000        1.0080           0
   54668 WT3  3471 TIP3 OH2  OT    -0.834000       15.9994           0
   54669 WT3  3471 TIP3 H1   HT     0.417000        1.0080           0
   54670 WT3  3471 TIP3 H2   HT     0.417000        1.0080           0
   54671 WT3  3473 TIP3 OH2  OT    -0.834000       15.9994           0
   54672 WT3  3473 TIP3 H1   HT     0.417000        1.0080           0
   54673 WT3  3473 TIP3 H2   HT     0.417000        1.0080           0
   54674 WT3  3475 TIP3 OH2  OT    -0.834000       15.9994           0
   54675 WT3  3475 TIP3 H1   HT     0.417000        1.0080           0
   54676 WT3  3475 TIP3 H2   HT     0.417000        1.0080           0
   54677 WT3  3476 TIP3 OH2  OT    -0.834000       15.9994           0
   54678 WT3  3476 TIP3 H1   HT     0.417000        1.0080           0
   54679 WT3  3476 TIP3 H2   HT     0.417000        1.0080           0
   54680 WT3  3478 TIP3 OH2  OT    -0.834000       15.9994           0
   54681 WT3  3478 TIP3 H1   HT     0.417000        1.0080           0
   54682 WT3  3478 TIP3 H2   HT     0.417000        1.0080           0
   54683 WT3  3479 TIP3 OH2  OT    -0.834000       15.9994           0
   54684 WT3  3479 TIP3 H1   HT     0.417000        1.0080           0
   54685 WT3  3479 TIP3 H2   HT     0.417000        1.0080           0
   54686 WT3  3484 TIP3 OH2  OT    -0.834000       15.9994           0
   54687 WT3  3484 TIP3 H1   HT     0.417000        1.0080           0
   54688 WT3  3484 TIP3 H2   HT     0.417000        1.0080           0
   54689 WT3  3486 TIP3 OH2  OT    -0.834000       15.9994           0
   54690 WT3  3486 TIP3 H1   HT     0.417000        1.0080           0
   54691 WT3  3486 TIP3 H2   HT     0.417000        1.0080           0
   54692 WT3  3488 TIP3 OH2  OT    -0.834000       15.9994           0
   54693 WT3  3488 TIP3 H1   HT     0.417000        1.0080           0
   54694 WT3  3488 TIP3 H2   HT     0.417000        1.0080           0
   54695 WT3  3489 TIP3 OH2  OT    -0.834000       15.9994           0
   54696 WT3  3489 TIP3 H1   HT     0.417000        1.0080           0
   54697 WT3  3489 TIP3 H2   HT     0.417000        1.0080           0
   54698 WT3  3490 TIP3 OH2  OT    -0.834000       15.9994           0
   54699 WT3  3490 TIP3 H1   HT     0.417000        1.0080           0
   54700 WT3  3490 TIP3 H2   HT     0.417000        1.0080           0
   54701 WT3  3492 TIP3 OH2  OT    -0.834000       15.9994           0
   54702 WT3  3492 TIP3 H1   HT     0.417000        1.0080           0
   54703 WT3  3492 TIP3 H2   HT     0.417000        1.0080           0
   54704 WT3  3493 TIP3 OH2  OT    -0.834000       15.9994           0
   54705 WT3  3493 TIP3 H1   HT     0.417000        1.0080           0
   54706 WT3  3493 TIP3 H2   HT     0.417000        1.0080           0
   54707 WT3  3494 TIP3 OH2  OT    -0.834000       15.9994           0
   54708 WT3  3494 TIP3 H1   HT     0.417000        1.0080           0
   54709 WT3  3494 TIP3 H2   HT     0.417000        1.0080           0
   54710 WT3  3495 TIP3 OH2  OT    -0.834000       15.9994           0
   54711 WT3  3495 TIP3 H1   HT     0.417000        1.0080           0
   54712 WT3  3495 TIP3 H2   HT     0.417000        1.0080           0
   54713 WT3  3496 TIP3 OH2  OT    -0.834000       15.9994           0
   54714 WT3  3496 TIP3 H1   HT     0.417000        1.0080           0
   54715 WT3  3496 TIP3 H2   HT     0.417000        1.0080           0
   54716 WT3  3497 TIP3 OH2  OT    -0.834000       15.9994           0
   54717 WT3  3497 TIP3 H1   HT     0.417000        1.0080           0
   54718 WT3  3497 TIP3 H2   HT     0.417000        1.0080           0
   54719 WT3  3498 TIP3 OH2  OT    -0.834000       15.9994           0
   54720 WT3  3498 TIP3 H1   HT     0.417000        1.0080           0
   54721 WT3  3498 TIP3 H2   HT     0.417000        1.0080           0
   54722 WT3  3499 TIP3 OH2  OT    -0.834000       15.9994           0
   54723 WT3  3499 TIP3 H1   HT     0.417000        1.0080           0
   54724 WT3  3499 TIP3 H2   HT     0.417000        1.0080           0
   54725 WT3  3500 TIP3 OH2  OT    -0.834000       15.9994           0
   54726 WT3  3500 TIP3 H1   HT     0.417000        1.0080           0
   54727 WT3  3500 TIP3 H2   HT     0.417000        1.0080           0
   54728 WT3  3502 TIP3 OH2  OT    -0.834000       15.9994           0
   54729 WT3  3502 TIP3 H1   HT     0.417000        1.0080           0
   54730 WT3  3502 TIP3 H2   HT     0.417000        1.0080           0
   54731 WT3  3503 TIP3 OH2  OT    -0.834000       15.9994           0
   54732 WT3  3503 TIP3 H1   HT     0.417000        1.0080           0
   54733 WT3  3503 TIP3 H2   HT     0.417000        1.0080           0
   54734 WT3  3504 TIP3 OH2  OT    -0.834000       15.9994           0
   54735 WT3  3504 TIP3 H1   HT     0.417000        1.0080           0
   54736 WT3  3504 TIP3 H2   HT     0.417000        1.0080           0
   54737 WT3  3508 TIP3 OH2  OT    -0.834000       15.9994           0
   54738 WT3  3508 TIP3 H1   HT     0.417000        1.0080           0
   54739 WT3  3508 TIP3 H2   HT     0.417000        1.0080           0
   54740 WT3  3510 TIP3 OH2  OT    -0.834000       15.9994           0
   54741 WT3  3510 TIP3 H1   HT     0.417000        1.0080           0
   54742 WT3  3510 TIP3 H2   HT     0.417000        1.0080           0
   54743 WT3  3511 TIP3 OH2  OT    -0.834000       15.9994           0
   54744 WT3  3511 TIP3 H1   HT     0.417000        1.0080           0
   54745 WT3  3511 TIP3 H2   HT     0.417000        1.0080           0
   54746 WT3  3512 TIP3 OH2  OT    -0.834000       15.9994           0
   54747 WT3  3512 TIP3 H1   HT     0.417000        1.0080           0
   54748 WT3  3512 TIP3 H2   HT     0.417000        1.0080           0
   54749 WT3  3513 TIP3 OH2  OT    -0.834000       15.9994           0
   54750 WT3  3513 TIP3 H1   HT     0.417000        1.0080           0
   54751 WT3  3513 TIP3 H2   HT     0.417000        1.0080           0
   54752 WT3  3514 TIP3 OH2  OT    -0.834000       15.9994           0
   54753 WT3  3514 TIP3 H1   HT     0.417000        1.0080           0
   54754 WT3  3514 TIP3 H2   HT     0.417000        1.0080           0
   54755 WT3  3515 TIP3 OH2  OT    -0.834000       15.9994           0
   54756 WT3  3515 TIP3 H1   HT     0.417000        1.0080           0
   54757 WT3  3515 TIP3 H2   HT     0.417000        1.0080           0
   54758 WT3  3516 TIP3 OH2  OT    -0.834000       15.9994           0
   54759 WT3  3516 TIP3 H1   HT     0.417000        1.0080           0
   54760 WT3  3516 TIP3 H2   HT     0.417000        1.0080           0
   54761 WT3  3518 TIP3 OH2  OT    -0.834000       15.9994           0
   54762 WT3  3518 TIP3 H1   HT     0.417000        1.0080           0
   54763 WT3  3518 TIP3 H2   HT     0.417000        1.0080           0
   54764 WT3  3519 TIP3 OH2  OT    -0.834000       15.9994           0
   54765 WT3  3519 TIP3 H1   HT     0.417000        1.0080           0
   54766 WT3  3519 TIP3 H2   HT     0.417000        1.0080           0
   54767 WT3  3520 TIP3 OH2  OT    -0.834000       15.9994           0
   54768 WT3  3520 TIP3 H1   HT     0.417000        1.0080           0
   54769 WT3  3520 TIP3 H2   HT     0.417000        1.0080           0
   54770 WT3  3527 TIP3 OH2  OT    -0.834000       15.9994           0
   54771 WT3  3527 TIP3 H1   HT     0.417000        1.0080           0
   54772 WT3  3527 TIP3 H2   HT     0.417000        1.0080           0
   54773 WT3  3530 TIP3 OH2  OT    -0.834000       15.9994           0
   54774 WT3  3530 TIP3 H1   HT     0.417000        1.0080           0
   54775 WT3  3530 TIP3 H2   HT     0.417000        1.0080           0
   54776 WT3  3531 TIP3 OH2  OT    -0.834000       15.9994           0
   54777 WT3  3531 TIP3 H1   HT     0.417000        1.0080           0
   54778 WT3  3531 TIP3 H2   HT     0.417000        1.0080           0
   54779 WT3  3532 TIP3 OH2  OT    -0.834000       15.9994           0
   54780 WT3  3532 TIP3 H1   HT     0.417000        1.0080           0
   54781 WT3  3532 TIP3 H2   HT     0.417000        1.0080           0
   54782 WT3  3533 TIP3 OH2  OT    -0.834000       15.9994           0
   54783 WT3  3533 TIP3 H1   HT     0.417000        1.0080           0
   54784 WT3  3533 TIP3 H2   HT     0.417000        1.0080           0
   54785 WT3  3534 TIP3 OH2  OT    -0.834000       15.9994           0
   54786 WT3  3534 TIP3 H1   HT     0.417000        1.0080           0
   54787 WT3  3534 TIP3 H2   HT     0.417000        1.0080           0
   54788 WT3  3535 TIP3 OH2  OT    -0.834000       15.9994           0
   54789 WT3  3535 TIP3 H1   HT     0.417000        1.0080           0
   54790 WT3  3535 TIP3 H2   HT     0.417000        1.0080           0
   54791 WT3  3537 TIP3 OH2  OT    -0.834000       15.9994           0
   54792 WT3  3537 TIP3 H1   HT     0.417000        1.0080           0
   54793 WT3  3537 TIP3 H2   HT     0.417000        1.0080           0
   54794 WT3  3538 TIP3 OH2  OT    -0.834000       15.9994           0
   54795 WT3  3538 TIP3 H1   HT     0.417000        1.0080           0
   54796 WT3  3538 TIP3 H2   HT     0.417000        1.0080           0
   54797 WT3  3539 TIP3 OH2  OT    -0.834000       15.9994           0
   54798 WT3  3539 TIP3 H1   HT     0.417000        1.0080           0
   54799 WT3  3539 TIP3 H2   HT     0.417000        1.0080           0
   54800 WT3  3540 TIP3 OH2  OT    -0.834000       15.9994           0
   54801 WT3  3540 TIP3 H1   HT     0.417000        1.0080           0
   54802 WT3  3540 TIP3 H2   HT     0.417000        1.0080           0
   54803 WT3  3541 TIP3 OH2  OT    -0.834000       15.9994           0
   54804 WT3  3541 TIP3 H1   HT     0.417000        1.0080           0
   54805 WT3  3541 TIP3 H2   HT     0.417000        1.0080           0
   54806 WT3  3542 TIP3 OH2  OT    -0.834000       15.9994           0
   54807 WT3  3542 TIP3 H1   HT     0.417000        1.0080           0
   54808 WT3  3542 TIP3 H2   HT     0.417000        1.0080           0
   54809 WT3  3544 TIP3 OH2  OT    -0.834000       15.9994           0
   54810 WT3  3544 TIP3 H1   HT     0.417000        1.0080           0
   54811 WT3  3544 TIP3 H2   HT     0.417000        1.0080           0
   54812 WT3  3545 TIP3 OH2  OT    -0.834000       15.9994           0
   54813 WT3  3545 TIP3 H1   HT     0.417000        1.0080           0
   54814 WT3  3545 TIP3 H2   HT     0.417000        1.0080           0
   54815 WT3  3550 TIP3 OH2  OT    -0.834000       15.9994           0
   54816 WT3  3550 TIP3 H1   HT     0.417000        1.0080           0
   54817 WT3  3550 TIP3 H2   HT     0.417000        1.0080           0
   54818 WT3  3551 TIP3 OH2  OT    -0.834000       15.9994           0
   54819 WT3  3551 TIP3 H1   HT     0.417000        1.0080           0
   54820 WT3  3551 TIP3 H2   HT     0.417000        1.0080           0
   54821 WT3  3554 TIP3 OH2  OT    -0.834000       15.9994           0
   54822 WT3  3554 TIP3 H1   HT     0.417000        1.0080           0
   54823 WT3  3554 TIP3 H2   HT     0.417000        1.0080           0
   54824 WT3  3555 TIP3 OH2  OT    -0.834000       15.9994           0
   54825 WT3  3555 TIP3 H1   HT     0.417000        1.0080           0
   54826 WT3  3555 TIP3 H2   HT     0.417000        1.0080           0
   54827 WT3  3556 TIP3 OH2  OT    -0.834000       15.9994           0
   54828 WT3  3556 TIP3 H1   HT     0.417000        1.0080           0
   54829 WT3  3556 TIP3 H2   HT     0.417000        1.0080           0
   54830 WT3  3557 TIP3 OH2  OT    -0.834000       15.9994           0
   54831 WT3  3557 TIP3 H1   HT     0.417000        1.0080           0
   54832 WT3  3557 TIP3 H2   HT     0.417000        1.0080           0
   54833 WT3  3558 TIP3 OH2  OT    -0.834000       15.9994           0
   54834 WT3  3558 TIP3 H1   HT     0.417000        1.0080           0
   54835 WT3  3558 TIP3 H2   HT     0.417000        1.0080           0
   54836 WT3  3559 TIP3 OH2  OT    -0.834000       15.9994           0
   54837 WT3  3559 TIP3 H1   HT     0.417000        1.0080           0
   54838 WT3  3559 TIP3 H2   HT     0.417000        1.0080           0
   54839 WT3  3560 TIP3 OH2  OT    -0.834000       15.9994           0
   54840 WT3  3560 TIP3 H1   HT     0.417000        1.0080           0
   54841 WT3  3560 TIP3 H2   HT     0.417000        1.0080           0
   54842 WT3  3561 TIP3 OH2  OT    -0.834000       15.9994           0
   54843 WT3  3561 TIP3 H1   HT     0.417000        1.0080           0
   54844 WT3  3561 TIP3 H2   HT     0.417000        1.0080           0
   54845 WT3  3563 TIP3 OH2  OT    -0.834000       15.9994           0
   54846 WT3  3563 TIP3 H1   HT     0.417000        1.0080           0
   54847 WT3  3563 TIP3 H2   HT     0.417000        1.0080           0
   54848 WT3  3565 TIP3 OH2  OT    -0.834000       15.9994           0
   54849 WT3  3565 TIP3 H1   HT     0.417000        1.0080           0
   54850 WT3  3565 TIP3 H2   HT     0.417000        1.0080           0
   54851 WT3  3569 TIP3 OH2  OT    -0.834000       15.9994           0
   54852 WT3  3569 TIP3 H1   HT     0.417000        1.0080           0
   54853 WT3  3569 TIP3 H2   HT     0.417000        1.0080           0
   54854 WT3  3570 TIP3 OH2  OT    -0.834000       15.9994           0
   54855 WT3  3570 TIP3 H1   HT     0.417000        1.0080           0
   54856 WT3  3570 TIP3 H2   HT     0.417000        1.0080           0
   54857 WT3  3572 TIP3 OH2  OT    -0.834000       15.9994           0
   54858 WT3  3572 TIP3 H1   HT     0.417000        1.0080           0
   54859 WT3  3572 TIP3 H2   HT     0.417000        1.0080           0
   54860 WT3  3573 TIP3 OH2  OT    -0.834000       15.9994           0
   54861 WT3  3573 TIP3 H1   HT     0.417000        1.0080           0
   54862 WT3  3573 TIP3 H2   HT     0.417000        1.0080           0
   54863 WT3  3574 TIP3 OH2  OT    -0.834000       15.9994           0
   54864 WT3  3574 TIP3 H1   HT     0.417000        1.0080           0
   54865 WT3  3574 TIP3 H2   HT     0.417000        1.0080           0
   54866 WT3  3575 TIP3 OH2  OT    -0.834000       15.9994           0
   54867 WT3  3575 TIP3 H1   HT     0.417000        1.0080           0
   54868 WT3  3575 TIP3 H2   HT     0.417000        1.0080           0
   54869 WT3  3576 TIP3 OH2  OT    -0.834000       15.9994           0
   54870 WT3  3576 TIP3 H1   HT     0.417000        1.0080           0
   54871 WT3  3576 TIP3 H2   HT     0.417000        1.0080           0
   54872 WT3  3578 TIP3 OH2  OT    -0.834000       15.9994           0
   54873 WT3  3578 TIP3 H1   HT     0.417000        1.0080           0
   54874 WT3  3578 TIP3 H2   HT     0.417000        1.0080           0
   54875 WT3  3579 TIP3 OH2  OT    -0.834000       15.9994           0
   54876 WT3  3579 TIP3 H1   HT     0.417000        1.0080           0
   54877 WT3  3579 TIP3 H2   HT     0.417000        1.0080           0
   54878 WT3  3580 TIP3 OH2  OT    -0.834000       15.9994           0
   54879 WT3  3580 TIP3 H1   HT     0.417000        1.0080           0
   54880 WT3  3580 TIP3 H2   HT     0.417000        1.0080           0
   54881 WT3  3581 TIP3 OH2  OT    -0.834000       15.9994           0
   54882 WT3  3581 TIP3 H1   HT     0.417000        1.0080           0
   54883 WT3  3581 TIP3 H2   HT     0.417000        1.0080           0
   54884 WT3  3583 TIP3 OH2  OT    -0.834000       15.9994           0
   54885 WT3  3583 TIP3 H1   HT     0.417000        1.0080           0
   54886 WT3  3583 TIP3 H2   HT     0.417000        1.0080           0
   54887 WT3  3586 TIP3 OH2  OT    -0.834000       15.9994           0
   54888 WT3  3586 TIP3 H1   HT     0.417000        1.0080           0
   54889 WT3  3586 TIP3 H2   HT     0.417000        1.0080           0
   54890 WT3  3591 TIP3 OH2  OT    -0.834000       15.9994           0
   54891 WT3  3591 TIP3 H1   HT     0.417000        1.0080           0
   54892 WT3  3591 TIP3 H2   HT     0.417000        1.0080           0
   54893 WT3  3592 TIP3 OH2  OT    -0.834000       15.9994           0
   54894 WT3  3592 TIP3 H1   HT     0.417000        1.0080           0
   54895 WT3  3592 TIP3 H2   HT     0.417000        1.0080           0
   54896 WT3  3593 TIP3 OH2  OT    -0.834000       15.9994           0
   54897 WT3  3593 TIP3 H1   HT     0.417000        1.0080           0
   54898 WT3  3593 TIP3 H2   HT     0.417000        1.0080           0
   54899 WT3  3594 TIP3 OH2  OT    -0.834000       15.9994           0
   54900 WT3  3594 TIP3 H1   HT     0.417000        1.0080           0
   54901 WT3  3594 TIP3 H2   HT     0.417000        1.0080           0
   54902 WT3  3595 TIP3 OH2  OT    -0.834000       15.9994           0
   54903 WT3  3595 TIP3 H1   HT     0.417000        1.0080           0
   54904 WT3  3595 TIP3 H2   HT     0.417000        1.0080           0
   54905 WT3  3596 TIP3 OH2  OT    -0.834000       15.9994           0
   54906 WT3  3596 TIP3 H1   HT     0.417000        1.0080           0
   54907 WT3  3596 TIP3 H2   HT     0.417000        1.0080           0
   54908 WT3  3597 TIP3 OH2  OT    -0.834000       15.9994           0
   54909 WT3  3597 TIP3 H1   HT     0.417000        1.0080           0
   54910 WT3  3597 TIP3 H2   HT     0.417000        1.0080           0
   54911 WT3  3598 TIP3 OH2  OT    -0.834000       15.9994           0
   54912 WT3  3598 TIP3 H1   HT     0.417000        1.0080           0
   54913 WT3  3598 TIP3 H2   HT     0.417000        1.0080           0
   54914 WT3  3599 TIP3 OH2  OT    -0.834000       15.9994           0
   54915 WT3  3599 TIP3 H1   HT     0.417000        1.0080           0
   54916 WT3  3599 TIP3 H2   HT     0.417000        1.0080           0
   54917 WT3  3600 TIP3 OH2  OT    -0.834000       15.9994           0
   54918 WT3  3600 TIP3 H1   HT     0.417000        1.0080           0
   54919 WT3  3600 TIP3 H2   HT     0.417000        1.0080           0
   54920 WT3  3601 TIP3 OH2  OT    -0.834000       15.9994           0
   54921 WT3  3601 TIP3 H1   HT     0.417000        1.0080           0
   54922 WT3  3601 TIP3 H2   HT     0.417000        1.0080           0
   54923 WT3  3603 TIP3 OH2  OT    -0.834000       15.9994           0
   54924 WT3  3603 TIP3 H1   HT     0.417000        1.0080           0
   54925 WT3  3603 TIP3 H2   HT     0.417000        1.0080           0
   54926 WT3  3604 TIP3 OH2  OT    -0.834000       15.9994           0
   54927 WT3  3604 TIP3 H1   HT     0.417000        1.0080           0
   54928 WT3  3604 TIP3 H2   HT     0.417000        1.0080           0
   54929 WT3  3612 TIP3 OH2  OT    -0.834000       15.9994           0
   54930 WT3  3612 TIP3 H1   HT     0.417000        1.0080           0
   54931 WT3  3612 TIP3 H2   HT     0.417000        1.0080           0
   54932 WT3  3614 TIP3 OH2  OT    -0.834000       15.9994           0
   54933 WT3  3614 TIP3 H1   HT     0.417000        1.0080           0
   54934 WT3  3614 TIP3 H2   HT     0.417000        1.0080           0
   54935 WT3  3615 TIP3 OH2  OT    -0.834000       15.9994           0
   54936 WT3  3615 TIP3 H1   HT     0.417000        1.0080           0
   54937 WT3  3615 TIP3 H2   HT     0.417000        1.0080           0
   54938 WT3  3616 TIP3 OH2  OT    -0.834000       15.9994           0
   54939 WT3  3616 TIP3 H1   HT     0.417000        1.0080           0
   54940 WT3  3616 TIP3 H2   HT     0.417000        1.0080           0
   54941 WT3  3617 TIP3 OH2  OT    -0.834000       15.9994           0
   54942 WT3  3617 TIP3 H1   HT     0.417000        1.0080           0
   54943 WT3  3617 TIP3 H2   HT     0.417000        1.0080           0
   54944 WT3  3618 TIP3 OH2  OT    -0.834000       15.9994           0
   54945 WT3  3618 TIP3 H1   HT     0.417000        1.0080           0
   54946 WT3  3618 TIP3 H2   HT     0.417000        1.0080           0
   54947 WT3  3619 TIP3 OH2  OT    -0.834000       15.9994           0
   54948 WT3  3619 TIP3 H1   HT     0.417000        1.0080           0
   54949 WT3  3619 TIP3 H2   HT     0.417000        1.0080           0
   54950 WT3  3620 TIP3 OH2  OT    -0.834000       15.9994           0
   54951 WT3  3620 TIP3 H1   HT     0.417000        1.0080           0
   54952 WT3  3620 TIP3 H2   HT     0.417000        1.0080           0
   54953 WT3  3621 TIP3 OH2  OT    -0.834000       15.9994           0
   54954 WT3  3621 TIP3 H1   HT     0.417000        1.0080           0
   54955 WT3  3621 TIP3 H2   HT     0.417000        1.0080           0
   54956 WT3  3622 TIP3 OH2  OT    -0.834000       15.9994           0
   54957 WT3  3622 TIP3 H1   HT     0.417000        1.0080           0
   54958 WT3  3622 TIP3 H2   HT     0.417000        1.0080           0
   54959 WT3  3623 TIP3 OH2  OT    -0.834000       15.9994           0
   54960 WT3  3623 TIP3 H1   HT     0.417000        1.0080           0
   54961 WT3  3623 TIP3 H2   HT     0.417000        1.0080           0
   54962 WT3  3625 TIP3 OH2  OT    -0.834000       15.9994           0
   54963 WT3  3625 TIP3 H1   HT     0.417000        1.0080           0
   54964 WT3  3625 TIP3 H2   HT     0.417000        1.0080           0
   54965 WT3  3626 TIP3 OH2  OT    -0.834000       15.9994           0
   54966 WT3  3626 TIP3 H1   HT     0.417000        1.0080           0
   54967 WT3  3626 TIP3 H2   HT     0.417000        1.0080           0
   54968 WT3  3627 TIP3 OH2  OT    -0.834000       15.9994           0
   54969 WT3  3627 TIP3 H1   HT     0.417000        1.0080           0
   54970 WT3  3627 TIP3 H2   HT     0.417000        1.0080           0
   54971 WT3  3628 TIP3 OH2  OT    -0.834000       15.9994           0
   54972 WT3  3628 TIP3 H1   HT     0.417000        1.0080           0
   54973 WT3  3628 TIP3 H2   HT     0.417000        1.0080           0
   54974 WT3  3633 TIP3 OH2  OT    -0.834000       15.9994           0
   54975 WT3  3633 TIP3 H1   HT     0.417000        1.0080           0
   54976 WT3  3633 TIP3 H2   HT     0.417000        1.0080           0
   54977 WT3  3636 TIP3 OH2  OT    -0.834000       15.9994           0
   54978 WT3  3636 TIP3 H1   HT     0.417000        1.0080           0
   54979 WT3  3636 TIP3 H2   HT     0.417000        1.0080           0
   54980 WT3  3639 TIP3 OH2  OT    -0.834000       15.9994           0
   54981 WT3  3639 TIP3 H1   HT     0.417000        1.0080           0
   54982 WT3  3639 TIP3 H2   HT     0.417000        1.0080           0
   54983 WT3  3640 TIP3 OH2  OT    -0.834000       15.9994           0
   54984 WT3  3640 TIP3 H1   HT     0.417000        1.0080           0
   54985 WT3  3640 TIP3 H2   HT     0.417000        1.0080           0
   54986 WT3  3641 TIP3 OH2  OT    -0.834000       15.9994           0
   54987 WT3  3641 TIP3 H1   HT     0.417000        1.0080           0
   54988 WT3  3641 TIP3 H2   HT     0.417000        1.0080           0
   54989 WT3  3642 TIP3 OH2  OT    -0.834000       15.9994           0
   54990 WT3  3642 TIP3 H1   HT     0.417000        1.0080           0
   54991 WT3  3642 TIP3 H2   HT     0.417000        1.0080           0
   54992 WT3  3643 TIP3 OH2  OT    -0.834000       15.9994           0
   54993 WT3  3643 TIP3 H1   HT     0.417000        1.0080           0
   54994 WT3  3643 TIP3 H2   HT     0.417000        1.0080           0
   54995 WT3  3644 TIP3 OH2  OT    -0.834000       15.9994           0
   54996 WT3  3644 TIP3 H1   HT     0.417000        1.0080           0
   54997 WT3  3644 TIP3 H2   HT     0.417000        1.0080           0
   54998 WT3  3645 TIP3 OH2  OT    -0.834000       15.9994           0
   54999 WT3  3645 TIP3 H1   HT     0.417000        1.0080           0
   55000 WT3  3645 TIP3 H2   HT     0.417000        1.0080           0
   55001 WT3  3646 TIP3 OH2  OT    -0.834000       15.9994           0
   55002 WT3  3646 TIP3 H1   HT     0.417000        1.0080           0
   55003 WT3  3646 TIP3 H2   HT     0.417000        1.0080           0
   55004 WT3  3650 TIP3 OH2  OT    -0.834000       15.9994           0
   55005 WT3  3650 TIP3 H1   HT     0.417000        1.0080           0
   55006 WT3  3650 TIP3 H2   HT     0.417000        1.0080           0
   55007 WT3  3653 TIP3 OH2  OT    -0.834000       15.9994           0
   55008 WT3  3653 TIP3 H1   HT     0.417000        1.0080           0
   55009 WT3  3653 TIP3 H2   HT     0.417000        1.0080           0
   55010 WT3  3657 TIP3 OH2  OT    -0.834000       15.9994           0
   55011 WT3  3657 TIP3 H1   HT     0.417000        1.0080           0
   55012 WT3  3657 TIP3 H2   HT     0.417000        1.0080           0
   55013 WT3  3658 TIP3 OH2  OT    -0.834000       15.9994           0
   55014 WT3  3658 TIP3 H1   HT     0.417000        1.0080           0
   55015 WT3  3658 TIP3 H2   HT     0.417000        1.0080           0
   55016 WT3  3659 TIP3 OH2  OT    -0.834000       15.9994           0
   55017 WT3  3659 TIP3 H1   HT     0.417000        1.0080           0
   55018 WT3  3659 TIP3 H2   HT     0.417000        1.0080           0
   55019 WT3  3660 TIP3 OH2  OT    -0.834000       15.9994           0
   55020 WT3  3660 TIP3 H1   HT     0.417000        1.0080           0
   55021 WT3  3660 TIP3 H2   HT     0.417000        1.0080           0
   55022 WT3  3662 TIP3 OH2  OT    -0.834000       15.9994           0
   55023 WT3  3662 TIP3 H1   HT     0.417000        1.0080           0
   55024 WT3  3662 TIP3 H2   HT     0.417000        1.0080           0
   55025 WT3  3663 TIP3 OH2  OT    -0.834000       15.9994           0
   55026 WT3  3663 TIP3 H1   HT     0.417000        1.0080           0
   55027 WT3  3663 TIP3 H2   HT     0.417000        1.0080           0
   55028 WT3  3664 TIP3 OH2  OT    -0.834000       15.9994           0
   55029 WT3  3664 TIP3 H1   HT     0.417000        1.0080           0
   55030 WT3  3664 TIP3 H2   HT     0.417000        1.0080           0
   55031 WT3  3666 TIP3 OH2  OT    -0.834000       15.9994           0
   55032 WT3  3666 TIP3 H1   HT     0.417000        1.0080           0
   55033 WT3  3666 TIP3 H2   HT     0.417000        1.0080           0
   55034 WT3  3667 TIP3 OH2  OT    -0.834000       15.9994           0
   55035 WT3  3667 TIP3 H1   HT     0.417000        1.0080           0
   55036 WT3  3667 TIP3 H2   HT     0.417000        1.0080           0
   55037 WT3  3675 TIP3 OH2  OT    -0.834000       15.9994           0
   55038 WT3  3675 TIP3 H1   HT     0.417000        1.0080           0
   55039 WT3  3675 TIP3 H2   HT     0.417000        1.0080           0
   55040 WT3  3677 TIP3 OH2  OT    -0.834000       15.9994           0
   55041 WT3  3677 TIP3 H1   HT     0.417000        1.0080           0
   55042 WT3  3677 TIP3 H2   HT     0.417000        1.0080           0
   55043 WT3  3678 TIP3 OH2  OT    -0.834000       15.9994           0
   55044 WT3  3678 TIP3 H1   HT     0.417000        1.0080           0
   55045 WT3  3678 TIP3 H2   HT     0.417000        1.0080           0
   55046 WT3  3680 TIP3 OH2  OT    -0.834000       15.9994           0
   55047 WT3  3680 TIP3 H1   HT     0.417000        1.0080           0
   55048 WT3  3680 TIP3 H2   HT     0.417000        1.0080           0
   55049 WT3  3681 TIP3 OH2  OT    -0.834000       15.9994           0
   55050 WT3  3681 TIP3 H1   HT     0.417000        1.0080           0
   55051 WT3  3681 TIP3 H2   HT     0.417000        1.0080           0
   55052 WT3  3682 TIP3 OH2  OT    -0.834000       15.9994           0
   55053 WT3  3682 TIP3 H1   HT     0.417000        1.0080           0
   55054 WT3  3682 TIP3 H2   HT     0.417000        1.0080           0
   55055 WT3  3683 TIP3 OH2  OT    -0.834000       15.9994           0
   55056 WT3  3683 TIP3 H1   HT     0.417000        1.0080           0
   55057 WT3  3683 TIP3 H2   HT     0.417000        1.0080           0
   55058 WT3  3684 TIP3 OH2  OT    -0.834000       15.9994           0
   55059 WT3  3684 TIP3 H1   HT     0.417000        1.0080           0
   55060 WT3  3684 TIP3 H2   HT     0.417000        1.0080           0
   55061 WT3  3685 TIP3 OH2  OT    -0.834000       15.9994           0
   55062 WT3  3685 TIP3 H1   HT     0.417000        1.0080           0
   55063 WT3  3685 TIP3 H2   HT     0.417000        1.0080           0
   55064 WT3  3686 TIP3 OH2  OT    -0.834000       15.9994           0
   55065 WT3  3686 TIP3 H1   HT     0.417000        1.0080           0
   55066 WT3  3686 TIP3 H2   HT     0.417000        1.0080           0
   55067 WT3  3687 TIP3 OH2  OT    -0.834000       15.9994           0
   55068 WT3  3687 TIP3 H1   HT     0.417000        1.0080           0
   55069 WT3  3687 TIP3 H2   HT     0.417000        1.0080           0
   55070 WT3  3690 TIP3 OH2  OT    -0.834000       15.9994           0
   55071 WT3  3690 TIP3 H1   HT     0.417000        1.0080           0
   55072 WT3  3690 TIP3 H2   HT     0.417000        1.0080           0
   55073 WT3  3693 TIP3 OH2  OT    -0.834000       15.9994           0
   55074 WT3  3693 TIP3 H1   HT     0.417000        1.0080           0
   55075 WT3  3693 TIP3 H2   HT     0.417000        1.0080           0
   55076 WT3  3697 TIP3 OH2  OT    -0.834000       15.9994           0
   55077 WT3  3697 TIP3 H1   HT     0.417000        1.0080           0
   55078 WT3  3697 TIP3 H2   HT     0.417000        1.0080           0
   55079 WT3  3698 TIP3 OH2  OT    -0.834000       15.9994           0
   55080 WT3  3698 TIP3 H1   HT     0.417000        1.0080           0
   55081 WT3  3698 TIP3 H2   HT     0.417000        1.0080           0
   55082 WT3  3700 TIP3 OH2  OT    -0.834000       15.9994           0
   55083 WT3  3700 TIP3 H1   HT     0.417000        1.0080           0
   55084 WT3  3700 TIP3 H2   HT     0.417000        1.0080           0
   55085 WT3  3701 TIP3 OH2  OT    -0.834000       15.9994           0
   55086 WT3  3701 TIP3 H1   HT     0.417000        1.0080           0
   55087 WT3  3701 TIP3 H2   HT     0.417000        1.0080           0
   55088 WT3  3702 TIP3 OH2  OT    -0.834000       15.9994           0
   55089 WT3  3702 TIP3 H1   HT     0.417000        1.0080           0
   55090 WT3  3702 TIP3 H2   HT     0.417000        1.0080           0
   55091 WT3  3703 TIP3 OH2  OT    -0.834000       15.9994           0
   55092 WT3  3703 TIP3 H1   HT     0.417000        1.0080           0
   55093 WT3  3703 TIP3 H2   HT     0.417000        1.0080           0
   55094 WT3  3704 TIP3 OH2  OT    -0.834000       15.9994           0
   55095 WT3  3704 TIP3 H1   HT     0.417000        1.0080           0
   55096 WT3  3704 TIP3 H2   HT     0.417000        1.0080           0
   55097 WT3  3706 TIP3 OH2  OT    -0.834000       15.9994           0
   55098 WT3  3706 TIP3 H1   HT     0.417000        1.0080           0
   55099 WT3  3706 TIP3 H2   HT     0.417000        1.0080           0
   55100 WT3  3707 TIP3 OH2  OT    -0.834000       15.9994           0
   55101 WT3  3707 TIP3 H1   HT     0.417000        1.0080           0
   55102 WT3  3707 TIP3 H2   HT     0.417000        1.0080           0
   55103 WT3  3708 TIP3 OH2  OT    -0.834000       15.9994           0
   55104 WT3  3708 TIP3 H1   HT     0.417000        1.0080           0
   55105 WT3  3708 TIP3 H2   HT     0.417000        1.0080           0
   55106 WT3  3709 TIP3 OH2  OT    -0.834000       15.9994           0
   55107 WT3  3709 TIP3 H1   HT     0.417000        1.0080           0
   55108 WT3  3709 TIP3 H2   HT     0.417000        1.0080           0
   55109 WT3  3710 TIP3 OH2  OT    -0.834000       15.9994           0
   55110 WT3  3710 TIP3 H1   HT     0.417000        1.0080           0
   55111 WT3  3710 TIP3 H2   HT     0.417000        1.0080           0
   55112 WT3  3713 TIP3 OH2  OT    -0.834000       15.9994           0
   55113 WT3  3713 TIP3 H1   HT     0.417000        1.0080           0
   55114 WT3  3713 TIP3 H2   HT     0.417000        1.0080           0
   55115 WT3  3714 TIP3 OH2  OT    -0.834000       15.9994           0
   55116 WT3  3714 TIP3 H1   HT     0.417000        1.0080           0
   55117 WT3  3714 TIP3 H2   HT     0.417000        1.0080           0
   55118 WT3  3716 TIP3 OH2  OT    -0.834000       15.9994           0
   55119 WT3  3716 TIP3 H1   HT     0.417000        1.0080           0
   55120 WT3  3716 TIP3 H2   HT     0.417000        1.0080           0
   55121 WT3  3718 TIP3 OH2  OT    -0.834000       15.9994           0
   55122 WT3  3718 TIP3 H1   HT     0.417000        1.0080           0
   55123 WT3  3718 TIP3 H2   HT     0.417000        1.0080           0
   55124 WT3  3719 TIP3 OH2  OT    -0.834000       15.9994           0
   55125 WT3  3719 TIP3 H1   HT     0.417000        1.0080           0
   55126 WT3  3719 TIP3 H2   HT     0.417000        1.0080           0
   55127 WT3  3720 TIP3 OH2  OT    -0.834000       15.9994           0
   55128 WT3  3720 TIP3 H1   HT     0.417000        1.0080           0
   55129 WT3  3720 TIP3 H2   HT     0.417000        1.0080           0
   55130 WT3  3721 TIP3 OH2  OT    -0.834000       15.9994           0
   55131 WT3  3721 TIP3 H1   HT     0.417000        1.0080           0
   55132 WT3  3721 TIP3 H2   HT     0.417000        1.0080           0
   55133 WT3  3723 TIP3 OH2  OT    -0.834000       15.9994           0
   55134 WT3  3723 TIP3 H1   HT     0.417000        1.0080           0
   55135 WT3  3723 TIP3 H2   HT     0.417000        1.0080           0
   55136 WT3  3724 TIP3 OH2  OT    -0.834000       15.9994           0
   55137 WT3  3724 TIP3 H1   HT     0.417000        1.0080           0
   55138 WT3  3724 TIP3 H2   HT     0.417000        1.0080           0
   55139 WT3  3725 TIP3 OH2  OT    -0.834000       15.9994           0
   55140 WT3  3725 TIP3 H1   HT     0.417000        1.0080           0
   55141 WT3  3725 TIP3 H2   HT     0.417000        1.0080           0
   55142 WT3  3726 TIP3 OH2  OT    -0.834000       15.9994           0
   55143 WT3  3726 TIP3 H1   HT     0.417000        1.0080           0
   55144 WT3  3726 TIP3 H2   HT     0.417000        1.0080           0
   55145 WT3  3728 TIP3 OH2  OT    -0.834000       15.9994           0
   55146 WT3  3728 TIP3 H1   HT     0.417000        1.0080           0
   55147 WT3  3728 TIP3 H2   HT     0.417000        1.0080           0
   55148 WT3  3729 TIP3 OH2  OT    -0.834000       15.9994           0
   55149 WT3  3729 TIP3 H1   HT     0.417000        1.0080           0
   55150 WT3  3729 TIP3 H2   HT     0.417000        1.0080           0
   55151 WT3  3730 TIP3 OH2  OT    -0.834000       15.9994           0
   55152 WT3  3730 TIP3 H1   HT     0.417000        1.0080           0
   55153 WT3  3730 TIP3 H2   HT     0.417000        1.0080           0
   55154 WT3  3731 TIP3 OH2  OT    -0.834000       15.9994           0
   55155 WT3  3731 TIP3 H1   HT     0.417000        1.0080           0
   55156 WT3  3731 TIP3 H2   HT     0.417000        1.0080           0
   55157 WT3  3732 TIP3 OH2  OT    -0.834000       15.9994           0
   55158 WT3  3732 TIP3 H1   HT     0.417000        1.0080           0
   55159 WT3  3732 TIP3 H2   HT     0.417000        1.0080           0
   55160 WT3  3736 TIP3 OH2  OT    -0.834000       15.9994           0
   55161 WT3  3736 TIP3 H1   HT     0.417000        1.0080           0
   55162 WT3  3736 TIP3 H2   HT     0.417000        1.0080           0
   55163 WT3  3737 TIP3 OH2  OT    -0.834000       15.9994           0
   55164 WT3  3737 TIP3 H1   HT     0.417000        1.0080           0
   55165 WT3  3737 TIP3 H2   HT     0.417000        1.0080           0
   55166 WT3  3740 TIP3 OH2  OT    -0.834000       15.9994           0
   55167 WT3  3740 TIP3 H1   HT     0.417000        1.0080           0
   55168 WT3  3740 TIP3 H2   HT     0.417000        1.0080           0
   55169 WT3  3743 TIP3 OH2  OT    -0.834000       15.9994           0
   55170 WT3  3743 TIP3 H1   HT     0.417000        1.0080           0
   55171 WT3  3743 TIP3 H2   HT     0.417000        1.0080           0
   55172 WT3  3745 TIP3 OH2  OT    -0.834000       15.9994           0
   55173 WT3  3745 TIP3 H1   HT     0.417000        1.0080           0
   55174 WT3  3745 TIP3 H2   HT     0.417000        1.0080           0
   55175 WT3  3746 TIP3 OH2  OT    -0.834000       15.9994           0
   55176 WT3  3746 TIP3 H1   HT     0.417000        1.0080           0
   55177 WT3  3746 TIP3 H2   HT     0.417000        1.0080           0
   55178 WT3  3747 TIP3 OH2  OT    -0.834000       15.9994           0
   55179 WT3  3747 TIP3 H1   HT     0.417000        1.0080           0
   55180 WT3  3747 TIP3 H2   HT     0.417000        1.0080           0
   55181 WT3  3748 TIP3 OH2  OT    -0.834000       15.9994           0
   55182 WT3  3748 TIP3 H1   HT     0.417000        1.0080           0
   55183 WT3  3748 TIP3 H2   HT     0.417000        1.0080           0
   55184 WT3  3749 TIP3 OH2  OT    -0.834000       15.9994           0
   55185 WT3  3749 TIP3 H1   HT     0.417000        1.0080           0
   55186 WT3  3749 TIP3 H2   HT     0.417000        1.0080           0
   55187 WT3  3750 TIP3 OH2  OT    -0.834000       15.9994           0
   55188 WT3  3750 TIP3 H1   HT     0.417000        1.0080           0
   55189 WT3  3750 TIP3 H2   HT     0.417000        1.0080           0
   55190 WT3  3753 TIP3 OH2  OT    -0.834000       15.9994           0
   55191 WT3  3753 TIP3 H1   HT     0.417000        1.0080           0
   55192 WT3  3753 TIP3 H2   HT     0.417000        1.0080           0
   55193 WT3  3757 TIP3 OH2  OT    -0.834000       15.9994           0
   55194 WT3  3757 TIP3 H1   HT     0.417000        1.0080           0
   55195 WT3  3757 TIP3 H2   HT     0.417000        1.0080           0
   55196 WT3  3758 TIP3 OH2  OT    -0.834000       15.9994           0
   55197 WT3  3758 TIP3 H1   HT     0.417000        1.0080           0
   55198 WT3  3758 TIP3 H2   HT     0.417000        1.0080           0
   55199 WT3  3761 TIP3 OH2  OT    -0.834000       15.9994           0
   55200 WT3  3761 TIP3 H1   HT     0.417000        1.0080           0
   55201 WT3  3761 TIP3 H2   HT     0.417000        1.0080           0
   55202 WT3  3762 TIP3 OH2  OT    -0.834000       15.9994           0
   55203 WT3  3762 TIP3 H1   HT     0.417000        1.0080           0
   55204 WT3  3762 TIP3 H2   HT     0.417000        1.0080           0
   55205 WT3  3763 TIP3 OH2  OT    -0.834000       15.9994           0
   55206 WT3  3763 TIP3 H1   HT     0.417000        1.0080           0
   55207 WT3  3763 TIP3 H2   HT     0.417000        1.0080           0
   55208 WT3  3764 TIP3 OH2  OT    -0.834000       15.9994           0
   55209 WT3  3764 TIP3 H1   HT     0.417000        1.0080           0
   55210 WT3  3764 TIP3 H2   HT     0.417000        1.0080           0
   55211 WT3  3765 TIP3 OH2  OT    -0.834000       15.9994           0
   55212 WT3  3765 TIP3 H1   HT     0.417000        1.0080           0
   55213 WT3  3765 TIP3 H2   HT     0.417000        1.0080           0
   55214 WT3  3766 TIP3 OH2  OT    -0.834000       15.9994           0
   55215 WT3  3766 TIP3 H1   HT     0.417000        1.0080           0
   55216 WT3  3766 TIP3 H2   HT     0.417000        1.0080           0
   55217 WT3  3767 TIP3 OH2  OT    -0.834000       15.9994           0
   55218 WT3  3767 TIP3 H1   HT     0.417000        1.0080           0
   55219 WT3  3767 TIP3 H2   HT     0.417000        1.0080           0
   55220 WT3  3768 TIP3 OH2  OT    -0.834000       15.9994           0
   55221 WT3  3768 TIP3 H1   HT     0.417000        1.0080           0
   55222 WT3  3768 TIP3 H2   HT     0.417000        1.0080           0
   55223 WT3  3769 TIP3 OH2  OT    -0.834000       15.9994           0
   55224 WT3  3769 TIP3 H1   HT     0.417000        1.0080           0
   55225 WT3  3769 TIP3 H2   HT     0.417000        1.0080           0
   55226 WT3  3771 TIP3 OH2  OT    -0.834000       15.9994           0
   55227 WT3  3771 TIP3 H1   HT     0.417000        1.0080           0
   55228 WT3  3771 TIP3 H2   HT     0.417000        1.0080           0
   55229 WT3  3772 TIP3 OH2  OT    -0.834000       15.9994           0
   55230 WT3  3772 TIP3 H1   HT     0.417000        1.0080           0
   55231 WT3  3772 TIP3 H2   HT     0.417000        1.0080           0
   55232 WT3  3773 TIP3 OH2  OT    -0.834000       15.9994           0
   55233 WT3  3773 TIP3 H1   HT     0.417000        1.0080           0
   55234 WT3  3773 TIP3 H2   HT     0.417000        1.0080           0
   55235 WT3  3776 TIP3 OH2  OT    -0.834000       15.9994           0
   55236 WT3  3776 TIP3 H1   HT     0.417000        1.0080           0
   55237 WT3  3776 TIP3 H2   HT     0.417000        1.0080           0
   55238 WT3  3779 TIP3 OH2  OT    -0.834000       15.9994           0
   55239 WT3  3779 TIP3 H1   HT     0.417000        1.0080           0
   55240 WT3  3779 TIP3 H2   HT     0.417000        1.0080           0
   55241 WT3  3783 TIP3 OH2  OT    -0.834000       15.9994           0
   55242 WT3  3783 TIP3 H1   HT     0.417000        1.0080           0
   55243 WT3  3783 TIP3 H2   HT     0.417000        1.0080           0
   55244 WT3  3784 TIP3 OH2  OT    -0.834000       15.9994           0
   55245 WT3  3784 TIP3 H1   HT     0.417000        1.0080           0
   55246 WT3  3784 TIP3 H2   HT     0.417000        1.0080           0
   55247 WT3  3785 TIP3 OH2  OT    -0.834000       15.9994           0
   55248 WT3  3785 TIP3 H1   HT     0.417000        1.0080           0
   55249 WT3  3785 TIP3 H2   HT     0.417000        1.0080           0
   55250 WT3  3787 TIP3 OH2  OT    -0.834000       15.9994           0
   55251 WT3  3787 TIP3 H1   HT     0.417000        1.0080           0
   55252 WT3  3787 TIP3 H2   HT     0.417000        1.0080           0
   55253 WT3  3788 TIP3 OH2  OT    -0.834000       15.9994           0
   55254 WT3  3788 TIP3 H1   HT     0.417000        1.0080           0
   55255 WT3  3788 TIP3 H2   HT     0.417000        1.0080           0
   55256 WT3  3789 TIP3 OH2  OT    -0.834000       15.9994           0
   55257 WT3  3789 TIP3 H1   HT     0.417000        1.0080           0
   55258 WT3  3789 TIP3 H2   HT     0.417000        1.0080           0
   55259 WT3  3790 TIP3 OH2  OT    -0.834000       15.9994           0
   55260 WT3  3790 TIP3 H1   HT     0.417000        1.0080           0
   55261 WT3  3790 TIP3 H2   HT     0.417000        1.0080           0
   55262 WT3  3791 TIP3 OH2  OT    -0.834000       15.9994           0
   55263 WT3  3791 TIP3 H1   HT     0.417000        1.0080           0
   55264 WT3  3791 TIP3 H2   HT     0.417000        1.0080           0
   55265 WT3  3792 TIP3 OH2  OT    -0.834000       15.9994           0
   55266 WT3  3792 TIP3 H1   HT     0.417000        1.0080           0
   55267 WT3  3792 TIP3 H2   HT     0.417000        1.0080           0
   55268 WT3  3793 TIP3 OH2  OT    -0.834000       15.9994           0
   55269 WT3  3793 TIP3 H1   HT     0.417000        1.0080           0
   55270 WT3  3793 TIP3 H2   HT     0.417000        1.0080           0
   55271 WT3  3794 TIP3 OH2  OT    -0.834000       15.9994           0
   55272 WT3  3794 TIP3 H1   HT     0.417000        1.0080           0
   55273 WT3  3794 TIP3 H2   HT     0.417000        1.0080           0
   55274 WT3  3796 TIP3 OH2  OT    -0.834000       15.9994           0
   55275 WT3  3796 TIP3 H1   HT     0.417000        1.0080           0
   55276 WT3  3796 TIP3 H2   HT     0.417000        1.0080           0
   55277 WT3  3798 TIP3 OH2  OT    -0.834000       15.9994           0
   55278 WT3  3798 TIP3 H1   HT     0.417000        1.0080           0
   55279 WT3  3798 TIP3 H2   HT     0.417000        1.0080           0
   55280 WT3  3800 TIP3 OH2  OT    -0.834000       15.9994           0
   55281 WT3  3800 TIP3 H1   HT     0.417000        1.0080           0
   55282 WT3  3800 TIP3 H2   HT     0.417000        1.0080           0
   55283 WT3  3801 TIP3 OH2  OT    -0.834000       15.9994           0
   55284 WT3  3801 TIP3 H1   HT     0.417000        1.0080           0
   55285 WT3  3801 TIP3 H2   HT     0.417000        1.0080           0
   55286 WT3  3802 TIP3 OH2  OT    -0.834000       15.9994           0
   55287 WT3  3802 TIP3 H1   HT     0.417000        1.0080           0
   55288 WT3  3802 TIP3 H2   HT     0.417000        1.0080           0
   55289 WT3  3805 TIP3 OH2  OT    -0.834000       15.9994           0
   55290 WT3  3805 TIP3 H1   HT     0.417000        1.0080           0
   55291 WT3  3805 TIP3 H2   HT     0.417000        1.0080           0
   55292 WT3  3806 TIP3 OH2  OT    -0.834000       15.9994           0
   55293 WT3  3806 TIP3 H1   HT     0.417000        1.0080           0
   55294 WT3  3806 TIP3 H2   HT     0.417000        1.0080           0
   55295 WT3  3807 TIP3 OH2  OT    -0.834000       15.9994           0
   55296 WT3  3807 TIP3 H1   HT     0.417000        1.0080           0
   55297 WT3  3807 TIP3 H2   HT     0.417000        1.0080           0
   55298 WT3  3808 TIP3 OH2  OT    -0.834000       15.9994           0
   55299 WT3  3808 TIP3 H1   HT     0.417000        1.0080           0
   55300 WT3  3808 TIP3 H2   HT     0.417000        1.0080           0
   55301 WT3  3809 TIP3 OH2  OT    -0.834000       15.9994           0
   55302 WT3  3809 TIP3 H1   HT     0.417000        1.0080           0
   55303 WT3  3809 TIP3 H2   HT     0.417000        1.0080           0
   55304 WT3  3810 TIP3 OH2  OT    -0.834000       15.9994           0
   55305 WT3  3810 TIP3 H1   HT     0.417000        1.0080           0
   55306 WT3  3810 TIP3 H2   HT     0.417000        1.0080           0
   55307 WT3  3811 TIP3 OH2  OT    -0.834000       15.9994           0
   55308 WT3  3811 TIP3 H1   HT     0.417000        1.0080           0
   55309 WT3  3811 TIP3 H2   HT     0.417000        1.0080           0
   55310 WT3  3812 TIP3 OH2  OT    -0.834000       15.9994           0
   55311 WT3  3812 TIP3 H1   HT     0.417000        1.0080           0
   55312 WT3  3812 TIP3 H2   HT     0.417000        1.0080           0
   55313 WT3  3813 TIP3 OH2  OT    -0.834000       15.9994           0
   55314 WT3  3813 TIP3 H1   HT     0.417000        1.0080           0
   55315 WT3  3813 TIP3 H2   HT     0.417000        1.0080           0
   55316 WT3  3814 TIP3 OH2  OT    -0.834000       15.9994           0
   55317 WT3  3814 TIP3 H1   HT     0.417000        1.0080           0
   55318 WT3  3814 TIP3 H2   HT     0.417000        1.0080           0
   55319 WT3  3815 TIP3 OH2  OT    -0.834000       15.9994           0
   55320 WT3  3815 TIP3 H1   HT     0.417000        1.0080           0
   55321 WT3  3815 TIP3 H2   HT     0.417000        1.0080           0
   55322 WT3  3817 TIP3 OH2  OT    -0.834000       15.9994           0
   55323 WT3  3817 TIP3 H1   HT     0.417000        1.0080           0
   55324 WT3  3817 TIP3 H2   HT     0.417000        1.0080           0
   55325 WT3  3823 TIP3 OH2  OT    -0.834000       15.9994           0
   55326 WT3  3823 TIP3 H1   HT     0.417000        1.0080           0
   55327 WT3  3823 TIP3 H2   HT     0.417000        1.0080           0
   55328 WT3  3826 TIP3 OH2  OT    -0.834000       15.9994           0
   55329 WT3  3826 TIP3 H1   HT     0.417000        1.0080           0
   55330 WT3  3826 TIP3 H2   HT     0.417000        1.0080           0
   55331 WT3  3827 TIP3 OH2  OT    -0.834000       15.9994           0
   55332 WT3  3827 TIP3 H1   HT     0.417000        1.0080           0
   55333 WT3  3827 TIP3 H2   HT     0.417000        1.0080           0
   55334 WT3  3828 TIP3 OH2  OT    -0.834000       15.9994           0
   55335 WT3  3828 TIP3 H1   HT     0.417000        1.0080           0
   55336 WT3  3828 TIP3 H2   HT     0.417000        1.0080           0
   55337 WT3  3830 TIP3 OH2  OT    -0.834000       15.9994           0
   55338 WT3  3830 TIP3 H1   HT     0.417000        1.0080           0
   55339 WT3  3830 TIP3 H2   HT     0.417000        1.0080           0
   55340 WT3  3831 TIP3 OH2  OT    -0.834000       15.9994           0
   55341 WT3  3831 TIP3 H1   HT     0.417000        1.0080           0
   55342 WT3  3831 TIP3 H2   HT     0.417000        1.0080           0
   55343 WT3  3832 TIP3 OH2  OT    -0.834000       15.9994           0
   55344 WT3  3832 TIP3 H1   HT     0.417000        1.0080           0
   55345 WT3  3832 TIP3 H2   HT     0.417000        1.0080           0
   55346 WT3  3833 TIP3 OH2  OT    -0.834000       15.9994           0
   55347 WT3  3833 TIP3 H1   HT     0.417000        1.0080           0
   55348 WT3  3833 TIP3 H2   HT     0.417000        1.0080           0
   55349 WT3  3834 TIP3 OH2  OT    -0.834000       15.9994           0
   55350 WT3  3834 TIP3 H1   HT     0.417000        1.0080           0
   55351 WT3  3834 TIP3 H2   HT     0.417000        1.0080           0
   55352 WT3  3838 TIP3 OH2  OT    -0.834000       15.9994           0
   55353 WT3  3838 TIP3 H1   HT     0.417000        1.0080           0
   55354 WT3  3838 TIP3 H2   HT     0.417000        1.0080           0
   55355 WT3  3842 TIP3 OH2  OT    -0.834000       15.9994           0
   55356 WT3  3842 TIP3 H1   HT     0.417000        1.0080           0
   55357 WT3  3842 TIP3 H2   HT     0.417000        1.0080           0
   55358 WT3  3846 TIP3 OH2  OT    -0.834000       15.9994           0
   55359 WT3  3846 TIP3 H1   HT     0.417000        1.0080           0
   55360 WT3  3846 TIP3 H2   HT     0.417000        1.0080           0
   55361 WT3  3847 TIP3 OH2  OT    -0.834000       15.9994           0
   55362 WT3  3847 TIP3 H1   HT     0.417000        1.0080           0
   55363 WT3  3847 TIP3 H2   HT     0.417000        1.0080           0
   55364 WT3  3848 TIP3 OH2  OT    -0.834000       15.9994           0
   55365 WT3  3848 TIP3 H1   HT     0.417000        1.0080           0
   55366 WT3  3848 TIP3 H2   HT     0.417000        1.0080           0
   55367 WT3  3849 TIP3 OH2  OT    -0.834000       15.9994           0
   55368 WT3  3849 TIP3 H1   HT     0.417000        1.0080           0
   55369 WT3  3849 TIP3 H2   HT     0.417000        1.0080           0
   55370 WT3  3850 TIP3 OH2  OT    -0.834000       15.9994           0
   55371 WT3  3850 TIP3 H1   HT     0.417000        1.0080           0
   55372 WT3  3850 TIP3 H2   HT     0.417000        1.0080           0
   55373 WT3  3851 TIP3 OH2  OT    -0.834000       15.9994           0
   55374 WT3  3851 TIP3 H1   HT     0.417000        1.0080           0
   55375 WT3  3851 TIP3 H2   HT     0.417000        1.0080           0
   55376 WT3  3852 TIP3 OH2  OT    -0.834000       15.9994           0
   55377 WT3  3852 TIP3 H1   HT     0.417000        1.0080           0
   55378 WT3  3852 TIP3 H2   HT     0.417000        1.0080           0
   55379 WT3  3853 TIP3 OH2  OT    -0.834000       15.9994           0
   55380 WT3  3853 TIP3 H1   HT     0.417000        1.0080           0
   55381 WT3  3853 TIP3 H2   HT     0.417000        1.0080           0
   55382 WT3  3854 TIP3 OH2  OT    -0.834000       15.9994           0
   55383 WT3  3854 TIP3 H1   HT     0.417000        1.0080           0
   55384 WT3  3854 TIP3 H2   HT     0.417000        1.0080           0
   55385 WT3  3855 TIP3 OH2  OT    -0.834000       15.9994           0
   55386 WT3  3855 TIP3 H1   HT     0.417000        1.0080           0
   55387 WT3  3855 TIP3 H2   HT     0.417000        1.0080           0
   55388 WT3  3857 TIP3 OH2  OT    -0.834000       15.9994           0
   55389 WT3  3857 TIP3 H1   HT     0.417000        1.0080           0
   55390 WT3  3857 TIP3 H2   HT     0.417000        1.0080           0
   55391 WT3  3858 TIP3 OH2  OT    -0.834000       15.9994           0
   55392 WT3  3858 TIP3 H1   HT     0.417000        1.0080           0
   55393 WT3  3858 TIP3 H2   HT     0.417000        1.0080           0
   55394 WT3  3859 TIP3 OH2  OT    -0.834000       15.9994           0
   55395 WT3  3859 TIP3 H1   HT     0.417000        1.0080           0
   55396 WT3  3859 TIP3 H2   HT     0.417000        1.0080           0
   55397 WT3  3861 TIP3 OH2  OT    -0.834000       15.9994           0
   55398 WT3  3861 TIP3 H1   HT     0.417000        1.0080           0
   55399 WT3  3861 TIP3 H2   HT     0.417000        1.0080           0
   55400 WT3  3863 TIP3 OH2  OT    -0.834000       15.9994           0
   55401 WT3  3863 TIP3 H1   HT     0.417000        1.0080           0
   55402 WT3  3863 TIP3 H2   HT     0.417000        1.0080           0
   55403 WT3  3865 TIP3 OH2  OT    -0.834000       15.9994           0
   55404 WT3  3865 TIP3 H1   HT     0.417000        1.0080           0
   55405 WT3  3865 TIP3 H2   HT     0.417000        1.0080           0
   55406 WT3  3867 TIP3 OH2  OT    -0.834000       15.9994           0
   55407 WT3  3867 TIP3 H1   HT     0.417000        1.0080           0
   55408 WT3  3867 TIP3 H2   HT     0.417000        1.0080           0
   55409 WT3  3869 TIP3 OH2  OT    -0.834000       15.9994           0
   55410 WT3  3869 TIP3 H1   HT     0.417000        1.0080           0
   55411 WT3  3869 TIP3 H2   HT     0.417000        1.0080           0
   55412 WT3  3870 TIP3 OH2  OT    -0.834000       15.9994           0
   55413 WT3  3870 TIP3 H1   HT     0.417000        1.0080           0
   55414 WT3  3870 TIP3 H2   HT     0.417000        1.0080           0
   55415 WT3  3871 TIP3 OH2  OT    -0.834000       15.9994           0
   55416 WT3  3871 TIP3 H1   HT     0.417000        1.0080           0
   55417 WT3  3871 TIP3 H2   HT     0.417000        1.0080           0
   55418 WT3  3872 TIP3 OH2  OT    -0.834000       15.9994           0
   55419 WT3  3872 TIP3 H1   HT     0.417000        1.0080           0
   55420 WT3  3872 TIP3 H2   HT     0.417000        1.0080           0
   55421 WT3  3873 TIP3 OH2  OT    -0.834000       15.9994           0
   55422 WT3  3873 TIP3 H1   HT     0.417000        1.0080           0
   55423 WT3  3873 TIP3 H2   HT     0.417000        1.0080           0
   55424 WT3  3875 TIP3 OH2  OT    -0.834000       15.9994           0
   55425 WT3  3875 TIP3 H1   HT     0.417000        1.0080           0
   55426 WT3  3875 TIP3 H2   HT     0.417000        1.0080           0
   55427 WT3  3878 TIP3 OH2  OT    -0.834000       15.9994           0
   55428 WT3  3878 TIP3 H1   HT     0.417000        1.0080           0
   55429 WT3  3878 TIP3 H2   HT     0.417000        1.0080           0
   55430 WT3  3879 TIP3 OH2  OT    -0.834000       15.9994           0
   55431 WT3  3879 TIP3 H1   HT     0.417000        1.0080           0
   55432 WT3  3879 TIP3 H2   HT     0.417000        1.0080           0
   55433 WT3  3880 TIP3 OH2  OT    -0.834000       15.9994           0
   55434 WT3  3880 TIP3 H1   HT     0.417000        1.0080           0
   55435 WT3  3880 TIP3 H2   HT     0.417000        1.0080           0
   55436 WT3  3882 TIP3 OH2  OT    -0.834000       15.9994           0
   55437 WT3  3882 TIP3 H1   HT     0.417000        1.0080           0
   55438 WT3  3882 TIP3 H2   HT     0.417000        1.0080           0
   55439 WT3  3885 TIP3 OH2  OT    -0.834000       15.9994           0
   55440 WT3  3885 TIP3 H1   HT     0.417000        1.0080           0
   55441 WT3  3885 TIP3 H2   HT     0.417000        1.0080           0
   55442 WT3  3886 TIP3 OH2  OT    -0.834000       15.9994           0
   55443 WT3  3886 TIP3 H1   HT     0.417000        1.0080           0
   55444 WT3  3886 TIP3 H2   HT     0.417000        1.0080           0
   55445 WT3  3888 TIP3 OH2  OT    -0.834000       15.9994           0
   55446 WT3  3888 TIP3 H1   HT     0.417000        1.0080           0
   55447 WT3  3888 TIP3 H2   HT     0.417000        1.0080           0
   55448 WT3  3889 TIP3 OH2  OT    -0.834000       15.9994           0
   55449 WT3  3889 TIP3 H1   HT     0.417000        1.0080           0
   55450 WT3  3889 TIP3 H2   HT     0.417000        1.0080           0
   55451 WT3  3890 TIP3 OH2  OT    -0.834000       15.9994           0
   55452 WT3  3890 TIP3 H1   HT     0.417000        1.0080           0
   55453 WT3  3890 TIP3 H2   HT     0.417000        1.0080           0
   55454 WT3  3891 TIP3 OH2  OT    -0.834000       15.9994           0
   55455 WT3  3891 TIP3 H1   HT     0.417000        1.0080           0
   55456 WT3  3891 TIP3 H2   HT     0.417000        1.0080           0
   55457 WT3  3893 TIP3 OH2  OT    -0.834000       15.9994           0
   55458 WT3  3893 TIP3 H1   HT     0.417000        1.0080           0
   55459 WT3  3893 TIP3 H2   HT     0.417000        1.0080           0
   55460 WT3  3894 TIP3 OH2  OT    -0.834000       15.9994           0
   55461 WT3  3894 TIP3 H1   HT     0.417000        1.0080           0
   55462 WT3  3894 TIP3 H2   HT     0.417000        1.0080           0
   55463 WT3  3895 TIP3 OH2  OT    -0.834000       15.9994           0
   55464 WT3  3895 TIP3 H1   HT     0.417000        1.0080           0
   55465 WT3  3895 TIP3 H2   HT     0.417000        1.0080           0
   55466 WT3  3896 TIP3 OH2  OT    -0.834000       15.9994           0
   55467 WT3  3896 TIP3 H1   HT     0.417000        1.0080           0
   55468 WT3  3896 TIP3 H2   HT     0.417000        1.0080           0
   55469 WT3  3898 TIP3 OH2  OT    -0.834000       15.9994           0
   55470 WT3  3898 TIP3 H1   HT     0.417000        1.0080           0
   55471 WT3  3898 TIP3 H2   HT     0.417000        1.0080           0
   55472 WT3  3899 TIP3 OH2  OT    -0.834000       15.9994           0
   55473 WT3  3899 TIP3 H1   HT     0.417000        1.0080           0
   55474 WT3  3899 TIP3 H2   HT     0.417000        1.0080           0
   55475 WT3  3900 TIP3 OH2  OT    -0.834000       15.9994           0
   55476 WT3  3900 TIP3 H1   HT     0.417000        1.0080           0
   55477 WT3  3900 TIP3 H2   HT     0.417000        1.0080           0
   55478 WT3  3901 TIP3 OH2  OT    -0.834000       15.9994           0
   55479 WT3  3901 TIP3 H1   HT     0.417000        1.0080           0
   55480 WT3  3901 TIP3 H2   HT     0.417000        1.0080           0
   55481 WT3  3903 TIP3 OH2  OT    -0.834000       15.9994           0
   55482 WT3  3903 TIP3 H1   HT     0.417000        1.0080           0
   55483 WT3  3903 TIP3 H2   HT     0.417000        1.0080           0
   55484 WT3  3907 TIP3 OH2  OT    -0.834000       15.9994           0
   55485 WT3  3907 TIP3 H1   HT     0.417000        1.0080           0
   55486 WT3  3907 TIP3 H2   HT     0.417000        1.0080           0
   55487 WT3  3909 TIP3 OH2  OT    -0.834000       15.9994           0
   55488 WT3  3909 TIP3 H1   HT     0.417000        1.0080           0
   55489 WT3  3909 TIP3 H2   HT     0.417000        1.0080           0
   55490 WT3  3911 TIP3 OH2  OT    -0.834000       15.9994           0
   55491 WT3  3911 TIP3 H1   HT     0.417000        1.0080           0
   55492 WT3  3911 TIP3 H2   HT     0.417000        1.0080           0
   55493 WT3  3912 TIP3 OH2  OT    -0.834000       15.9994           0
   55494 WT3  3912 TIP3 H1   HT     0.417000        1.0080           0
   55495 WT3  3912 TIP3 H2   HT     0.417000        1.0080           0
   55496 WT3  3913 TIP3 OH2  OT    -0.834000       15.9994           0
   55497 WT3  3913 TIP3 H1   HT     0.417000        1.0080           0
   55498 WT3  3913 TIP3 H2   HT     0.417000        1.0080           0
   55499 WT3  3914 TIP3 OH2  OT    -0.834000       15.9994           0
   55500 WT3  3914 TIP3 H1   HT     0.417000        1.0080           0
   55501 WT3  3914 TIP3 H2   HT     0.417000        1.0080           0
   55502 WT3  3916 TIP3 OH2  OT    -0.834000       15.9994           0
   55503 WT3  3916 TIP3 H1   HT     0.417000        1.0080           0
   55504 WT3  3916 TIP3 H2   HT     0.417000        1.0080           0
   55505 WT3  3917 TIP3 OH2  OT    -0.834000       15.9994           0
   55506 WT3  3917 TIP3 H1   HT     0.417000        1.0080           0
   55507 WT3  3917 TIP3 H2   HT     0.417000        1.0080           0
   55508 WT3  3919 TIP3 OH2  OT    -0.834000       15.9994           0
   55509 WT3  3919 TIP3 H1   HT     0.417000        1.0080           0
   55510 WT3  3919 TIP3 H2   HT     0.417000        1.0080           0
   55511 WT3  3920 TIP3 OH2  OT    -0.834000       15.9994           0
   55512 WT3  3920 TIP3 H1   HT     0.417000        1.0080           0
   55513 WT3  3920 TIP3 H2   HT     0.417000        1.0080           0
   55514 WT3  3922 TIP3 OH2  OT    -0.834000       15.9994           0
   55515 WT3  3922 TIP3 H1   HT     0.417000        1.0080           0
   55516 WT3  3922 TIP3 H2   HT     0.417000        1.0080           0
   55517 WT3  3924 TIP3 OH2  OT    -0.834000       15.9994           0
   55518 WT3  3924 TIP3 H1   HT     0.417000        1.0080           0
   55519 WT3  3924 TIP3 H2   HT     0.417000        1.0080           0
   55520 WT3  3927 TIP3 OH2  OT    -0.834000       15.9994           0
   55521 WT3  3927 TIP3 H1   HT     0.417000        1.0080           0
   55522 WT3  3927 TIP3 H2   HT     0.417000        1.0080           0
   55523 WT3  3929 TIP3 OH2  OT    -0.834000       15.9994           0
   55524 WT3  3929 TIP3 H1   HT     0.417000        1.0080           0
   55525 WT3  3929 TIP3 H2   HT     0.417000        1.0080           0
   55526 WT3  3930 TIP3 OH2  OT    -0.834000       15.9994           0
   55527 WT3  3930 TIP3 H1   HT     0.417000        1.0080           0
   55528 WT3  3930 TIP3 H2   HT     0.417000        1.0080           0
   55529 WT3  3931 TIP3 OH2  OT    -0.834000       15.9994           0
   55530 WT3  3931 TIP3 H1   HT     0.417000        1.0080           0
   55531 WT3  3931 TIP3 H2   HT     0.417000        1.0080           0
   55532 WT3  3932 TIP3 OH2  OT    -0.834000       15.9994           0
   55533 WT3  3932 TIP3 H1   HT     0.417000        1.0080           0
   55534 WT3  3932 TIP3 H2   HT     0.417000        1.0080           0
   55535 WT3  3933 TIP3 OH2  OT    -0.834000       15.9994           0
   55536 WT3  3933 TIP3 H1   HT     0.417000        1.0080           0
   55537 WT3  3933 TIP3 H2   HT     0.417000        1.0080           0
   55538 WT3  3935 TIP3 OH2  OT    -0.834000       15.9994           0
   55539 WT3  3935 TIP3 H1   HT     0.417000        1.0080           0
   55540 WT3  3935 TIP3 H2   HT     0.417000        1.0080           0
   55541 WT3  3936 TIP3 OH2  OT    -0.834000       15.9994           0
   55542 WT3  3936 TIP3 H1   HT     0.417000        1.0080           0
   55543 WT3  3936 TIP3 H2   HT     0.417000        1.0080           0
   55544 WT3  3937 TIP3 OH2  OT    -0.834000       15.9994           0
   55545 WT3  3937 TIP3 H1   HT     0.417000        1.0080           0
   55546 WT3  3937 TIP3 H2   HT     0.417000        1.0080           0
   55547 WT3  3938 TIP3 OH2  OT    -0.834000       15.9994           0
   55548 WT3  3938 TIP3 H1   HT     0.417000        1.0080           0
   55549 WT3  3938 TIP3 H2   HT     0.417000        1.0080           0
   55550 WT3  3939 TIP3 OH2  OT    -0.834000       15.9994           0
   55551 WT3  3939 TIP3 H1   HT     0.417000        1.0080           0
   55552 WT3  3939 TIP3 H2   HT     0.417000        1.0080           0
   55553 WT3  3946 TIP3 OH2  OT    -0.834000       15.9994           0
   55554 WT3  3946 TIP3 H1   HT     0.417000        1.0080           0
   55555 WT3  3946 TIP3 H2   HT     0.417000        1.0080           0
   55556 WT3  3951 TIP3 OH2  OT    -0.834000       15.9994           0
   55557 WT3  3951 TIP3 H1   HT     0.417000        1.0080           0
   55558 WT3  3951 TIP3 H2   HT     0.417000        1.0080           0
   55559 WT3  3954 TIP3 OH2  OT    -0.834000       15.9994           0
   55560 WT3  3954 TIP3 H1   HT     0.417000        1.0080           0
   55561 WT3  3954 TIP3 H2   HT     0.417000        1.0080           0
   55562 WT3  3955 TIP3 OH2  OT    -0.834000       15.9994           0
   55563 WT3  3955 TIP3 H1   HT     0.417000        1.0080           0
   55564 WT3  3955 TIP3 H2   HT     0.417000        1.0080           0
   55565 WT3  3956 TIP3 OH2  OT    -0.834000       15.9994           0
   55566 WT3  3956 TIP3 H1   HT     0.417000        1.0080           0
   55567 WT3  3956 TIP3 H2   HT     0.417000        1.0080           0
   55568 WT3  3957 TIP3 OH2  OT    -0.834000       15.9994           0
   55569 WT3  3957 TIP3 H1   HT     0.417000        1.0080           0
   55570 WT3  3957 TIP3 H2   HT     0.417000        1.0080           0
   55571 WT3  3958 TIP3 OH2  OT    -0.834000       15.9994           0
   55572 WT3  3958 TIP3 H1   HT     0.417000        1.0080           0
   55573 WT3  3958 TIP3 H2   HT     0.417000        1.0080           0
   55574 WT3  3959 TIP3 OH2  OT    -0.834000       15.9994           0
   55575 WT3  3959 TIP3 H1   HT     0.417000        1.0080           0
   55576 WT3  3959 TIP3 H2   HT     0.417000        1.0080           0
   55577 WT3  3960 TIP3 OH2  OT    -0.834000       15.9994           0
   55578 WT3  3960 TIP3 H1   HT     0.417000        1.0080           0
   55579 WT3  3960 TIP3 H2   HT     0.417000        1.0080           0
   55580 WT3  3961 TIP3 OH2  OT    -0.834000       15.9994           0
   55581 WT3  3961 TIP3 H1   HT     0.417000        1.0080           0
   55582 WT3  3961 TIP3 H2   HT     0.417000        1.0080           0
   55583 WT3  3965 TIP3 OH2  OT    -0.834000       15.9994           0
   55584 WT3  3965 TIP3 H1   HT     0.417000        1.0080           0
   55585 WT3  3965 TIP3 H2   HT     0.417000        1.0080           0
   55586 WT3  3972 TIP3 OH2  OT    -0.834000       15.9994           0
   55587 WT3  3972 TIP3 H1   HT     0.417000        1.0080           0
   55588 WT3  3972 TIP3 H2   HT     0.417000        1.0080           0
   55589 WT3  3973 TIP3 OH2  OT    -0.834000       15.9994           0
   55590 WT3  3973 TIP3 H1   HT     0.417000        1.0080           0
   55591 WT3  3973 TIP3 H2   HT     0.417000        1.0080           0
   55592 WT3  3974 TIP3 OH2  OT    -0.834000       15.9994           0
   55593 WT3  3974 TIP3 H1   HT     0.417000        1.0080           0
   55594 WT3  3974 TIP3 H2   HT     0.417000        1.0080           0
   55595 WT3  3975 TIP3 OH2  OT    -0.834000       15.9994           0
   55596 WT3  3975 TIP3 H1   HT     0.417000        1.0080           0
   55597 WT3  3975 TIP3 H2   HT     0.417000        1.0080           0
   55598 WT3  3976 TIP3 OH2  OT    -0.834000       15.9994           0
   55599 WT3  3976 TIP3 H1   HT     0.417000        1.0080           0
   55600 WT3  3976 TIP3 H2   HT     0.417000        1.0080           0
   55601 WT3  3977 TIP3 OH2  OT    -0.834000       15.9994           0
   55602 WT3  3977 TIP3 H1   HT     0.417000        1.0080           0
   55603 WT3  3977 TIP3 H2   HT     0.417000        1.0080           0
   55604 WT3  3978 TIP3 OH2  OT    -0.834000       15.9994           0
   55605 WT3  3978 TIP3 H1   HT     0.417000        1.0080           0
   55606 WT3  3978 TIP3 H2   HT     0.417000        1.0080           0
   55607 WT3  3980 TIP3 OH2  OT    -0.834000       15.9994           0
   55608 WT3  3980 TIP3 H1   HT     0.417000        1.0080           0
   55609 WT3  3980 TIP3 H2   HT     0.417000        1.0080           0
   55610 WT3  3981 TIP3 OH2  OT    -0.834000       15.9994           0
   55611 WT3  3981 TIP3 H1   HT     0.417000        1.0080           0
   55612 WT3  3981 TIP3 H2   HT     0.417000        1.0080           0
   55613 WT3  3983 TIP3 OH2  OT    -0.834000       15.9994           0
   55614 WT3  3983 TIP3 H1   HT     0.417000        1.0080           0
   55615 WT3  3983 TIP3 H2   HT     0.417000        1.0080           0
   55616 WT3  3986 TIP3 OH2  OT    -0.834000       15.9994           0
   55617 WT3  3986 TIP3 H1   HT     0.417000        1.0080           0
   55618 WT3  3986 TIP3 H2   HT     0.417000        1.0080           0
   55619 WT3  3991 TIP3 OH2  OT    -0.834000       15.9994           0
   55620 WT3  3991 TIP3 H1   HT     0.417000        1.0080           0
   55621 WT3  3991 TIP3 H2   HT     0.417000        1.0080           0
   55622 WT3  3993 TIP3 OH2  OT    -0.834000       15.9994           0
   55623 WT3  3993 TIP3 H1   HT     0.417000        1.0080           0
   55624 WT3  3993 TIP3 H2   HT     0.417000        1.0080           0
   55625 WT3  3994 TIP3 OH2  OT    -0.834000       15.9994           0
   55626 WT3  3994 TIP3 H1   HT     0.417000        1.0080           0
   55627 WT3  3994 TIP3 H2   HT     0.417000        1.0080           0
   55628 WT3  3995 TIP3 OH2  OT    -0.834000       15.9994           0
   55629 WT3  3995 TIP3 H1   HT     0.417000        1.0080           0
   55630 WT3  3995 TIP3 H2   HT     0.417000        1.0080           0
   55631 WT3  3996 TIP3 OH2  OT    -0.834000       15.9994           0
   55632 WT3  3996 TIP3 H1   HT     0.417000        1.0080           0
   55633 WT3  3996 TIP3 H2   HT     0.417000        1.0080           0
   55634 WT3  3997 TIP3 OH2  OT    -0.834000       15.9994           0
   55635 WT3  3997 TIP3 H1   HT     0.417000        1.0080           0
   55636 WT3  3997 TIP3 H2   HT     0.417000        1.0080           0
   55637 WT3  3998 TIP3 OH2  OT    -0.834000       15.9994           0
   55638 WT3  3998 TIP3 H1   HT     0.417000        1.0080           0
   55639 WT3  3998 TIP3 H2   HT     0.417000        1.0080           0
   55640 WT3  3999 TIP3 OH2  OT    -0.834000       15.9994           0
   55641 WT3  3999 TIP3 H1   HT     0.417000        1.0080           0
   55642 WT3  3999 TIP3 H2   HT     0.417000        1.0080           0
   55643 WT3  4000 TIP3 OH2  OT    -0.834000       15.9994           0
   55644 WT3  4000 TIP3 H1   HT     0.417000        1.0080           0
   55645 WT3  4000 TIP3 H2   HT     0.417000        1.0080           0
   55646 WT3  4002 TIP3 OH2  OT    -0.834000       15.9994           0
   55647 WT3  4002 TIP3 H1   HT     0.417000        1.0080           0
   55648 WT3  4002 TIP3 H2   HT     0.417000        1.0080           0
   55649 WT3  4005 TIP3 OH2  OT    -0.834000       15.9994           0
   55650 WT3  4005 TIP3 H1   HT     0.417000        1.0080           0
   55651 WT3  4005 TIP3 H2   HT     0.417000        1.0080           0
   55652 WT3  4006 TIP3 OH2  OT    -0.834000       15.9994           0
   55653 WT3  4006 TIP3 H1   HT     0.417000        1.0080           0
   55654 WT3  4006 TIP3 H2   HT     0.417000        1.0080           0
   55655 WT3  4008 TIP3 OH2  OT    -0.834000       15.9994           0
   55656 WT3  4008 TIP3 H1   HT     0.417000        1.0080           0
   55657 WT3  4008 TIP3 H2   HT     0.417000        1.0080           0
   55658 WT3  4009 TIP3 OH2  OT    -0.834000       15.9994           0
   55659 WT3  4009 TIP3 H1   HT     0.417000        1.0080           0
   55660 WT3  4009 TIP3 H2   HT     0.417000        1.0080           0
   55661 WT3  4010 TIP3 OH2  OT    -0.834000       15.9994           0
   55662 WT3  4010 TIP3 H1   HT     0.417000        1.0080           0
   55663 WT3  4010 TIP3 H2   HT     0.417000        1.0080           0
   55664 WT3  4011 TIP3 OH2  OT    -0.834000       15.9994           0
   55665 WT3  4011 TIP3 H1   HT     0.417000        1.0080           0
   55666 WT3  4011 TIP3 H2   HT     0.417000        1.0080           0
   55667 WT3  4012 TIP3 OH2  OT    -0.834000       15.9994           0
   55668 WT3  4012 TIP3 H1   HT     0.417000        1.0080           0
   55669 WT3  4012 TIP3 H2   HT     0.417000        1.0080           0
   55670 WT3  4014 TIP3 OH2  OT    -0.834000       15.9994           0
   55671 WT3  4014 TIP3 H1   HT     0.417000        1.0080           0
   55672 WT3  4014 TIP3 H2   HT     0.417000        1.0080           0
   55673 WT3  4015 TIP3 OH2  OT    -0.834000       15.9994           0
   55674 WT3  4015 TIP3 H1   HT     0.417000        1.0080           0
   55675 WT3  4015 TIP3 H2   HT     0.417000        1.0080           0
   55676 WT3  4016 TIP3 OH2  OT    -0.834000       15.9994           0
   55677 WT3  4016 TIP3 H1   HT     0.417000        1.0080           0
   55678 WT3  4016 TIP3 H2   HT     0.417000        1.0080           0
   55679 WT3  4017 TIP3 OH2  OT    -0.834000       15.9994           0
   55680 WT3  4017 TIP3 H1   HT     0.417000        1.0080           0
   55681 WT3  4017 TIP3 H2   HT     0.417000        1.0080           0
   55682 WT3  4019 TIP3 OH2  OT    -0.834000       15.9994           0
   55683 WT3  4019 TIP3 H1   HT     0.417000        1.0080           0
   55684 WT3  4019 TIP3 H2   HT     0.417000        1.0080           0
   55685 WT3  4020 TIP3 OH2  OT    -0.834000       15.9994           0
   55686 WT3  4020 TIP3 H1   HT     0.417000        1.0080           0
   55687 WT3  4020 TIP3 H2   HT     0.417000        1.0080           0
   55688 WT3  4022 TIP3 OH2  OT    -0.834000       15.9994           0
   55689 WT3  4022 TIP3 H1   HT     0.417000        1.0080           0
   55690 WT3  4022 TIP3 H2   HT     0.417000        1.0080           0
   55691 WT3  4024 TIP3 OH2  OT    -0.834000       15.9994           0
   55692 WT3  4024 TIP3 H1   HT     0.417000        1.0080           0
   55693 WT3  4024 TIP3 H2   HT     0.417000        1.0080           0
   55694 WT3  4029 TIP3 OH2  OT    -0.834000       15.9994           0
   55695 WT3  4029 TIP3 H1   HT     0.417000        1.0080           0
   55696 WT3  4029 TIP3 H2   HT     0.417000        1.0080           0
   55697 WT3  4030 TIP3 OH2  OT    -0.834000       15.9994           0
   55698 WT3  4030 TIP3 H1   HT     0.417000        1.0080           0
   55699 WT3  4030 TIP3 H2   HT     0.417000        1.0080           0
   55700 WT3  4033 TIP3 OH2  OT    -0.834000       15.9994           0
   55701 WT3  4033 TIP3 H1   HT     0.417000        1.0080           0
   55702 WT3  4033 TIP3 H2   HT     0.417000        1.0080           0
   55703 WT3  4035 TIP3 OH2  OT    -0.834000       15.9994           0
   55704 WT3  4035 TIP3 H1   HT     0.417000        1.0080           0
   55705 WT3  4035 TIP3 H2   HT     0.417000        1.0080           0
   55706 WT3  4036 TIP3 OH2  OT    -0.834000       15.9994           0
   55707 WT3  4036 TIP3 H1   HT     0.417000        1.0080           0
   55708 WT3  4036 TIP3 H2   HT     0.417000        1.0080           0
   55709 WT3  4037 TIP3 OH2  OT    -0.834000       15.9994           0
   55710 WT3  4037 TIP3 H1   HT     0.417000        1.0080           0
   55711 WT3  4037 TIP3 H2   HT     0.417000        1.0080           0
   55712 WT3  4038 TIP3 OH2  OT    -0.834000       15.9994           0
   55713 WT3  4038 TIP3 H1   HT     0.417000        1.0080           0
   55714 WT3  4038 TIP3 H2   HT     0.417000        1.0080           0
   55715 WT3  4040 TIP3 OH2  OT    -0.834000       15.9994           0
   55716 WT3  4040 TIP3 H1   HT     0.417000        1.0080           0
   55717 WT3  4040 TIP3 H2   HT     0.417000        1.0080           0
   55718 WT3  4041 TIP3 OH2  OT    -0.834000       15.9994           0
   55719 WT3  4041 TIP3 H1   HT     0.417000        1.0080           0
   55720 WT3  4041 TIP3 H2   HT     0.417000        1.0080           0
   55721 WT3  4042 TIP3 OH2  OT    -0.834000       15.9994           0
   55722 WT3  4042 TIP3 H1   HT     0.417000        1.0080           0
   55723 WT3  4042 TIP3 H2   HT     0.417000        1.0080           0
   55724 WT3  4043 TIP3 OH2  OT    -0.834000       15.9994           0
   55725 WT3  4043 TIP3 H1   HT     0.417000        1.0080           0
   55726 WT3  4043 TIP3 H2   HT     0.417000        1.0080           0
   55727 WT3  4044 TIP3 OH2  OT    -0.834000       15.9994           0
   55728 WT3  4044 TIP3 H1   HT     0.417000        1.0080           0
   55729 WT3  4044 TIP3 H2   HT     0.417000        1.0080           0
   55730 WT3  4046 TIP3 OH2  OT    -0.834000       15.9994           0
   55731 WT3  4046 TIP3 H1   HT     0.417000        1.0080           0
   55732 WT3  4046 TIP3 H2   HT     0.417000        1.0080           0
   55733 WT3  4047 TIP3 OH2  OT    -0.834000       15.9994           0
   55734 WT3  4047 TIP3 H1   HT     0.417000        1.0080           0
   55735 WT3  4047 TIP3 H2   HT     0.417000        1.0080           0
   55736 WT3  4048 TIP3 OH2  OT    -0.834000       15.9994           0
   55737 WT3  4048 TIP3 H1   HT     0.417000        1.0080           0
   55738 WT3  4048 TIP3 H2   HT     0.417000        1.0080           0
   55739 WT3  4054 TIP3 OH2  OT    -0.834000       15.9994           0
   55740 WT3  4054 TIP3 H1   HT     0.417000        1.0080           0
   55741 WT3  4054 TIP3 H2   HT     0.417000        1.0080           0
   55742 WT3  4056 TIP3 OH2  OT    -0.834000       15.9994           0
   55743 WT3  4056 TIP3 H1   HT     0.417000        1.0080           0
   55744 WT3  4056 TIP3 H2   HT     0.417000        1.0080           0
   55745 WT3  4057 TIP3 OH2  OT    -0.834000       15.9994           0
   55746 WT3  4057 TIP3 H1   HT     0.417000        1.0080           0
   55747 WT3  4057 TIP3 H2   HT     0.417000        1.0080           0
   55748 WT3  4058 TIP3 OH2  OT    -0.834000       15.9994           0
   55749 WT3  4058 TIP3 H1   HT     0.417000        1.0080           0
   55750 WT3  4058 TIP3 H2   HT     0.417000        1.0080           0
   55751 WT3  4059 TIP3 OH2  OT    -0.834000       15.9994           0
   55752 WT3  4059 TIP3 H1   HT     0.417000        1.0080           0
   55753 WT3  4059 TIP3 H2   HT     0.417000        1.0080           0
   55754 WT3  4060 TIP3 OH2  OT    -0.834000       15.9994           0
   55755 WT3  4060 TIP3 H1   HT     0.417000        1.0080           0
   55756 WT3  4060 TIP3 H2   HT     0.417000        1.0080           0
   55757 WT3  4061 TIP3 OH2  OT    -0.834000       15.9994           0
   55758 WT3  4061 TIP3 H1   HT     0.417000        1.0080           0
   55759 WT3  4061 TIP3 H2   HT     0.417000        1.0080           0
   55760 WT3  4062 TIP3 OH2  OT    -0.834000       15.9994           0
   55761 WT3  4062 TIP3 H1   HT     0.417000        1.0080           0
   55762 WT3  4062 TIP3 H2   HT     0.417000        1.0080           0
   55763 WT3  4063 TIP3 OH2  OT    -0.834000       15.9994           0
   55764 WT3  4063 TIP3 H1   HT     0.417000        1.0080           0
   55765 WT3  4063 TIP3 H2   HT     0.417000        1.0080           0
   55766 WT3  4065 TIP3 OH2  OT    -0.834000       15.9994           0
   55767 WT3  4065 TIP3 H1   HT     0.417000        1.0080           0
   55768 WT3  4065 TIP3 H2   HT     0.417000        1.0080           0
   55769 WT3  4066 TIP3 OH2  OT    -0.834000       15.9994           0
   55770 WT3  4066 TIP3 H1   HT     0.417000        1.0080           0
   55771 WT3  4066 TIP3 H2   HT     0.417000        1.0080           0
   55772 WT3  4072 TIP3 OH2  OT    -0.834000       15.9994           0
   55773 WT3  4072 TIP3 H1   HT     0.417000        1.0080           0
   55774 WT3  4072 TIP3 H2   HT     0.417000        1.0080           0
   55775 WT3  4074 TIP3 OH2  OT    -0.834000       15.9994           0
   55776 WT3  4074 TIP3 H1   HT     0.417000        1.0080           0
   55777 WT3  4074 TIP3 H2   HT     0.417000        1.0080           0
   55778 WT3  4076 TIP3 OH2  OT    -0.834000       15.9994           0
   55779 WT3  4076 TIP3 H1   HT     0.417000        1.0080           0
   55780 WT3  4076 TIP3 H2   HT     0.417000        1.0080           0
   55781 WT3  4077 TIP3 OH2  OT    -0.834000       15.9994           0
   55782 WT3  4077 TIP3 H1   HT     0.417000        1.0080           0
   55783 WT3  4077 TIP3 H2   HT     0.417000        1.0080           0
   55784 WT3  4078 TIP3 OH2  OT    -0.834000       15.9994           0
   55785 WT3  4078 TIP3 H1   HT     0.417000        1.0080           0
   55786 WT3  4078 TIP3 H2   HT     0.417000        1.0080           0
   55787 WT3  4079 TIP3 OH2  OT    -0.834000       15.9994           0
   55788 WT3  4079 TIP3 H1   HT     0.417000        1.0080           0
   55789 WT3  4079 TIP3 H2   HT     0.417000        1.0080           0
   55790 WT3  4080 TIP3 OH2  OT    -0.834000       15.9994           0
   55791 WT3  4080 TIP3 H1   HT     0.417000        1.0080           0
   55792 WT3  4080 TIP3 H2   HT     0.417000        1.0080           0
   55793 WT3  4081 TIP3 OH2  OT    -0.834000       15.9994           0
   55794 WT3  4081 TIP3 H1   HT     0.417000        1.0080           0
   55795 WT3  4081 TIP3 H2   HT     0.417000        1.0080           0
   55796 WT3  4082 TIP3 OH2  OT    -0.834000       15.9994           0
   55797 WT3  4082 TIP3 H1   HT     0.417000        1.0080           0
   55798 WT3  4082 TIP3 H2   HT     0.417000        1.0080           0
   55799 WT3  4083 TIP3 OH2  OT    -0.834000       15.9994           0
   55800 WT3  4083 TIP3 H1   HT     0.417000        1.0080           0
   55801 WT3  4083 TIP3 H2   HT     0.417000        1.0080           0
   55802 WT3  4084 TIP3 OH2  OT    -0.834000       15.9994           0
   55803 WT3  4084 TIP3 H1   HT     0.417000        1.0080           0
   55804 WT3  4084 TIP3 H2   HT     0.417000        1.0080           0
   55805 WT3  4085 TIP3 OH2  OT    -0.834000       15.9994           0
   55806 WT3  4085 TIP3 H1   HT     0.417000        1.0080           0
   55807 WT3  4085 TIP3 H2   HT     0.417000        1.0080           0
   55808 WT3  4086 TIP3 OH2  OT    -0.834000       15.9994           0
   55809 WT3  4086 TIP3 H1   HT     0.417000        1.0080           0
   55810 WT3  4086 TIP3 H2   HT     0.417000        1.0080           0
   55811 WT3  4089 TIP3 OH2  OT    -0.834000       15.9994           0
   55812 WT3  4089 TIP3 H1   HT     0.417000        1.0080           0
   55813 WT3  4089 TIP3 H2   HT     0.417000        1.0080           0
   55814 WT3  4091 TIP3 OH2  OT    -0.834000       15.9994           0
   55815 WT3  4091 TIP3 H1   HT     0.417000        1.0080           0
   55816 WT3  4091 TIP3 H2   HT     0.417000        1.0080           0
   55817 WT3  4094 TIP3 OH2  OT    -0.834000       15.9994           0
   55818 WT3  4094 TIP3 H1   HT     0.417000        1.0080           0
   55819 WT3  4094 TIP3 H2   HT     0.417000        1.0080           0
   55820 WT3  4096 TIP3 OH2  OT    -0.834000       15.9994           0
   55821 WT3  4096 TIP3 H1   HT     0.417000        1.0080           0
   55822 WT3  4096 TIP3 H2   HT     0.417000        1.0080           0
   55823 WT3  4098 TIP3 OH2  OT    -0.834000       15.9994           0
   55824 WT3  4098 TIP3 H1   HT     0.417000        1.0080           0
   55825 WT3  4098 TIP3 H2   HT     0.417000        1.0080           0
   55826 WT3  4099 TIP3 OH2  OT    -0.834000       15.9994           0
   55827 WT3  4099 TIP3 H1   HT     0.417000        1.0080           0
   55828 WT3  4099 TIP3 H2   HT     0.417000        1.0080           0
   55829 WT3  4100 TIP3 OH2  OT    -0.834000       15.9994           0
   55830 WT3  4100 TIP3 H1   HT     0.417000        1.0080           0
   55831 WT3  4100 TIP3 H2   HT     0.417000        1.0080           0
   55832 WT3  4101 TIP3 OH2  OT    -0.834000       15.9994           0
   55833 WT3  4101 TIP3 H1   HT     0.417000        1.0080           0
   55834 WT3  4101 TIP3 H2   HT     0.417000        1.0080           0
   55835 WT3  4102 TIP3 OH2  OT    -0.834000       15.9994           0
   55836 WT3  4102 TIP3 H1   HT     0.417000        1.0080           0
   55837 WT3  4102 TIP3 H2   HT     0.417000        1.0080           0
   55838 WT3  4103 TIP3 OH2  OT    -0.834000       15.9994           0
   55839 WT3  4103 TIP3 H1   HT     0.417000        1.0080           0
   55840 WT3  4103 TIP3 H2   HT     0.417000        1.0080           0
   55841 WT3  4104 TIP3 OH2  OT    -0.834000       15.9994           0
   55842 WT3  4104 TIP3 H1   HT     0.417000        1.0080           0
   55843 WT3  4104 TIP3 H2   HT     0.417000        1.0080           0
   55844 WT3  4105 TIP3 OH2  OT    -0.834000       15.9994           0
   55845 WT3  4105 TIP3 H1   HT     0.417000        1.0080           0
   55846 WT3  4105 TIP3 H2   HT     0.417000        1.0080           0
   55847 WT3  4106 TIP3 OH2  OT    -0.834000       15.9994           0
   55848 WT3  4106 TIP3 H1   HT     0.417000        1.0080           0
   55849 WT3  4106 TIP3 H2   HT     0.417000        1.0080           0
   55850 WT3  4107 TIP3 OH2  OT    -0.834000       15.9994           0
   55851 WT3  4107 TIP3 H1   HT     0.417000        1.0080           0
   55852 WT3  4107 TIP3 H2   HT     0.417000        1.0080           0
   55853 WT3  4109 TIP3 OH2  OT    -0.834000       15.9994           0
   55854 WT3  4109 TIP3 H1   HT     0.417000        1.0080           0
   55855 WT3  4109 TIP3 H2   HT     0.417000        1.0080           0
   55856 WT3  4110 TIP3 OH2  OT    -0.834000       15.9994           0
   55857 WT3  4110 TIP3 H1   HT     0.417000        1.0080           0
   55858 WT3  4110 TIP3 H2   HT     0.417000        1.0080           0
   55859 WT3  4111 TIP3 OH2  OT    -0.834000       15.9994           0
   55860 WT3  4111 TIP3 H1   HT     0.417000        1.0080           0
   55861 WT3  4111 TIP3 H2   HT     0.417000        1.0080           0
   55862 WT3  4120 TIP3 OH2  OT    -0.834000       15.9994           0
   55863 WT3  4120 TIP3 H1   HT     0.417000        1.0080           0
   55864 WT3  4120 TIP3 H2   HT     0.417000        1.0080           0
   55865 WT3  4121 TIP3 OH2  OT    -0.834000       15.9994           0
   55866 WT3  4121 TIP3 H1   HT     0.417000        1.0080           0
   55867 WT3  4121 TIP3 H2   HT     0.417000        1.0080           0
   55868 WT3  4122 TIP3 OH2  OT    -0.834000       15.9994           0
   55869 WT3  4122 TIP3 H1   HT     0.417000        1.0080           0
   55870 WT3  4122 TIP3 H2   HT     0.417000        1.0080           0
   55871 WT3  4123 TIP3 OH2  OT    -0.834000       15.9994           0
   55872 WT3  4123 TIP3 H1   HT     0.417000        1.0080           0
   55873 WT3  4123 TIP3 H2   HT     0.417000        1.0080           0
   55874 WT3  4125 TIP3 OH2  OT    -0.834000       15.9994           0
   55875 WT3  4125 TIP3 H1   HT     0.417000        1.0080           0
   55876 WT3  4125 TIP3 H2   HT     0.417000        1.0080           0
   55877 WT3  4126 TIP3 OH2  OT    -0.834000       15.9994           0
   55878 WT3  4126 TIP3 H1   HT     0.417000        1.0080           0
   55879 WT3  4126 TIP3 H2   HT     0.417000        1.0080           0
   55880 WT3  4127 TIP3 OH2  OT    -0.834000       15.9994           0
   55881 WT3  4127 TIP3 H1   HT     0.417000        1.0080           0
   55882 WT3  4127 TIP3 H2   HT     0.417000        1.0080           0
   55883 WT3  4129 TIP3 OH2  OT    -0.834000       15.9994           0
   55884 WT3  4129 TIP3 H1   HT     0.417000        1.0080           0
   55885 WT3  4129 TIP3 H2   HT     0.417000        1.0080           0
   55886 WT3  4131 TIP3 OH2  OT    -0.834000       15.9994           0
   55887 WT3  4131 TIP3 H1   HT     0.417000        1.0080           0
   55888 WT3  4131 TIP3 H2   HT     0.417000        1.0080           0
   55889 WT3  4138 TIP3 OH2  OT    -0.834000       15.9994           0
   55890 WT3  4138 TIP3 H1   HT     0.417000        1.0080           0
   55891 WT3  4138 TIP3 H2   HT     0.417000        1.0080           0
   55892 WT3  4141 TIP3 OH2  OT    -0.834000       15.9994           0
   55893 WT3  4141 TIP3 H1   HT     0.417000        1.0080           0
   55894 WT3  4141 TIP3 H2   HT     0.417000        1.0080           0
   55895 WT3  4143 TIP3 OH2  OT    -0.834000       15.9994           0
   55896 WT3  4143 TIP3 H1   HT     0.417000        1.0080           0
   55897 WT3  4143 TIP3 H2   HT     0.417000        1.0080           0
   55898 WT3  4144 TIP3 OH2  OT    -0.834000       15.9994           0
   55899 WT3  4144 TIP3 H1   HT     0.417000        1.0080           0
   55900 WT3  4144 TIP3 H2   HT     0.417000        1.0080           0
   55901 WT3  4146 TIP3 OH2  OT    -0.834000       15.9994           0
   55902 WT3  4146 TIP3 H1   HT     0.417000        1.0080           0
   55903 WT3  4146 TIP3 H2   HT     0.417000        1.0080           0
   55904 WT3  4147 TIP3 OH2  OT    -0.834000       15.9994           0
   55905 WT3  4147 TIP3 H1   HT     0.417000        1.0080           0
   55906 WT3  4147 TIP3 H2   HT     0.417000        1.0080           0
   55907 WT3  4148 TIP3 OH2  OT    -0.834000       15.9994           0
   55908 WT3  4148 TIP3 H1   HT     0.417000        1.0080           0
   55909 WT3  4148 TIP3 H2   HT     0.417000        1.0080           0
   55910 WT3  4151 TIP3 OH2  OT    -0.834000       15.9994           0
   55911 WT3  4151 TIP3 H1   HT     0.417000        1.0080           0
   55912 WT3  4151 TIP3 H2   HT     0.417000        1.0080           0
   55913 WT3  4152 TIP3 OH2  OT    -0.834000       15.9994           0
   55914 WT3  4152 TIP3 H1   HT     0.417000        1.0080           0
   55915 WT3  4152 TIP3 H2   HT     0.417000        1.0080           0
   55916 WT3  4157 TIP3 OH2  OT    -0.834000       15.9994           0
   55917 WT3  4157 TIP3 H1   HT     0.417000        1.0080           0
   55918 WT3  4157 TIP3 H2   HT     0.417000        1.0080           0
   55919 WT3  4159 TIP3 OH2  OT    -0.834000       15.9994           0
   55920 WT3  4159 TIP3 H1   HT     0.417000        1.0080           0
   55921 WT3  4159 TIP3 H2   HT     0.417000        1.0080           0
   55922 WT3  4162 TIP3 OH2  OT    -0.834000       15.9994           0
   55923 WT3  4162 TIP3 H1   HT     0.417000        1.0080           0
   55924 WT3  4162 TIP3 H2   HT     0.417000        1.0080           0
   55925 WT3  4164 TIP3 OH2  OT    -0.834000       15.9994           0
   55926 WT3  4164 TIP3 H1   HT     0.417000        1.0080           0
   55927 WT3  4164 TIP3 H2   HT     0.417000        1.0080           0
   55928 WT3  4166 TIP3 OH2  OT    -0.834000       15.9994           0
   55929 WT3  4166 TIP3 H1   HT     0.417000        1.0080           0
   55930 WT3  4166 TIP3 H2   HT     0.417000        1.0080           0
   55931 WT3  4167 TIP3 OH2  OT    -0.834000       15.9994           0
   55932 WT3  4167 TIP3 H1   HT     0.417000        1.0080           0
   55933 WT3  4167 TIP3 H2   HT     0.417000        1.0080           0
   55934 WT3  4168 TIP3 OH2  OT    -0.834000       15.9994           0
   55935 WT3  4168 TIP3 H1   HT     0.417000        1.0080           0
   55936 WT3  4168 TIP3 H2   HT     0.417000        1.0080           0
   55937 WT3  4170 TIP3 OH2  OT    -0.834000       15.9994           0
   55938 WT3  4170 TIP3 H1   HT     0.417000        1.0080           0
   55939 WT3  4170 TIP3 H2   HT     0.417000        1.0080           0
   55940 WT3  4171 TIP3 OH2  OT    -0.834000       15.9994           0
   55941 WT3  4171 TIP3 H1   HT     0.417000        1.0080           0
   55942 WT3  4171 TIP3 H2   HT     0.417000        1.0080           0
   55943 WT3  4172 TIP3 OH2  OT    -0.834000       15.9994           0
   55944 WT3  4172 TIP3 H1   HT     0.417000        1.0080           0
   55945 WT3  4172 TIP3 H2   HT     0.417000        1.0080           0
   55946 WT3  4179 TIP3 OH2  OT    -0.834000       15.9994           0
   55947 WT3  4179 TIP3 H1   HT     0.417000        1.0080           0
   55948 WT3  4179 TIP3 H2   HT     0.417000        1.0080           0
   55949 WT3  4182 TIP3 OH2  OT    -0.834000       15.9994           0
   55950 WT3  4182 TIP3 H1   HT     0.417000        1.0080           0
   55951 WT3  4182 TIP3 H2   HT     0.417000        1.0080           0
   55952 WT3  4183 TIP3 OH2  OT    -0.834000       15.9994           0
   55953 WT3  4183 TIP3 H1   HT     0.417000        1.0080           0
   55954 WT3  4183 TIP3 H2   HT     0.417000        1.0080           0
   55955 WT3  4184 TIP3 OH2  OT    -0.834000       15.9994           0
   55956 WT3  4184 TIP3 H1   HT     0.417000        1.0080           0
   55957 WT3  4184 TIP3 H2   HT     0.417000        1.0080           0
   55958 WT3  4185 TIP3 OH2  OT    -0.834000       15.9994           0
   55959 WT3  4185 TIP3 H1   HT     0.417000        1.0080           0
   55960 WT3  4185 TIP3 H2   HT     0.417000        1.0080           0
   55961 WT3  4186 TIP3 OH2  OT    -0.834000       15.9994           0
   55962 WT3  4186 TIP3 H1   HT     0.417000        1.0080           0
   55963 WT3  4186 TIP3 H2   HT     0.417000        1.0080           0
   55964 WT3  4187 TIP3 OH2  OT    -0.834000       15.9994           0
   55965 WT3  4187 TIP3 H1   HT     0.417000        1.0080           0
   55966 WT3  4187 TIP3 H2   HT     0.417000        1.0080           0
   55967 WT3  4188 TIP3 OH2  OT    -0.834000       15.9994           0
   55968 WT3  4188 TIP3 H1   HT     0.417000        1.0080           0
   55969 WT3  4188 TIP3 H2   HT     0.417000        1.0080           0
   55970 WT3  4190 TIP3 OH2  OT    -0.834000       15.9994           0
   55971 WT3  4190 TIP3 H1   HT     0.417000        1.0080           0
   55972 WT3  4190 TIP3 H2   HT     0.417000        1.0080           0
   55973 WT3  4191 TIP3 OH2  OT    -0.834000       15.9994           0
   55974 WT3  4191 TIP3 H1   HT     0.417000        1.0080           0
   55975 WT3  4191 TIP3 H2   HT     0.417000        1.0080           0
   55976 WT3  4192 TIP3 OH2  OT    -0.834000       15.9994           0
   55977 WT3  4192 TIP3 H1   HT     0.417000        1.0080           0
   55978 WT3  4192 TIP3 H2   HT     0.417000        1.0080           0
   55979 WT3  4194 TIP3 OH2  OT    -0.834000       15.9994           0
   55980 WT3  4194 TIP3 H1   HT     0.417000        1.0080           0
   55981 WT3  4194 TIP3 H2   HT     0.417000        1.0080           0
   55982 WT3  4198 TIP3 OH2  OT    -0.834000       15.9994           0
   55983 WT3  4198 TIP3 H1   HT     0.417000        1.0080           0
   55984 WT3  4198 TIP3 H2   HT     0.417000        1.0080           0
   55985 WT3  4205 TIP3 OH2  OT    -0.834000       15.9994           0
   55986 WT3  4205 TIP3 H1   HT     0.417000        1.0080           0
   55987 WT3  4205 TIP3 H2   HT     0.417000        1.0080           0
   55988 WT3  4206 TIP3 OH2  OT    -0.834000       15.9994           0
   55989 WT3  4206 TIP3 H1   HT     0.417000        1.0080           0
   55990 WT3  4206 TIP3 H2   HT     0.417000        1.0080           0
   55991 WT3  4207 TIP3 OH2  OT    -0.834000       15.9994           0
   55992 WT3  4207 TIP3 H1   HT     0.417000        1.0080           0
   55993 WT3  4207 TIP3 H2   HT     0.417000        1.0080           0
   55994 WT3  4208 TIP3 OH2  OT    -0.834000       15.9994           0
   55995 WT3  4208 TIP3 H1   HT     0.417000        1.0080           0
   55996 WT3  4208 TIP3 H2   HT     0.417000        1.0080           0
   55997 WT3  4209 TIP3 OH2  OT    -0.834000       15.9994           0
   55998 WT3  4209 TIP3 H1   HT     0.417000        1.0080           0
   55999 WT3  4209 TIP3 H2   HT     0.417000        1.0080           0
   56000 WT3  4210 TIP3 OH2  OT    -0.834000       15.9994           0
   56001 WT3  4210 TIP3 H1   HT     0.417000        1.0080           0
   56002 WT3  4210 TIP3 H2   HT     0.417000        1.0080           0
   56003 WT3  4211 TIP3 OH2  OT    -0.834000       15.9994           0
   56004 WT3  4211 TIP3 H1   HT     0.417000        1.0080           0
   56005 WT3  4211 TIP3 H2   HT     0.417000        1.0080           0
   56006 WT3  4213 TIP3 OH2  OT    -0.834000       15.9994           0
   56007 WT3  4213 TIP3 H1   HT     0.417000        1.0080           0
   56008 WT3  4213 TIP3 H2   HT     0.417000        1.0080           0
   56009 WT3  4214 TIP3 OH2  OT    -0.834000       15.9994           0
   56010 WT3  4214 TIP3 H1   HT     0.417000        1.0080           0
   56011 WT3  4214 TIP3 H2   HT     0.417000        1.0080           0
   56012 WT3  4215 TIP3 OH2  OT    -0.834000       15.9994           0
   56013 WT3  4215 TIP3 H1   HT     0.417000        1.0080           0
   56014 WT3  4215 TIP3 H2   HT     0.417000        1.0080           0
   56015 WT3  4216 TIP3 OH2  OT    -0.834000       15.9994           0
   56016 WT3  4216 TIP3 H1   HT     0.417000        1.0080           0
   56017 WT3  4216 TIP3 H2   HT     0.417000        1.0080           0
   56018 WT3  4218 TIP3 OH2  OT    -0.834000       15.9994           0
   56019 WT3  4218 TIP3 H1   HT     0.417000        1.0080           0
   56020 WT3  4218 TIP3 H2   HT     0.417000        1.0080           0
   56021 WT3  4219 TIP3 OH2  OT    -0.834000       15.9994           0
   56022 WT3  4219 TIP3 H1   HT     0.417000        1.0080           0
   56023 WT3  4219 TIP3 H2   HT     0.417000        1.0080           0
   56024 WT3  4224 TIP3 OH2  OT    -0.834000       15.9994           0
   56025 WT3  4224 TIP3 H1   HT     0.417000        1.0080           0
   56026 WT3  4224 TIP3 H2   HT     0.417000        1.0080           0
   56027 WT3  4226 TIP3 OH2  OT    -0.834000       15.9994           0
   56028 WT3  4226 TIP3 H1   HT     0.417000        1.0080           0
   56029 WT3  4226 TIP3 H2   HT     0.417000        1.0080           0
   56030 WT3  4227 TIP3 OH2  OT    -0.834000       15.9994           0
   56031 WT3  4227 TIP3 H1   HT     0.417000        1.0080           0
   56032 WT3  4227 TIP3 H2   HT     0.417000        1.0080           0
   56033 WT3  4228 TIP3 OH2  OT    -0.834000       15.9994           0
   56034 WT3  4228 TIP3 H1   HT     0.417000        1.0080           0
   56035 WT3  4228 TIP3 H2   HT     0.417000        1.0080           0
   56036 WT3  4230 TIP3 OH2  OT    -0.834000       15.9994           0
   56037 WT3  4230 TIP3 H1   HT     0.417000        1.0080           0
   56038 WT3  4230 TIP3 H2   HT     0.417000        1.0080           0
   56039 WT3  4231 TIP3 OH2  OT    -0.834000       15.9994           0
   56040 WT3  4231 TIP3 H1   HT     0.417000        1.0080           0
   56041 WT3  4231 TIP3 H2   HT     0.417000        1.0080           0
   56042 WT3  4233 TIP3 OH2  OT    -0.834000       15.9994           0
   56043 WT3  4233 TIP3 H1   HT     0.417000        1.0080           0
   56044 WT3  4233 TIP3 H2   HT     0.417000        1.0080           0
   56045 WT3  4234 TIP3 OH2  OT    -0.834000       15.9994           0
   56046 WT3  4234 TIP3 H1   HT     0.417000        1.0080           0
   56047 WT3  4234 TIP3 H2   HT     0.417000        1.0080           0
   56048 WT3  4235 TIP3 OH2  OT    -0.834000       15.9994           0
   56049 WT3  4235 TIP3 H1   HT     0.417000        1.0080           0
   56050 WT3  4235 TIP3 H2   HT     0.417000        1.0080           0
   56051 WT3  4236 TIP3 OH2  OT    -0.834000       15.9994           0
   56052 WT3  4236 TIP3 H1   HT     0.417000        1.0080           0
   56053 WT3  4236 TIP3 H2   HT     0.417000        1.0080           0
   56054 WT3  4238 TIP3 OH2  OT    -0.834000       15.9994           0
   56055 WT3  4238 TIP3 H1   HT     0.417000        1.0080           0
   56056 WT3  4238 TIP3 H2   HT     0.417000        1.0080           0
   56057 WT3  4243 TIP3 OH2  OT    -0.834000       15.9994           0
   56058 WT3  4243 TIP3 H1   HT     0.417000        1.0080           0
   56059 WT3  4243 TIP3 H2   HT     0.417000        1.0080           0
   56060 WT3  4244 TIP3 OH2  OT    -0.834000       15.9994           0
   56061 WT3  4244 TIP3 H1   HT     0.417000        1.0080           0
   56062 WT3  4244 TIP3 H2   HT     0.417000        1.0080           0
   56063 WT3  4245 TIP3 OH2  OT    -0.834000       15.9994           0
   56064 WT3  4245 TIP3 H1   HT     0.417000        1.0080           0
   56065 WT3  4245 TIP3 H2   HT     0.417000        1.0080           0
   56066 WT3  4246 TIP3 OH2  OT    -0.834000       15.9994           0
   56067 WT3  4246 TIP3 H1   HT     0.417000        1.0080           0
   56068 WT3  4246 TIP3 H2   HT     0.417000        1.0080           0
   56069 WT3  4248 TIP3 OH2  OT    -0.834000       15.9994           0
   56070 WT3  4248 TIP3 H1   HT     0.417000        1.0080           0
   56071 WT3  4248 TIP3 H2   HT     0.417000        1.0080           0
   56072 WT3  4249 TIP3 OH2  OT    -0.834000       15.9994           0
   56073 WT3  4249 TIP3 H1   HT     0.417000        1.0080           0
   56074 WT3  4249 TIP3 H2   HT     0.417000        1.0080           0
   56075 WT3  4250 TIP3 OH2  OT    -0.834000       15.9994           0
   56076 WT3  4250 TIP3 H1   HT     0.417000        1.0080           0
   56077 WT3  4250 TIP3 H2   HT     0.417000        1.0080           0
   56078 WT3  4252 TIP3 OH2  OT    -0.834000       15.9994           0
   56079 WT3  4252 TIP3 H1   HT     0.417000        1.0080           0
   56080 WT3  4252 TIP3 H2   HT     0.417000        1.0080           0
   56081 WT3  4255 TIP3 OH2  OT    -0.834000       15.9994           0
   56082 WT3  4255 TIP3 H1   HT     0.417000        1.0080           0
   56083 WT3  4255 TIP3 H2   HT     0.417000        1.0080           0
   56084 WT3  4260 TIP3 OH2  OT    -0.834000       15.9994           0
   56085 WT3  4260 TIP3 H1   HT     0.417000        1.0080           0
   56086 WT3  4260 TIP3 H2   HT     0.417000        1.0080           0
   56087 WT3  4262 TIP3 OH2  OT    -0.834000       15.9994           0
   56088 WT3  4262 TIP3 H1   HT     0.417000        1.0080           0
   56089 WT3  4262 TIP3 H2   HT     0.417000        1.0080           0
   56090 WT3  4264 TIP3 OH2  OT    -0.834000       15.9994           0
   56091 WT3  4264 TIP3 H1   HT     0.417000        1.0080           0
   56092 WT3  4264 TIP3 H2   HT     0.417000        1.0080           0
   56093 WT3  4266 TIP3 OH2  OT    -0.834000       15.9994           0
   56094 WT3  4266 TIP3 H1   HT     0.417000        1.0080           0
   56095 WT3  4266 TIP3 H2   HT     0.417000        1.0080           0
   56096 WT3  4267 TIP3 OH2  OT    -0.834000       15.9994           0
   56097 WT3  4267 TIP3 H1   HT     0.417000        1.0080           0
   56098 WT3  4267 TIP3 H2   HT     0.417000        1.0080           0
   56099 WT3  4268 TIP3 OH2  OT    -0.834000       15.9994           0
   56100 WT3  4268 TIP3 H1   HT     0.417000        1.0080           0
   56101 WT3  4268 TIP3 H2   HT     0.417000        1.0080           0
   56102 WT3  4270 TIP3 OH2  OT    -0.834000       15.9994           0
   56103 WT3  4270 TIP3 H1   HT     0.417000        1.0080           0
   56104 WT3  4270 TIP3 H2   HT     0.417000        1.0080           0
   56105 WT3  4272 TIP3 OH2  OT    -0.834000       15.9994           0
   56106 WT3  4272 TIP3 H1   HT     0.417000        1.0080           0
   56107 WT3  4272 TIP3 H2   HT     0.417000        1.0080           0
   56108 WT3  4273 TIP3 OH2  OT    -0.834000       15.9994           0
   56109 WT3  4273 TIP3 H1   HT     0.417000        1.0080           0
   56110 WT3  4273 TIP3 H2   HT     0.417000        1.0080           0
   56111 WT3  4274 TIP3 OH2  OT    -0.834000       15.9994           0
   56112 WT3  4274 TIP3 H1   HT     0.417000        1.0080           0
   56113 WT3  4274 TIP3 H2   HT     0.417000        1.0080           0
   56114 WT3  4275 TIP3 OH2  OT    -0.834000       15.9994           0
   56115 WT3  4275 TIP3 H1   HT     0.417000        1.0080           0
   56116 WT3  4275 TIP3 H2   HT     0.417000        1.0080           0
   56117 WT3  4277 TIP3 OH2  OT    -0.834000       15.9994           0
   56118 WT3  4277 TIP3 H1   HT     0.417000        1.0080           0
   56119 WT3  4277 TIP3 H2   HT     0.417000        1.0080           0
   56120 WT3  4278 TIP3 OH2  OT    -0.834000       15.9994           0
   56121 WT3  4278 TIP3 H1   HT     0.417000        1.0080           0
   56122 WT3  4278 TIP3 H2   HT     0.417000        1.0080           0
   56123 WT3  4282 TIP3 OH2  OT    -0.834000       15.9994           0
   56124 WT3  4282 TIP3 H1   HT     0.417000        1.0080           0
   56125 WT3  4282 TIP3 H2   HT     0.417000        1.0080           0
   56126 WT3  4283 TIP3 OH2  OT    -0.834000       15.9994           0
   56127 WT3  4283 TIP3 H1   HT     0.417000        1.0080           0
   56128 WT3  4283 TIP3 H2   HT     0.417000        1.0080           0
   56129 WT3  4289 TIP3 OH2  OT    -0.834000       15.9994           0
   56130 WT3  4289 TIP3 H1   HT     0.417000        1.0080           0
   56131 WT3  4289 TIP3 H2   HT     0.417000        1.0080           0
   56132 WT3  4290 TIP3 OH2  OT    -0.834000       15.9994           0
   56133 WT3  4290 TIP3 H1   HT     0.417000        1.0080           0
   56134 WT3  4290 TIP3 H2   HT     0.417000        1.0080           0
   56135 WT3  4291 TIP3 OH2  OT    -0.834000       15.9994           0
   56136 WT3  4291 TIP3 H1   HT     0.417000        1.0080           0
   56137 WT3  4291 TIP3 H2   HT     0.417000        1.0080           0
   56138 WT3  4292 TIP3 OH2  OT    -0.834000       15.9994           0
   56139 WT3  4292 TIP3 H1   HT     0.417000        1.0080           0
   56140 WT3  4292 TIP3 H2   HT     0.417000        1.0080           0
   56141 WT3  4293 TIP3 OH2  OT    -0.834000       15.9994           0
   56142 WT3  4293 TIP3 H1   HT     0.417000        1.0080           0
   56143 WT3  4293 TIP3 H2   HT     0.417000        1.0080           0
   56144 WT3  4294 TIP3 OH2  OT    -0.834000       15.9994           0
   56145 WT3  4294 TIP3 H1   HT     0.417000        1.0080           0
   56146 WT3  4294 TIP3 H2   HT     0.417000        1.0080           0
   56147 WT3  4295 TIP3 OH2  OT    -0.834000       15.9994           0
   56148 WT3  4295 TIP3 H1   HT     0.417000        1.0080           0
   56149 WT3  4295 TIP3 H2   HT     0.417000        1.0080           0
   56150 WT3  4296 TIP3 OH2  OT    -0.834000       15.9994           0
   56151 WT3  4296 TIP3 H1   HT     0.417000        1.0080           0
   56152 WT3  4296 TIP3 H2   HT     0.417000        1.0080           0
   56153 WT3  4298 TIP3 OH2  OT    -0.834000       15.9994           0
   56154 WT3  4298 TIP3 H1   HT     0.417000        1.0080           0
   56155 WT3  4298 TIP3 H2   HT     0.417000        1.0080           0
   56156 WT3  4306 TIP3 OH2  OT    -0.834000       15.9994           0
   56157 WT3  4306 TIP3 H1   HT     0.417000        1.0080           0
   56158 WT3  4306 TIP3 H2   HT     0.417000        1.0080           0
   56159 WT3  4308 TIP3 OH2  OT    -0.834000       15.9994           0
   56160 WT3  4308 TIP3 H1   HT     0.417000        1.0080           0
   56161 WT3  4308 TIP3 H2   HT     0.417000        1.0080           0
   56162 WT3  4309 TIP3 OH2  OT    -0.834000       15.9994           0
   56163 WT3  4309 TIP3 H1   HT     0.417000        1.0080           0
   56164 WT3  4309 TIP3 H2   HT     0.417000        1.0080           0
   56165 WT3  4310 TIP3 OH2  OT    -0.834000       15.9994           0
   56166 WT3  4310 TIP3 H1   HT     0.417000        1.0080           0
   56167 WT3  4310 TIP3 H2   HT     0.417000        1.0080           0
   56168 WT3  4311 TIP3 OH2  OT    -0.834000       15.9994           0
   56169 WT3  4311 TIP3 H1   HT     0.417000        1.0080           0
   56170 WT3  4311 TIP3 H2   HT     0.417000        1.0080           0
   56171 WT3  4312 TIP3 OH2  OT    -0.834000       15.9994           0
   56172 WT3  4312 TIP3 H1   HT     0.417000        1.0080           0
   56173 WT3  4312 TIP3 H2   HT     0.417000        1.0080           0
   56174 WT3  4313 TIP3 OH2  OT    -0.834000       15.9994           0
   56175 WT3  4313 TIP3 H1   HT     0.417000        1.0080           0
   56176 WT3  4313 TIP3 H2   HT     0.417000        1.0080           0
   56177 WT3  4314 TIP3 OH2  OT    -0.834000       15.9994           0
   56178 WT3  4314 TIP3 H1   HT     0.417000        1.0080           0
   56179 WT3  4314 TIP3 H2   HT     0.417000        1.0080           0
   56180 WT3  4315 TIP3 OH2  OT    -0.834000       15.9994           0
   56181 WT3  4315 TIP3 H1   HT     0.417000        1.0080           0
   56182 WT3  4315 TIP3 H2   HT     0.417000        1.0080           0
   56183 WT3  4316 TIP3 OH2  OT    -0.834000       15.9994           0
   56184 WT3  4316 TIP3 H1   HT     0.417000        1.0080           0
   56185 WT3  4316 TIP3 H2   HT     0.417000        1.0080           0
   56186 WT3  4317 TIP3 OH2  OT    -0.834000       15.9994           0
   56187 WT3  4317 TIP3 H1   HT     0.417000        1.0080           0
   56188 WT3  4317 TIP3 H2   HT     0.417000        1.0080           0
   56189 WT3  4318 TIP3 OH2  OT    -0.834000       15.9994           0
   56190 WT3  4318 TIP3 H1   HT     0.417000        1.0080           0
   56191 WT3  4318 TIP3 H2   HT     0.417000        1.0080           0
   56192 WT3  4320 TIP3 OH2  OT    -0.834000       15.9994           0
   56193 WT3  4320 TIP3 H1   HT     0.417000        1.0080           0
   56194 WT3  4320 TIP3 H2   HT     0.417000        1.0080           0
   56195 WT3  4321 TIP3 OH2  OT    -0.834000       15.9994           0
   56196 WT3  4321 TIP3 H1   HT     0.417000        1.0080           0
   56197 WT3  4321 TIP3 H2   HT     0.417000        1.0080           0
   56198 WT3  4322 TIP3 OH2  OT    -0.834000       15.9994           0
   56199 WT3  4322 TIP3 H1   HT     0.417000        1.0080           0
   56200 WT3  4322 TIP3 H2   HT     0.417000        1.0080           0
   56201 WT3  4324 TIP3 OH2  OT    -0.834000       15.9994           0
   56202 WT3  4324 TIP3 H1   HT     0.417000        1.0080           0
   56203 WT3  4324 TIP3 H2   HT     0.417000        1.0080           0
   56204 WT3  4328 TIP3 OH2  OT    -0.834000       15.9994           0
   56205 WT3  4328 TIP3 H1   HT     0.417000        1.0080           0
   56206 WT3  4328 TIP3 H2   HT     0.417000        1.0080           0
   56207 WT3  4329 TIP3 OH2  OT    -0.834000       15.9994           0
   56208 WT3  4329 TIP3 H1   HT     0.417000        1.0080           0
   56209 WT3  4329 TIP3 H2   HT     0.417000        1.0080           0
   56210 WT3  4330 TIP3 OH2  OT    -0.834000       15.9994           0
   56211 WT3  4330 TIP3 H1   HT     0.417000        1.0080           0
   56212 WT3  4330 TIP3 H2   HT     0.417000        1.0080           0
   56213 WT3  4331 TIP3 OH2  OT    -0.834000       15.9994           0
   56214 WT3  4331 TIP3 H1   HT     0.417000        1.0080           0
   56215 WT3  4331 TIP3 H2   HT     0.417000        1.0080           0
   56216 WT3  4332 TIP3 OH2  OT    -0.834000       15.9994           0
   56217 WT3  4332 TIP3 H1   HT     0.417000        1.0080           0
   56218 WT3  4332 TIP3 H2   HT     0.417000        1.0080           0
   56219 WT3  4333 TIP3 OH2  OT    -0.834000       15.9994           0
   56220 WT3  4333 TIP3 H1   HT     0.417000        1.0080           0
   56221 WT3  4333 TIP3 H2   HT     0.417000        1.0080           0
   56222 WT3  4334 TIP3 OH2  OT    -0.834000       15.9994           0
   56223 WT3  4334 TIP3 H1   HT     0.417000        1.0080           0
   56224 WT3  4334 TIP3 H2   HT     0.417000        1.0080           0
   56225 WT3  4335 TIP3 OH2  OT    -0.834000       15.9994           0
   56226 WT3  4335 TIP3 H1   HT     0.417000        1.0080           0
   56227 WT3  4335 TIP3 H2   HT     0.417000        1.0080           0
   56228 WT3  4337 TIP3 OH2  OT    -0.834000       15.9994           0
   56229 WT3  4337 TIP3 H1   HT     0.417000        1.0080           0
   56230 WT3  4337 TIP3 H2   HT     0.417000        1.0080           0
   56231 WT3  4338 TIP3 OH2  OT    -0.834000       15.9994           0
   56232 WT3  4338 TIP3 H1   HT     0.417000        1.0080           0
   56233 WT3  4338 TIP3 H2   HT     0.417000        1.0080           0
   56234 WT3  4339 TIP3 OH2  OT    -0.834000       15.9994           0
   56235 WT3  4339 TIP3 H1   HT     0.417000        1.0080           0
   56236 WT3  4339 TIP3 H2   HT     0.417000        1.0080           0
   56237 WT3  4349 TIP3 OH2  OT    -0.834000       15.9994           0
   56238 WT3  4349 TIP3 H1   HT     0.417000        1.0080           0
   56239 WT3  4349 TIP3 H2   HT     0.417000        1.0080           0
   56240 WT3  4350 TIP3 OH2  OT    -0.834000       15.9994           0
   56241 WT3  4350 TIP3 H1   HT     0.417000        1.0080           0
   56242 WT3  4350 TIP3 H2   HT     0.417000        1.0080           0
   56243 WT3  4351 TIP3 OH2  OT    -0.834000       15.9994           0
   56244 WT3  4351 TIP3 H1   HT     0.417000        1.0080           0
   56245 WT3  4351 TIP3 H2   HT     0.417000        1.0080           0
   56246 WT3  4352 TIP3 OH2  OT    -0.834000       15.9994           0
   56247 WT3  4352 TIP3 H1   HT     0.417000        1.0080           0
   56248 WT3  4352 TIP3 H2   HT     0.417000        1.0080           0
   56249 WT3  4353 TIP3 OH2  OT    -0.834000       15.9994           0
   56250 WT3  4353 TIP3 H1   HT     0.417000        1.0080           0
   56251 WT3  4353 TIP3 H2   HT     0.417000        1.0080           0
   56252 WT3  4354 TIP3 OH2  OT    -0.834000       15.9994           0
   56253 WT3  4354 TIP3 H1   HT     0.417000        1.0080           0
   56254 WT3  4354 TIP3 H2   HT     0.417000        1.0080           0
   56255 WT3  4355 TIP3 OH2  OT    -0.834000       15.9994           0
   56256 WT3  4355 TIP3 H1   HT     0.417000        1.0080           0
   56257 WT3  4355 TIP3 H2   HT     0.417000        1.0080           0
   56258 WT3  4356 TIP3 OH2  OT    -0.834000       15.9994           0
   56259 WT3  4356 TIP3 H1   HT     0.417000        1.0080           0
   56260 WT3  4356 TIP3 H2   HT     0.417000        1.0080           0
   56261 WT3  4357 TIP3 OH2  OT    -0.834000       15.9994           0
   56262 WT3  4357 TIP3 H1   HT     0.417000        1.0080           0
   56263 WT3  4357 TIP3 H2   HT     0.417000        1.0080           0
   56264 WT3  4358 TIP3 OH2  OT    -0.834000       15.9994           0
   56265 WT3  4358 TIP3 H1   HT     0.417000        1.0080           0
   56266 WT3  4358 TIP3 H2   HT     0.417000        1.0080           0
   56267 WT3  4359 TIP3 OH2  OT    -0.834000       15.9994           0
   56268 WT3  4359 TIP3 H1   HT     0.417000        1.0080           0
   56269 WT3  4359 TIP3 H2   HT     0.417000        1.0080           0
   56270 WT3  4360 TIP3 OH2  OT    -0.834000       15.9994           0
   56271 WT3  4360 TIP3 H1   HT     0.417000        1.0080           0
   56272 WT3  4360 TIP3 H2   HT     0.417000        1.0080           0
   56273 WT3  4361 TIP3 OH2  OT    -0.834000       15.9994           0
   56274 WT3  4361 TIP3 H1   HT     0.417000        1.0080           0
   56275 WT3  4361 TIP3 H2   HT     0.417000        1.0080           0
   56276 WT3  4362 TIP3 OH2  OT    -0.834000       15.9994           0
   56277 WT3  4362 TIP3 H1   HT     0.417000        1.0080           0
   56278 WT3  4362 TIP3 H2   HT     0.417000        1.0080           0
   56279 WT3  4363 TIP3 OH2  OT    -0.834000       15.9994           0
   56280 WT3  4363 TIP3 H1   HT     0.417000        1.0080           0
   56281 WT3  4363 TIP3 H2   HT     0.417000        1.0080           0
   56282 WT3  4370 TIP3 OH2  OT    -0.834000       15.9994           0
   56283 WT3  4370 TIP3 H1   HT     0.417000        1.0080           0
   56284 WT3  4370 TIP3 H2   HT     0.417000        1.0080           0
   56285 WT3  4371 TIP3 OH2  OT    -0.834000       15.9994           0
   56286 WT3  4371 TIP3 H1   HT     0.417000        1.0080           0
   56287 WT3  4371 TIP3 H2   HT     0.417000        1.0080           0
   56288 WT3  4372 TIP3 OH2  OT    -0.834000       15.9994           0
   56289 WT3  4372 TIP3 H1   HT     0.417000        1.0080           0
   56290 WT3  4372 TIP3 H2   HT     0.417000        1.0080           0
   56291 WT3  4374 TIP3 OH2  OT    -0.834000       15.9994           0
   56292 WT3  4374 TIP3 H1   HT     0.417000        1.0080           0
   56293 WT3  4374 TIP3 H2   HT     0.417000        1.0080           0
   56294 WT3  4375 TIP3 OH2  OT    -0.834000       15.9994           0
   56295 WT3  4375 TIP3 H1   HT     0.417000        1.0080           0
   56296 WT3  4375 TIP3 H2   HT     0.417000        1.0080           0
   56297 WT3  4376 TIP3 OH2  OT    -0.834000       15.9994           0
   56298 WT3  4376 TIP3 H1   HT     0.417000        1.0080           0
   56299 WT3  4376 TIP3 H2   HT     0.417000        1.0080           0
   56300 WT3  4377 TIP3 OH2  OT    -0.834000       15.9994           0
   56301 WT3  4377 TIP3 H1   HT     0.417000        1.0080           0
   56302 WT3  4377 TIP3 H2   HT     0.417000        1.0080           0
   56303 WT3  4378 TIP3 OH2  OT    -0.834000       15.9994           0
   56304 WT3  4378 TIP3 H1   HT     0.417000        1.0080           0
   56305 WT3  4378 TIP3 H2   HT     0.417000        1.0080           0
   56306 WT3  4379 TIP3 OH2  OT    -0.834000       15.9994           0
   56307 WT3  4379 TIP3 H1   HT     0.417000        1.0080           0
   56308 WT3  4379 TIP3 H2   HT     0.417000        1.0080           0
   56309 WT3  4380 TIP3 OH2  OT    -0.834000       15.9994           0
   56310 WT3  4380 TIP3 H1   HT     0.417000        1.0080           0
   56311 WT3  4380 TIP3 H2   HT     0.417000        1.0080           0
   56312 WT3  4382 TIP3 OH2  OT    -0.834000       15.9994           0
   56313 WT3  4382 TIP3 H1   HT     0.417000        1.0080           0
   56314 WT3  4382 TIP3 H2   HT     0.417000        1.0080           0
   56315 WT3  4383 TIP3 OH2  OT    -0.834000       15.9994           0
   56316 WT3  4383 TIP3 H1   HT     0.417000        1.0080           0
   56317 WT3  4383 TIP3 H2   HT     0.417000        1.0080           0
   56318 WT3  4387 TIP3 OH2  OT    -0.834000       15.9994           0
   56319 WT3  4387 TIP3 H1   HT     0.417000        1.0080           0
   56320 WT3  4387 TIP3 H2   HT     0.417000        1.0080           0
   56321 WT3  4391 TIP3 OH2  OT    -0.834000       15.9994           0
   56322 WT3  4391 TIP3 H1   HT     0.417000        1.0080           0
   56323 WT3  4391 TIP3 H2   HT     0.417000        1.0080           0
   56324 WT3  4392 TIP3 OH2  OT    -0.834000       15.9994           0
   56325 WT3  4392 TIP3 H1   HT     0.417000        1.0080           0
   56326 WT3  4392 TIP3 H2   HT     0.417000        1.0080           0
   56327 WT3  4393 TIP3 OH2  OT    -0.834000       15.9994           0
   56328 WT3  4393 TIP3 H1   HT     0.417000        1.0080           0
   56329 WT3  4393 TIP3 H2   HT     0.417000        1.0080           0
   56330 WT3  4394 TIP3 OH2  OT    -0.834000       15.9994           0
   56331 WT3  4394 TIP3 H1   HT     0.417000        1.0080           0
   56332 WT3  4394 TIP3 H2   HT     0.417000        1.0080           0
   56333 WT3  4395 TIP3 OH2  OT    -0.834000       15.9994           0
   56334 WT3  4395 TIP3 H1   HT     0.417000        1.0080           0
   56335 WT3  4395 TIP3 H2   HT     0.417000        1.0080           0
   56336 WT3  4396 TIP3 OH2  OT    -0.834000       15.9994           0
   56337 WT3  4396 TIP3 H1   HT     0.417000        1.0080           0
   56338 WT3  4396 TIP3 H2   HT     0.417000        1.0080           0
   56339 WT3  4398 TIP3 OH2  OT    -0.834000       15.9994           0
   56340 WT3  4398 TIP3 H1   HT     0.417000        1.0080           0
   56341 WT3  4398 TIP3 H2   HT     0.417000        1.0080           0
   56342 WT3  4399 TIP3 OH2  OT    -0.834000       15.9994           0
   56343 WT3  4399 TIP3 H1   HT     0.417000        1.0080           0
   56344 WT3  4399 TIP3 H2   HT     0.417000        1.0080           0
   56345 WT3  4400 TIP3 OH2  OT    -0.834000       15.9994           0
   56346 WT3  4400 TIP3 H1   HT     0.417000        1.0080           0
   56347 WT3  4400 TIP3 H2   HT     0.417000        1.0080           0
   56348 WT3  4401 TIP3 OH2  OT    -0.834000       15.9994           0
   56349 WT3  4401 TIP3 H1   HT     0.417000        1.0080           0
   56350 WT3  4401 TIP3 H2   HT     0.417000        1.0080           0
   56351 WT3  4404 TIP3 OH2  OT    -0.834000       15.9994           0
   56352 WT3  4404 TIP3 H1   HT     0.417000        1.0080           0
   56353 WT3  4404 TIP3 H2   HT     0.417000        1.0080           0
   56354 WT3  4406 TIP3 OH2  OT    -0.834000       15.9994           0
   56355 WT3  4406 TIP3 H1   HT     0.417000        1.0080           0
   56356 WT3  4406 TIP3 H2   HT     0.417000        1.0080           0
   56357 WT3  4407 TIP3 OH2  OT    -0.834000       15.9994           0
   56358 WT3  4407 TIP3 H1   HT     0.417000        1.0080           0
   56359 WT3  4407 TIP3 H2   HT     0.417000        1.0080           0
   56360 WT3  4408 TIP3 OH2  OT    -0.834000       15.9994           0
   56361 WT3  4408 TIP3 H1   HT     0.417000        1.0080           0
   56362 WT3  4408 TIP3 H2   HT     0.417000        1.0080           0
   56363 WT3  4411 TIP3 OH2  OT    -0.834000       15.9994           0
   56364 WT3  4411 TIP3 H1   HT     0.417000        1.0080           0
   56365 WT3  4411 TIP3 H2   HT     0.417000        1.0080           0
   56366 WT3  4413 TIP3 OH2  OT    -0.834000       15.9994           0
   56367 WT3  4413 TIP3 H1   HT     0.417000        1.0080           0
   56368 WT3  4413 TIP3 H2   HT     0.417000        1.0080           0
   56369 WT3  4414 TIP3 OH2  OT    -0.834000       15.9994           0
   56370 WT3  4414 TIP3 H1   HT     0.417000        1.0080           0
   56371 WT3  4414 TIP3 H2   HT     0.417000        1.0080           0
   56372 WT3  4415 TIP3 OH2  OT    -0.834000       15.9994           0
   56373 WT3  4415 TIP3 H1   HT     0.417000        1.0080           0
   56374 WT3  4415 TIP3 H2   HT     0.417000        1.0080           0
   56375 WT3  4416 TIP3 OH2  OT    -0.834000       15.9994           0
   56376 WT3  4416 TIP3 H1   HT     0.417000        1.0080           0
   56377 WT3  4416 TIP3 H2   HT     0.417000        1.0080           0
   56378 WT3  4418 TIP3 OH2  OT    -0.834000       15.9994           0
   56379 WT3  4418 TIP3 H1   HT     0.417000        1.0080           0
   56380 WT3  4418 TIP3 H2   HT     0.417000        1.0080           0
   56381 WT3  4419 TIP3 OH2  OT    -0.834000       15.9994           0
   56382 WT3  4419 TIP3 H1   HT     0.417000        1.0080           0
   56383 WT3  4419 TIP3 H2   HT     0.417000        1.0080           0
   56384 WT3  4421 TIP3 OH2  OT    -0.834000       15.9994           0
   56385 WT3  4421 TIP3 H1   HT     0.417000        1.0080           0
   56386 WT3  4421 TIP3 H2   HT     0.417000        1.0080           0
   56387 WT3  4422 TIP3 OH2  OT    -0.834000       15.9994           0
   56388 WT3  4422 TIP3 H1   HT     0.417000        1.0080           0
   56389 WT3  4422 TIP3 H2   HT     0.417000        1.0080           0
   56390 WT3  4423 TIP3 OH2  OT    -0.834000       15.9994           0
   56391 WT3  4423 TIP3 H1   HT     0.417000        1.0080           0
   56392 WT3  4423 TIP3 H2   HT     0.417000        1.0080           0
   56393 WT3  4424 TIP3 OH2  OT    -0.834000       15.9994           0
   56394 WT3  4424 TIP3 H1   HT     0.417000        1.0080           0
   56395 WT3  4424 TIP3 H2   HT     0.417000        1.0080           0
   56396 WT3  4432 TIP3 OH2  OT    -0.834000       15.9994           0
   56397 WT3  4432 TIP3 H1   HT     0.417000        1.0080           0
   56398 WT3  4432 TIP3 H2   HT     0.417000        1.0080           0
   56399 WT3  4434 TIP3 OH2  OT    -0.834000       15.9994           0
   56400 WT3  4434 TIP3 H1   HT     0.417000        1.0080           0
   56401 WT3  4434 TIP3 H2   HT     0.417000        1.0080           0
   56402 WT3  4435 TIP3 OH2  OT    -0.834000       15.9994           0
   56403 WT3  4435 TIP3 H1   HT     0.417000        1.0080           0
   56404 WT3  4435 TIP3 H2   HT     0.417000        1.0080           0
   56405 WT3  4437 TIP3 OH2  OT    -0.834000       15.9994           0
   56406 WT3  4437 TIP3 H1   HT     0.417000        1.0080           0
   56407 WT3  4437 TIP3 H2   HT     0.417000        1.0080           0
   56408 WT3  4438 TIP3 OH2  OT    -0.834000       15.9994           0
   56409 WT3  4438 TIP3 H1   HT     0.417000        1.0080           0
   56410 WT3  4438 TIP3 H2   HT     0.417000        1.0080           0
   56411 WT3  4439 TIP3 OH2  OT    -0.834000       15.9994           0
   56412 WT3  4439 TIP3 H1   HT     0.417000        1.0080           0
   56413 WT3  4439 TIP3 H2   HT     0.417000        1.0080           0
   56414 WT3  4440 TIP3 OH2  OT    -0.834000       15.9994           0
   56415 WT3  4440 TIP3 H1   HT     0.417000        1.0080           0
   56416 WT3  4440 TIP3 H2   HT     0.417000        1.0080           0
   56417 WT3  4441 TIP3 OH2  OT    -0.834000       15.9994           0
   56418 WT3  4441 TIP3 H1   HT     0.417000        1.0080           0
   56419 WT3  4441 TIP3 H2   HT     0.417000        1.0080           0
   56420 WT3  4444 TIP3 OH2  OT    -0.834000       15.9994           0
   56421 WT3  4444 TIP3 H1   HT     0.417000        1.0080           0
   56422 WT3  4444 TIP3 H2   HT     0.417000        1.0080           0
   56423 WT3  4446 TIP3 OH2  OT    -0.834000       15.9994           0
   56424 WT3  4446 TIP3 H1   HT     0.417000        1.0080           0
   56425 WT3  4446 TIP3 H2   HT     0.417000        1.0080           0
   56426 WT3  4450 TIP3 OH2  OT    -0.834000       15.9994           0
   56427 WT3  4450 TIP3 H1   HT     0.417000        1.0080           0
   56428 WT3  4450 TIP3 H2   HT     0.417000        1.0080           0
   56429 WT3  4452 TIP3 OH2  OT    -0.834000       15.9994           0
   56430 WT3  4452 TIP3 H1   HT     0.417000        1.0080           0
   56431 WT3  4452 TIP3 H2   HT     0.417000        1.0080           0
   56432 WT3  4454 TIP3 OH2  OT    -0.834000       15.9994           0
   56433 WT3  4454 TIP3 H1   HT     0.417000        1.0080           0
   56434 WT3  4454 TIP3 H2   HT     0.417000        1.0080           0
   56435 WT3  4455 TIP3 OH2  OT    -0.834000       15.9994           0
   56436 WT3  4455 TIP3 H1   HT     0.417000        1.0080           0
   56437 WT3  4455 TIP3 H2   HT     0.417000        1.0080           0
   56438 WT3  4456 TIP3 OH2  OT    -0.834000       15.9994           0
   56439 WT3  4456 TIP3 H1   HT     0.417000        1.0080           0
   56440 WT3  4456 TIP3 H2   HT     0.417000        1.0080           0
   56441 WT3  4457 TIP3 OH2  OT    -0.834000       15.9994           0
   56442 WT3  4457 TIP3 H1   HT     0.417000        1.0080           0
   56443 WT3  4457 TIP3 H2   HT     0.417000        1.0080           0
   56444 WT3  4459 TIP3 OH2  OT    -0.834000       15.9994           0
   56445 WT3  4459 TIP3 H1   HT     0.417000        1.0080           0
   56446 WT3  4459 TIP3 H2   HT     0.417000        1.0080           0
   56447 WT3  4460 TIP3 OH2  OT    -0.834000       15.9994           0
   56448 WT3  4460 TIP3 H1   HT     0.417000        1.0080           0
   56449 WT3  4460 TIP3 H2   HT     0.417000        1.0080           0
   56450 WT3  4461 TIP3 OH2  OT    -0.834000       15.9994           0
   56451 WT3  4461 TIP3 H1   HT     0.417000        1.0080           0
   56452 WT3  4461 TIP3 H2   HT     0.417000        1.0080           0
   56453 WT3  4462 TIP3 OH2  OT    -0.834000       15.9994           0
   56454 WT3  4462 TIP3 H1   HT     0.417000        1.0080           0
   56455 WT3  4462 TIP3 H2   HT     0.417000        1.0080           0
   56456 WT3  4463 TIP3 OH2  OT    -0.834000       15.9994           0
   56457 WT3  4463 TIP3 H1   HT     0.417000        1.0080           0
   56458 WT3  4463 TIP3 H2   HT     0.417000        1.0080           0
   56459 WT3  4465 TIP3 OH2  OT    -0.834000       15.9994           0
   56460 WT3  4465 TIP3 H1   HT     0.417000        1.0080           0
   56461 WT3  4465 TIP3 H2   HT     0.417000        1.0080           0
   56462 WT3  4466 TIP3 OH2  OT    -0.834000       15.9994           0
   56463 WT3  4466 TIP3 H1   HT     0.417000        1.0080           0
   56464 WT3  4466 TIP3 H2   HT     0.417000        1.0080           0
   56465 WT3  4469 TIP3 OH2  OT    -0.834000       15.9994           0
   56466 WT3  4469 TIP3 H1   HT     0.417000        1.0080           0
   56467 WT3  4469 TIP3 H2   HT     0.417000        1.0080           0
   56468 WT3  4470 TIP3 OH2  OT    -0.834000       15.9994           0
   56469 WT3  4470 TIP3 H1   HT     0.417000        1.0080           0
   56470 WT3  4470 TIP3 H2   HT     0.417000        1.0080           0
   56471 WT3  4473 TIP3 OH2  OT    -0.834000       15.9994           0
   56472 WT3  4473 TIP3 H1   HT     0.417000        1.0080           0
   56473 WT3  4473 TIP3 H2   HT     0.417000        1.0080           0
   56474 WT3  4477 TIP3 OH2  OT    -0.834000       15.9994           0
   56475 WT3  4477 TIP3 H1   HT     0.417000        1.0080           0
   56476 WT3  4477 TIP3 H2   HT     0.417000        1.0080           0
   56477 WT3  4478 TIP3 OH2  OT    -0.834000       15.9994           0
   56478 WT3  4478 TIP3 H1   HT     0.417000        1.0080           0
   56479 WT3  4478 TIP3 H2   HT     0.417000        1.0080           0
   56480 WT3  4479 TIP3 OH2  OT    -0.834000       15.9994           0
   56481 WT3  4479 TIP3 H1   HT     0.417000        1.0080           0
   56482 WT3  4479 TIP3 H2   HT     0.417000        1.0080           0
   56483 WT3  4480 TIP3 OH2  OT    -0.834000       15.9994           0
   56484 WT3  4480 TIP3 H1   HT     0.417000        1.0080           0
   56485 WT3  4480 TIP3 H2   HT     0.417000        1.0080           0
   56486 WT3  4481 TIP3 OH2  OT    -0.834000       15.9994           0
   56487 WT3  4481 TIP3 H1   HT     0.417000        1.0080           0
   56488 WT3  4481 TIP3 H2   HT     0.417000        1.0080           0
   56489 WT3  4482 TIP3 OH2  OT    -0.834000       15.9994           0
   56490 WT3  4482 TIP3 H1   HT     0.417000        1.0080           0
   56491 WT3  4482 TIP3 H2   HT     0.417000        1.0080           0
   56492 WT3  4483 TIP3 OH2  OT    -0.834000       15.9994           0
   56493 WT3  4483 TIP3 H1   HT     0.417000        1.0080           0
   56494 WT3  4483 TIP3 H2   HT     0.417000        1.0080           0
   56495 WT3  4484 TIP3 OH2  OT    -0.834000       15.9994           0
   56496 WT3  4484 TIP3 H1   HT     0.417000        1.0080           0
   56497 WT3  4484 TIP3 H2   HT     0.417000        1.0080           0
   56498 WT3  4485 TIP3 OH2  OT    -0.834000       15.9994           0
   56499 WT3  4485 TIP3 H1   HT     0.417000        1.0080           0
   56500 WT3  4485 TIP3 H2   HT     0.417000        1.0080           0
   56501 WT3  4488 TIP3 OH2  OT    -0.834000       15.9994           0
   56502 WT3  4488 TIP3 H1   HT     0.417000        1.0080           0
   56503 WT3  4488 TIP3 H2   HT     0.417000        1.0080           0
   56504 WT3  4490 TIP3 OH2  OT    -0.834000       15.9994           0
   56505 WT3  4490 TIP3 H1   HT     0.417000        1.0080           0
   56506 WT3  4490 TIP3 H2   HT     0.417000        1.0080           0
   56507 WT3  4491 TIP3 OH2  OT    -0.834000       15.9994           0
   56508 WT3  4491 TIP3 H1   HT     0.417000        1.0080           0
   56509 WT3  4491 TIP3 H2   HT     0.417000        1.0080           0
   56510 WT3  4492 TIP3 OH2  OT    -0.834000       15.9994           0
   56511 WT3  4492 TIP3 H1   HT     0.417000        1.0080           0
   56512 WT3  4492 TIP3 H2   HT     0.417000        1.0080           0
   56513 WT3  4494 TIP3 OH2  OT    -0.834000       15.9994           0
   56514 WT3  4494 TIP3 H1   HT     0.417000        1.0080           0
   56515 WT3  4494 TIP3 H2   HT     0.417000        1.0080           0
   56516 WT3  4496 TIP3 OH2  OT    -0.834000       15.9994           0
   56517 WT3  4496 TIP3 H1   HT     0.417000        1.0080           0
   56518 WT3  4496 TIP3 H2   HT     0.417000        1.0080           0
   56519 WT3  4497 TIP3 OH2  OT    -0.834000       15.9994           0
   56520 WT3  4497 TIP3 H1   HT     0.417000        1.0080           0
   56521 WT3  4497 TIP3 H2   HT     0.417000        1.0080           0
   56522 WT3  4498 TIP3 OH2  OT    -0.834000       15.9994           0
   56523 WT3  4498 TIP3 H1   HT     0.417000        1.0080           0
   56524 WT3  4498 TIP3 H2   HT     0.417000        1.0080           0
   56525 WT3  4499 TIP3 OH2  OT    -0.834000       15.9994           0
   56526 WT3  4499 TIP3 H1   HT     0.417000        1.0080           0
   56527 WT3  4499 TIP3 H2   HT     0.417000        1.0080           0
   56528 WT3  4500 TIP3 OH2  OT    -0.834000       15.9994           0
   56529 WT3  4500 TIP3 H1   HT     0.417000        1.0080           0
   56530 WT3  4500 TIP3 H2   HT     0.417000        1.0080           0
   56531 WT3  4501 TIP3 OH2  OT    -0.834000       15.9994           0
   56532 WT3  4501 TIP3 H1   HT     0.417000        1.0080           0
   56533 WT3  4501 TIP3 H2   HT     0.417000        1.0080           0
   56534 WT3  4502 TIP3 OH2  OT    -0.834000       15.9994           0
   56535 WT3  4502 TIP3 H1   HT     0.417000        1.0080           0
   56536 WT3  4502 TIP3 H2   HT     0.417000        1.0080           0
   56537 WT3  4503 TIP3 OH2  OT    -0.834000       15.9994           0
   56538 WT3  4503 TIP3 H1   HT     0.417000        1.0080           0
   56539 WT3  4503 TIP3 H2   HT     0.417000        1.0080           0
   56540 WT3  4504 TIP3 OH2  OT    -0.834000       15.9994           0
   56541 WT3  4504 TIP3 H1   HT     0.417000        1.0080           0
   56542 WT3  4504 TIP3 H2   HT     0.417000        1.0080           0
   56543 WT3  4506 TIP3 OH2  OT    -0.834000       15.9994           0
   56544 WT3  4506 TIP3 H1   HT     0.417000        1.0080           0
   56545 WT3  4506 TIP3 H2   HT     0.417000        1.0080           0
   56546 WT3  4507 TIP3 OH2  OT    -0.834000       15.9994           0
   56547 WT3  4507 TIP3 H1   HT     0.417000        1.0080           0
   56548 WT3  4507 TIP3 H2   HT     0.417000        1.0080           0
   56549 WT3  4509 TIP3 OH2  OT    -0.834000       15.9994           0
   56550 WT3  4509 TIP3 H1   HT     0.417000        1.0080           0
   56551 WT3  4509 TIP3 H2   HT     0.417000        1.0080           0
   56552 WT3  4513 TIP3 OH2  OT    -0.834000       15.9994           0
   56553 WT3  4513 TIP3 H1   HT     0.417000        1.0080           0
   56554 WT3  4513 TIP3 H2   HT     0.417000        1.0080           0
   56555 WT3  4516 TIP3 OH2  OT    -0.834000       15.9994           0
   56556 WT3  4516 TIP3 H1   HT     0.417000        1.0080           0
   56557 WT3  4516 TIP3 H2   HT     0.417000        1.0080           0
   56558 WT3  4517 TIP3 OH2  OT    -0.834000       15.9994           0
   56559 WT3  4517 TIP3 H1   HT     0.417000        1.0080           0
   56560 WT3  4517 TIP3 H2   HT     0.417000        1.0080           0
   56561 WT3  4519 TIP3 OH2  OT    -0.834000       15.9994           0
   56562 WT3  4519 TIP3 H1   HT     0.417000        1.0080           0
   56563 WT3  4519 TIP3 H2   HT     0.417000        1.0080           0
   56564 WT3  4520 TIP3 OH2  OT    -0.834000       15.9994           0
   56565 WT3  4520 TIP3 H1   HT     0.417000        1.0080           0
   56566 WT3  4520 TIP3 H2   HT     0.417000        1.0080           0
   56567 WT3  4521 TIP3 OH2  OT    -0.834000       15.9994           0
   56568 WT3  4521 TIP3 H1   HT     0.417000        1.0080           0
   56569 WT3  4521 TIP3 H2   HT     0.417000        1.0080           0
   56570 WT3  4522 TIP3 OH2  OT    -0.834000       15.9994           0
   56571 WT3  4522 TIP3 H1   HT     0.417000        1.0080           0
   56572 WT3  4522 TIP3 H2   HT     0.417000        1.0080           0
   56573 WT3  4523 TIP3 OH2  OT    -0.834000       15.9994           0
   56574 WT3  4523 TIP3 H1   HT     0.417000        1.0080           0
   56575 WT3  4523 TIP3 H2   HT     0.417000        1.0080           0
   56576 WT3  4524 TIP3 OH2  OT    -0.834000       15.9994           0
   56577 WT3  4524 TIP3 H1   HT     0.417000        1.0080           0
   56578 WT3  4524 TIP3 H2   HT     0.417000        1.0080           0
   56579 WT3  4525 TIP3 OH2  OT    -0.834000       15.9994           0
   56580 WT3  4525 TIP3 H1   HT     0.417000        1.0080           0
   56581 WT3  4525 TIP3 H2   HT     0.417000        1.0080           0
   56582 WT3  4526 TIP3 OH2  OT    -0.834000       15.9994           0
   56583 WT3  4526 TIP3 H1   HT     0.417000        1.0080           0
   56584 WT3  4526 TIP3 H2   HT     0.417000        1.0080           0
   56585 WT3  4527 TIP3 OH2  OT    -0.834000       15.9994           0
   56586 WT3  4527 TIP3 H1   HT     0.417000        1.0080           0
   56587 WT3  4527 TIP3 H2   HT     0.417000        1.0080           0
   56588 WT3  4536 TIP3 OH2  OT    -0.834000       15.9994           0
   56589 WT3  4536 TIP3 H1   HT     0.417000        1.0080           0
   56590 WT3  4536 TIP3 H2   HT     0.417000        1.0080           0
   56591 WT3  4537 TIP3 OH2  OT    -0.834000       15.9994           0
   56592 WT3  4537 TIP3 H1   HT     0.417000        1.0080           0
   56593 WT3  4537 TIP3 H2   HT     0.417000        1.0080           0
   56594 WT3  4538 TIP3 OH2  OT    -0.834000       15.9994           0
   56595 WT3  4538 TIP3 H1   HT     0.417000        1.0080           0
   56596 WT3  4538 TIP3 H2   HT     0.417000        1.0080           0
   56597 WT3  4539 TIP3 OH2  OT    -0.834000       15.9994           0
   56598 WT3  4539 TIP3 H1   HT     0.417000        1.0080           0
   56599 WT3  4539 TIP3 H2   HT     0.417000        1.0080           0
   56600 WT3  4540 TIP3 OH2  OT    -0.834000       15.9994           0
   56601 WT3  4540 TIP3 H1   HT     0.417000        1.0080           0
   56602 WT3  4540 TIP3 H2   HT     0.417000        1.0080           0
   56603 WT3  4541 TIP3 OH2  OT    -0.834000       15.9994           0
   56604 WT3  4541 TIP3 H1   HT     0.417000        1.0080           0
   56605 WT3  4541 TIP3 H2   HT     0.417000        1.0080           0
   56606 WT3  4542 TIP3 OH2  OT    -0.834000       15.9994           0
   56607 WT3  4542 TIP3 H1   HT     0.417000        1.0080           0
   56608 WT3  4542 TIP3 H2   HT     0.417000        1.0080           0
   56609 WT3  4543 TIP3 OH2  OT    -0.834000       15.9994           0
   56610 WT3  4543 TIP3 H1   HT     0.417000        1.0080           0
   56611 WT3  4543 TIP3 H2   HT     0.417000        1.0080           0
   56612 WT3  4544 TIP3 OH2  OT    -0.834000       15.9994           0
   56613 WT3  4544 TIP3 H1   HT     0.417000        1.0080           0
   56614 WT3  4544 TIP3 H2   HT     0.417000        1.0080           0
   56615 WT3  4545 TIP3 OH2  OT    -0.834000       15.9994           0
   56616 WT3  4545 TIP3 H1   HT     0.417000        1.0080           0
   56617 WT3  4545 TIP3 H2   HT     0.417000        1.0080           0
   56618 WT3  4546 TIP3 OH2  OT    -0.834000       15.9994           0
   56619 WT3  4546 TIP3 H1   HT     0.417000        1.0080           0
   56620 WT3  4546 TIP3 H2   HT     0.417000        1.0080           0
   56621 WT3  4547 TIP3 OH2  OT    -0.834000       15.9994           0
   56622 WT3  4547 TIP3 H1   HT     0.417000        1.0080           0
   56623 WT3  4547 TIP3 H2   HT     0.417000        1.0080           0
   56624 WT3  4548 TIP3 OH2  OT    -0.834000       15.9994           0
   56625 WT3  4548 TIP3 H1   HT     0.417000        1.0080           0
   56626 WT3  4548 TIP3 H2   HT     0.417000        1.0080           0
   56627 WT3  4549 TIP3 OH2  OT    -0.834000       15.9994           0
   56628 WT3  4549 TIP3 H1   HT     0.417000        1.0080           0
   56629 WT3  4549 TIP3 H2   HT     0.417000        1.0080           0
   56630 WT3  4550 TIP3 OH2  OT    -0.834000       15.9994           0
   56631 WT3  4550 TIP3 H1   HT     0.417000        1.0080           0
   56632 WT3  4550 TIP3 H2   HT     0.417000        1.0080           0
   56633 WT3  4551 TIP3 OH2  OT    -0.834000       15.9994           0
   56634 WT3  4551 TIP3 H1   HT     0.417000        1.0080           0
   56635 WT3  4551 TIP3 H2   HT     0.417000        1.0080           0
   56636 WT3  4558 TIP3 OH2  OT    -0.834000       15.9994           0
   56637 WT3  4558 TIP3 H1   HT     0.417000        1.0080           0
   56638 WT3  4558 TIP3 H2   HT     0.417000        1.0080           0
   56639 WT3  4559 TIP3 OH2  OT    -0.834000       15.9994           0
   56640 WT3  4559 TIP3 H1   HT     0.417000        1.0080           0
   56641 WT3  4559 TIP3 H2   HT     0.417000        1.0080           0
   56642 WT3  4560 TIP3 OH2  OT    -0.834000       15.9994           0
   56643 WT3  4560 TIP3 H1   HT     0.417000        1.0080           0
   56644 WT3  4560 TIP3 H2   HT     0.417000        1.0080           0
   56645 WT3  4561 TIP3 OH2  OT    -0.834000       15.9994           0
   56646 WT3  4561 TIP3 H1   HT     0.417000        1.0080           0
   56647 WT3  4561 TIP3 H2   HT     0.417000        1.0080           0
   56648 WT3  4562 TIP3 OH2  OT    -0.834000       15.9994           0
   56649 WT3  4562 TIP3 H1   HT     0.417000        1.0080           0
   56650 WT3  4562 TIP3 H2   HT     0.417000        1.0080           0
   56651 WT3  4563 TIP3 OH2  OT    -0.834000       15.9994           0
   56652 WT3  4563 TIP3 H1   HT     0.417000        1.0080           0
   56653 WT3  4563 TIP3 H2   HT     0.417000        1.0080           0
   56654 WT3  4564 TIP3 OH2  OT    -0.834000       15.9994           0
   56655 WT3  4564 TIP3 H1   HT     0.417000        1.0080           0
   56656 WT3  4564 TIP3 H2   HT     0.417000        1.0080           0
   56657 WT3  4565 TIP3 OH2  OT    -0.834000       15.9994           0
   56658 WT3  4565 TIP3 H1   HT     0.417000        1.0080           0
   56659 WT3  4565 TIP3 H2   HT     0.417000        1.0080           0
   56660 WT3  4566 TIP3 OH2  OT    -0.834000       15.9994           0
   56661 WT3  4566 TIP3 H1   HT     0.417000        1.0080           0
   56662 WT3  4566 TIP3 H2   HT     0.417000        1.0080           0
   56663 WT3  4568 TIP3 OH2  OT    -0.834000       15.9994           0
   56664 WT3  4568 TIP3 H1   HT     0.417000        1.0080           0
   56665 WT3  4568 TIP3 H2   HT     0.417000        1.0080           0
   56666 WT3  4569 TIP3 OH2  OT    -0.834000       15.9994           0
   56667 WT3  4569 TIP3 H1   HT     0.417000        1.0080           0
   56668 WT3  4569 TIP3 H2   HT     0.417000        1.0080           0
   56669 WT3  4570 TIP3 OH2  OT    -0.834000       15.9994           0
   56670 WT3  4570 TIP3 H1   HT     0.417000        1.0080           0
   56671 WT3  4570 TIP3 H2   HT     0.417000        1.0080           0
   56672 WT3  4572 TIP3 OH2  OT    -0.834000       15.9994           0
   56673 WT3  4572 TIP3 H1   HT     0.417000        1.0080           0
   56674 WT3  4572 TIP3 H2   HT     0.417000        1.0080           0
   56675 WT3  4574 TIP3 OH2  OT    -0.834000       15.9994           0
   56676 WT3  4574 TIP3 H1   HT     0.417000        1.0080           0
   56677 WT3  4574 TIP3 H2   HT     0.417000        1.0080           0
   56678 WT3  4578 TIP3 OH2  OT    -0.834000       15.9994           0
   56679 WT3  4578 TIP3 H1   HT     0.417000        1.0080           0
   56680 WT3  4578 TIP3 H2   HT     0.417000        1.0080           0
   56681 WT3  4581 TIP3 OH2  OT    -0.834000       15.9994           0
   56682 WT3  4581 TIP3 H1   HT     0.417000        1.0080           0
   56683 WT3  4581 TIP3 H2   HT     0.417000        1.0080           0
   56684 WT3  4582 TIP3 OH2  OT    -0.834000       15.9994           0
   56685 WT3  4582 TIP3 H1   HT     0.417000        1.0080           0
   56686 WT3  4582 TIP3 H2   HT     0.417000        1.0080           0
   56687 WT3  4583 TIP3 OH2  OT    -0.834000       15.9994           0
   56688 WT3  4583 TIP3 H1   HT     0.417000        1.0080           0
   56689 WT3  4583 TIP3 H2   HT     0.417000        1.0080           0
   56690 WT3  4584 TIP3 OH2  OT    -0.834000       15.9994           0
   56691 WT3  4584 TIP3 H1   HT     0.417000        1.0080           0
   56692 WT3  4584 TIP3 H2   HT     0.417000        1.0080           0
   56693 WT3  4586 TIP3 OH2  OT    -0.834000       15.9994           0
   56694 WT3  4586 TIP3 H1   HT     0.417000        1.0080           0
   56695 WT3  4586 TIP3 H2   HT     0.417000        1.0080           0
   56696 WT3  4587 TIP3 OH2  OT    -0.834000       15.9994           0
   56697 WT3  4587 TIP3 H1   HT     0.417000        1.0080           0
   56698 WT3  4587 TIP3 H2   HT     0.417000        1.0080           0
   56699 WT3  4588 TIP3 OH2  OT    -0.834000       15.9994           0
   56700 WT3  4588 TIP3 H1   HT     0.417000        1.0080           0
   56701 WT3  4588 TIP3 H2   HT     0.417000        1.0080           0
   56702 WT3  4589 TIP3 OH2  OT    -0.834000       15.9994           0
   56703 WT3  4589 TIP3 H1   HT     0.417000        1.0080           0
   56704 WT3  4589 TIP3 H2   HT     0.417000        1.0080           0
   56705 WT3  4592 TIP3 OH2  OT    -0.834000       15.9994           0
   56706 WT3  4592 TIP3 H1   HT     0.417000        1.0080           0
   56707 WT3  4592 TIP3 H2   HT     0.417000        1.0080           0
   56708 WT3  4593 TIP3 OH2  OT    -0.834000       15.9994           0
   56709 WT3  4593 TIP3 H1   HT     0.417000        1.0080           0
   56710 WT3  4593 TIP3 H2   HT     0.417000        1.0080           0
   56711 WT3  4595 TIP3 OH2  OT    -0.834000       15.9994           0
   56712 WT3  4595 TIP3 H1   HT     0.417000        1.0080           0
   56713 WT3  4595 TIP3 H2   HT     0.417000        1.0080           0
   56714 WT3  4596 TIP3 OH2  OT    -0.834000       15.9994           0
   56715 WT3  4596 TIP3 H1   HT     0.417000        1.0080           0
   56716 WT3  4596 TIP3 H2   HT     0.417000        1.0080           0
   56717 WT3  4602 TIP3 OH2  OT    -0.834000       15.9994           0
   56718 WT3  4602 TIP3 H1   HT     0.417000        1.0080           0
   56719 WT3  4602 TIP3 H2   HT     0.417000        1.0080           0
   56720 WT3  4604 TIP3 OH2  OT    -0.834000       15.9994           0
   56721 WT3  4604 TIP3 H1   HT     0.417000        1.0080           0
   56722 WT3  4604 TIP3 H2   HT     0.417000        1.0080           0
   56723 WT3  4605 TIP3 OH2  OT    -0.834000       15.9994           0
   56724 WT3  4605 TIP3 H1   HT     0.417000        1.0080           0
   56725 WT3  4605 TIP3 H2   HT     0.417000        1.0080           0
   56726 WT3  4606 TIP3 OH2  OT    -0.834000       15.9994           0
   56727 WT3  4606 TIP3 H1   HT     0.417000        1.0080           0
   56728 WT3  4606 TIP3 H2   HT     0.417000        1.0080           0
   56729 WT3  4607 TIP3 OH2  OT    -0.834000       15.9994           0
   56730 WT3  4607 TIP3 H1   HT     0.417000        1.0080           0
   56731 WT3  4607 TIP3 H2   HT     0.417000        1.0080           0
   56732 WT3  4608 TIP3 OH2  OT    -0.834000       15.9994           0
   56733 WT3  4608 TIP3 H1   HT     0.417000        1.0080           0
   56734 WT3  4608 TIP3 H2   HT     0.417000        1.0080           0
   56735 WT3  4609 TIP3 OH2  OT    -0.834000       15.9994           0
   56736 WT3  4609 TIP3 H1   HT     0.417000        1.0080           0
   56737 WT3  4609 TIP3 H2   HT     0.417000        1.0080           0
   56738 WT3  4610 TIP3 OH2  OT    -0.834000       15.9994           0
   56739 WT3  4610 TIP3 H1   HT     0.417000        1.0080           0
   56740 WT3  4610 TIP3 H2   HT     0.417000        1.0080           0
   56741 WT3  4611 TIP3 OH2  OT    -0.834000       15.9994           0
   56742 WT3  4611 TIP3 H1   HT     0.417000        1.0080           0
   56743 WT3  4611 TIP3 H2   HT     0.417000        1.0080           0
   56744 WT3  4613 TIP3 OH2  OT    -0.834000       15.9994           0
   56745 WT3  4613 TIP3 H1   HT     0.417000        1.0080           0
   56746 WT3  4613 TIP3 H2   HT     0.417000        1.0080           0
   56747 WT3  4619 TIP3 OH2  OT    -0.834000       15.9994           0
   56748 WT3  4619 TIP3 H1   HT     0.417000        1.0080           0
   56749 WT3  4619 TIP3 H2   HT     0.417000        1.0080           0
   56750 WT3  4621 TIP3 OH2  OT    -0.834000       15.9994           0
   56751 WT3  4621 TIP3 H1   HT     0.417000        1.0080           0
   56752 WT3  4621 TIP3 H2   HT     0.417000        1.0080           0
   56753 WT3  4622 TIP3 OH2  OT    -0.834000       15.9994           0
   56754 WT3  4622 TIP3 H1   HT     0.417000        1.0080           0
   56755 WT3  4622 TIP3 H2   HT     0.417000        1.0080           0
   56756 WT3  4623 TIP3 OH2  OT    -0.834000       15.9994           0
   56757 WT3  4623 TIP3 H1   HT     0.417000        1.0080           0
   56758 WT3  4623 TIP3 H2   HT     0.417000        1.0080           0
   56759 WT3  4624 TIP3 OH2  OT    -0.834000       15.9994           0
   56760 WT3  4624 TIP3 H1   HT     0.417000        1.0080           0
   56761 WT3  4624 TIP3 H2   HT     0.417000        1.0080           0
   56762 WT3  4625 TIP3 OH2  OT    -0.834000       15.9994           0
   56763 WT3  4625 TIP3 H1   HT     0.417000        1.0080           0
   56764 WT3  4625 TIP3 H2   HT     0.417000        1.0080           0
   56765 WT3  4626 TIP3 OH2  OT    -0.834000       15.9994           0
   56766 WT3  4626 TIP3 H1   HT     0.417000        1.0080           0
   56767 WT3  4626 TIP3 H2   HT     0.417000        1.0080           0
   56768 WT3  4629 TIP3 OH2  OT    -0.834000       15.9994           0
   56769 WT3  4629 TIP3 H1   HT     0.417000        1.0080           0
   56770 WT3  4629 TIP3 H2   HT     0.417000        1.0080           0
   56771 WT3  4630 TIP3 OH2  OT    -0.834000       15.9994           0
   56772 WT3  4630 TIP3 H1   HT     0.417000        1.0080           0
   56773 WT3  4630 TIP3 H2   HT     0.417000        1.0080           0
   56774 WT3  4631 TIP3 OH2  OT    -0.834000       15.9994           0
   56775 WT3  4631 TIP3 H1   HT     0.417000        1.0080           0
   56776 WT3  4631 TIP3 H2   HT     0.417000        1.0080           0
   56777 WT3  4632 TIP3 OH2  OT    -0.834000       15.9994           0
   56778 WT3  4632 TIP3 H1   HT     0.417000        1.0080           0
   56779 WT3  4632 TIP3 H2   HT     0.417000        1.0080           0
   56780 WT3  4633 TIP3 OH2  OT    -0.834000       15.9994           0
   56781 WT3  4633 TIP3 H1   HT     0.417000        1.0080           0
   56782 WT3  4633 TIP3 H2   HT     0.417000        1.0080           0
   56783 WT3  4634 TIP3 OH2  OT    -0.834000       15.9994           0
   56784 WT3  4634 TIP3 H1   HT     0.417000        1.0080           0
   56785 WT3  4634 TIP3 H2   HT     0.417000        1.0080           0
   56786 WT3  4635 TIP3 OH2  OT    -0.834000       15.9994           0
   56787 WT3  4635 TIP3 H1   HT     0.417000        1.0080           0
   56788 WT3  4635 TIP3 H2   HT     0.417000        1.0080           0
   56789 WT3  4636 TIP3 OH2  OT    -0.834000       15.9994           0
   56790 WT3  4636 TIP3 H1   HT     0.417000        1.0080           0
   56791 WT3  4636 TIP3 H2   HT     0.417000        1.0080           0
   56792 WT3  4643 TIP3 OH2  OT    -0.834000       15.9994           0
   56793 WT3  4643 TIP3 H1   HT     0.417000        1.0080           0
   56794 WT3  4643 TIP3 H2   HT     0.417000        1.0080           0
   56795 WT3  4644 TIP3 OH2  OT    -0.834000       15.9994           0
   56796 WT3  4644 TIP3 H1   HT     0.417000        1.0080           0
   56797 WT3  4644 TIP3 H2   HT     0.417000        1.0080           0
   56798 WT3  4647 TIP3 OH2  OT    -0.834000       15.9994           0
   56799 WT3  4647 TIP3 H1   HT     0.417000        1.0080           0
   56800 WT3  4647 TIP3 H2   HT     0.417000        1.0080           0
   56801 WT3  4648 TIP3 OH2  OT    -0.834000       15.9994           0
   56802 WT3  4648 TIP3 H1   HT     0.417000        1.0080           0
   56803 WT3  4648 TIP3 H2   HT     0.417000        1.0080           0
   56804 WT3  4649 TIP3 OH2  OT    -0.834000       15.9994           0
   56805 WT3  4649 TIP3 H1   HT     0.417000        1.0080           0
   56806 WT3  4649 TIP3 H2   HT     0.417000        1.0080           0
   56807 WT3  4650 TIP3 OH2  OT    -0.834000       15.9994           0
   56808 WT3  4650 TIP3 H1   HT     0.417000        1.0080           0
   56809 WT3  4650 TIP3 H2   HT     0.417000        1.0080           0
   56810 WT3  4651 TIP3 OH2  OT    -0.834000       15.9994           0
   56811 WT3  4651 TIP3 H1   HT     0.417000        1.0080           0
   56812 WT3  4651 TIP3 H2   HT     0.417000        1.0080           0
   56813 WT3  4652 TIP3 OH2  OT    -0.834000       15.9994           0
   56814 WT3  4652 TIP3 H1   HT     0.417000        1.0080           0
   56815 WT3  4652 TIP3 H2   HT     0.417000        1.0080           0
   56816 WT3  4653 TIP3 OH2  OT    -0.834000       15.9994           0
   56817 WT3  4653 TIP3 H1   HT     0.417000        1.0080           0
   56818 WT3  4653 TIP3 H2   HT     0.417000        1.0080           0
   56819 WT3  4654 TIP3 OH2  OT    -0.834000       15.9994           0
   56820 WT3  4654 TIP3 H1   HT     0.417000        1.0080           0
   56821 WT3  4654 TIP3 H2   HT     0.417000        1.0080           0
   56822 WT3  4661 TIP3 OH2  OT    -0.834000       15.9994           0
   56823 WT3  4661 TIP3 H1   HT     0.417000        1.0080           0
   56824 WT3  4661 TIP3 H2   HT     0.417000        1.0080           0
   56825 WT3  4664 TIP3 OH2  OT    -0.834000       15.9994           0
   56826 WT3  4664 TIP3 H1   HT     0.417000        1.0080           0
   56827 WT3  4664 TIP3 H2   HT     0.417000        1.0080           0
   56828 WT3  4665 TIP3 OH2  OT    -0.834000       15.9994           0
   56829 WT3  4665 TIP3 H1   HT     0.417000        1.0080           0
   56830 WT3  4665 TIP3 H2   HT     0.417000        1.0080           0
   56831 WT3  4666 TIP3 OH2  OT    -0.834000       15.9994           0
   56832 WT3  4666 TIP3 H1   HT     0.417000        1.0080           0
   56833 WT3  4666 TIP3 H2   HT     0.417000        1.0080           0
   56834 WT3  4668 TIP3 OH2  OT    -0.834000       15.9994           0
   56835 WT3  4668 TIP3 H1   HT     0.417000        1.0080           0
   56836 WT3  4668 TIP3 H2   HT     0.417000        1.0080           0
   56837 WT3  4669 TIP3 OH2  OT    -0.834000       15.9994           0
   56838 WT3  4669 TIP3 H1   HT     0.417000        1.0080           0
   56839 WT3  4669 TIP3 H2   HT     0.417000        1.0080           0
   56840 WT3  4670 TIP3 OH2  OT    -0.834000       15.9994           0
   56841 WT3  4670 TIP3 H1   HT     0.417000        1.0080           0
   56842 WT3  4670 TIP3 H2   HT     0.417000        1.0080           0
   56843 WT3  4671 TIP3 OH2  OT    -0.834000       15.9994           0
   56844 WT3  4671 TIP3 H1   HT     0.417000        1.0080           0
   56845 WT3  4671 TIP3 H2   HT     0.417000        1.0080           0
   56846 WT3  4672 TIP3 OH2  OT    -0.834000       15.9994           0
   56847 WT3  4672 TIP3 H1   HT     0.417000        1.0080           0
   56848 WT3  4672 TIP3 H2   HT     0.417000        1.0080           0
   56849 WT3  4674 TIP3 OH2  OT    -0.834000       15.9994           0
   56850 WT3  4674 TIP3 H1   HT     0.417000        1.0080           0
   56851 WT3  4674 TIP3 H2   HT     0.417000        1.0080           0
   56852 WT3  4676 TIP3 OH2  OT    -0.834000       15.9994           0
   56853 WT3  4676 TIP3 H1   HT     0.417000        1.0080           0
   56854 WT3  4676 TIP3 H2   HT     0.417000        1.0080           0
   56855 WT3  4677 TIP3 OH2  OT    -0.834000       15.9994           0
   56856 WT3  4677 TIP3 H1   HT     0.417000        1.0080           0
   56857 WT3  4677 TIP3 H2   HT     0.417000        1.0080           0
   56858 WT3  4678 TIP3 OH2  OT    -0.834000       15.9994           0
   56859 WT3  4678 TIP3 H1   HT     0.417000        1.0080           0
   56860 WT3  4678 TIP3 H2   HT     0.417000        1.0080           0
   56861 WT3  4686 TIP3 OH2  OT    -0.834000       15.9994           0
   56862 WT3  4686 TIP3 H1   HT     0.417000        1.0080           0
   56863 WT3  4686 TIP3 H2   HT     0.417000        1.0080           0
   56864 WT3  4687 TIP3 OH2  OT    -0.834000       15.9994           0
   56865 WT3  4687 TIP3 H1   HT     0.417000        1.0080           0
   56866 WT3  4687 TIP3 H2   HT     0.417000        1.0080           0
   56867 WT3  4688 TIP3 OH2  OT    -0.834000       15.9994           0
   56868 WT3  4688 TIP3 H1   HT     0.417000        1.0080           0
   56869 WT3  4688 TIP3 H2   HT     0.417000        1.0080           0
   56870 WT3  4689 TIP3 OH2  OT    -0.834000       15.9994           0
   56871 WT3  4689 TIP3 H1   HT     0.417000        1.0080           0
   56872 WT3  4689 TIP3 H2   HT     0.417000        1.0080           0
   56873 WT3  4690 TIP3 OH2  OT    -0.834000       15.9994           0
   56874 WT3  4690 TIP3 H1   HT     0.417000        1.0080           0
   56875 WT3  4690 TIP3 H2   HT     0.417000        1.0080           0
   56876 WT3  4691 TIP3 OH2  OT    -0.834000       15.9994           0
   56877 WT3  4691 TIP3 H1   HT     0.417000        1.0080           0
   56878 WT3  4691 TIP3 H2   HT     0.417000        1.0080           0
   56879 WT3  4692 TIP3 OH2  OT    -0.834000       15.9994           0
   56880 WT3  4692 TIP3 H1   HT     0.417000        1.0080           0
   56881 WT3  4692 TIP3 H2   HT     0.417000        1.0080           0
   56882 WT3  4693 TIP3 OH2  OT    -0.834000       15.9994           0
   56883 WT3  4693 TIP3 H1   HT     0.417000        1.0080           0
   56884 WT3  4693 TIP3 H2   HT     0.417000        1.0080           0
   56885 WT3  4694 TIP3 OH2  OT    -0.834000       15.9994           0
   56886 WT3  4694 TIP3 H1   HT     0.417000        1.0080           0
   56887 WT3  4694 TIP3 H2   HT     0.417000        1.0080           0
   56888 WT3  4695 TIP3 OH2  OT    -0.834000       15.9994           0
   56889 WT3  4695 TIP3 H1   HT     0.417000        1.0080           0
   56890 WT3  4695 TIP3 H2   HT     0.417000        1.0080           0
   56891 WT3  4696 TIP3 OH2  OT    -0.834000       15.9994           0
   56892 WT3  4696 TIP3 H1   HT     0.417000        1.0080           0
   56893 WT3  4696 TIP3 H2   HT     0.417000        1.0080           0
   56894 WT3  4697 TIP3 OH2  OT    -0.834000       15.9994           0
   56895 WT3  4697 TIP3 H1   HT     0.417000        1.0080           0
   56896 WT3  4697 TIP3 H2   HT     0.417000        1.0080           0
   56897 WT3  4699 TIP3 OH2  OT    -0.834000       15.9994           0
   56898 WT3  4699 TIP3 H1   HT     0.417000        1.0080           0
   56899 WT3  4699 TIP3 H2   HT     0.417000        1.0080           0
   56900 WT3  4700 TIP3 OH2  OT    -0.834000       15.9994           0
   56901 WT3  4700 TIP3 H1   HT     0.417000        1.0080           0
   56902 WT3  4700 TIP3 H2   HT     0.417000        1.0080           0
   56903 WT3  4704 TIP3 OH2  OT    -0.834000       15.9994           0
   56904 WT3  4704 TIP3 H1   HT     0.417000        1.0080           0
   56905 WT3  4704 TIP3 H2   HT     0.417000        1.0080           0
   56906 WT3  4705 TIP3 OH2  OT    -0.834000       15.9994           0
   56907 WT3  4705 TIP3 H1   HT     0.417000        1.0080           0
   56908 WT3  4705 TIP3 H2   HT     0.417000        1.0080           0
   56909 WT3  4706 TIP3 OH2  OT    -0.834000       15.9994           0
   56910 WT3  4706 TIP3 H1   HT     0.417000        1.0080           0
   56911 WT3  4706 TIP3 H2   HT     0.417000        1.0080           0
   56912 WT3  4707 TIP3 OH2  OT    -0.834000       15.9994           0
   56913 WT3  4707 TIP3 H1   HT     0.417000        1.0080           0
   56914 WT3  4707 TIP3 H2   HT     0.417000        1.0080           0
   56915 WT3  4710 TIP3 OH2  OT    -0.834000       15.9994           0
   56916 WT3  4710 TIP3 H1   HT     0.417000        1.0080           0
   56917 WT3  4710 TIP3 H2   HT     0.417000        1.0080           0
   56918 WT3  4711 TIP3 OH2  OT    -0.834000       15.9994           0
   56919 WT3  4711 TIP3 H1   HT     0.417000        1.0080           0
   56920 WT3  4711 TIP3 H2   HT     0.417000        1.0080           0
   56921 WT3  4713 TIP3 OH2  OT    -0.834000       15.9994           0
   56922 WT3  4713 TIP3 H1   HT     0.417000        1.0080           0
   56923 WT3  4713 TIP3 H2   HT     0.417000        1.0080           0
   56924 WT3  4714 TIP3 OH2  OT    -0.834000       15.9994           0
   56925 WT3  4714 TIP3 H1   HT     0.417000        1.0080           0
   56926 WT3  4714 TIP3 H2   HT     0.417000        1.0080           0
   56927 WT3  4715 TIP3 OH2  OT    -0.834000       15.9994           0
   56928 WT3  4715 TIP3 H1   HT     0.417000        1.0080           0
   56929 WT3  4715 TIP3 H2   HT     0.417000        1.0080           0
   56930 WT3  4717 TIP3 OH2  OT    -0.834000       15.9994           0
   56931 WT3  4717 TIP3 H1   HT     0.417000        1.0080           0
   56932 WT3  4717 TIP3 H2   HT     0.417000        1.0080           0
   56933 WT3  4727 TIP3 OH2  OT    -0.834000       15.9994           0
   56934 WT3  4727 TIP3 H1   HT     0.417000        1.0080           0
   56935 WT3  4727 TIP3 H2   HT     0.417000        1.0080           0
   56936 WT3  4729 TIP3 OH2  OT    -0.834000       15.9994           0
   56937 WT3  4729 TIP3 H1   HT     0.417000        1.0080           0
   56938 WT3  4729 TIP3 H2   HT     0.417000        1.0080           0
   56939 WT3  4731 TIP3 OH2  OT    -0.834000       15.9994           0
   56940 WT3  4731 TIP3 H1   HT     0.417000        1.0080           0
   56941 WT3  4731 TIP3 H2   HT     0.417000        1.0080           0
   56942 WT3  4734 TIP3 OH2  OT    -0.834000       15.9994           0
   56943 WT3  4734 TIP3 H1   HT     0.417000        1.0080           0
   56944 WT3  4734 TIP3 H2   HT     0.417000        1.0080           0
   56945 WT3  4735 TIP3 OH2  OT    -0.834000       15.9994           0
   56946 WT3  4735 TIP3 H1   HT     0.417000        1.0080           0
   56947 WT3  4735 TIP3 H2   HT     0.417000        1.0080           0
   56948 WT3  4736 TIP3 OH2  OT    -0.834000       15.9994           0
   56949 WT3  4736 TIP3 H1   HT     0.417000        1.0080           0
   56950 WT3  4736 TIP3 H2   HT     0.417000        1.0080           0
   56951 WT3  4737 TIP3 OH2  OT    -0.834000       15.9994           0
   56952 WT3  4737 TIP3 H1   HT     0.417000        1.0080           0
   56953 WT3  4737 TIP3 H2   HT     0.417000        1.0080           0
   56954 WT3  4738 TIP3 OH2  OT    -0.834000       15.9994           0
   56955 WT3  4738 TIP3 H1   HT     0.417000        1.0080           0
   56956 WT3  4738 TIP3 H2   HT     0.417000        1.0080           0
   56957 WT3  4739 TIP3 OH2  OT    -0.834000       15.9994           0
   56958 WT3  4739 TIP3 H1   HT     0.417000        1.0080           0
   56959 WT3  4739 TIP3 H2   HT     0.417000        1.0080           0
   56960 WT3  4740 TIP3 OH2  OT    -0.834000       15.9994           0
   56961 WT3  4740 TIP3 H1   HT     0.417000        1.0080           0
   56962 WT3  4740 TIP3 H2   HT     0.417000        1.0080           0
   56963 WT3  4745 TIP3 OH2  OT    -0.834000       15.9994           0
   56964 WT3  4745 TIP3 H1   HT     0.417000        1.0080           0
   56965 WT3  4745 TIP3 H2   HT     0.417000        1.0080           0
   56966 WT3  4750 TIP3 OH2  OT    -0.834000       15.9994           0
   56967 WT3  4750 TIP3 H1   HT     0.417000        1.0080           0
   56968 WT3  4750 TIP3 H2   HT     0.417000        1.0080           0
   56969 WT3  4751 TIP3 OH2  OT    -0.834000       15.9994           0
   56970 WT3  4751 TIP3 H1   HT     0.417000        1.0080           0
   56971 WT3  4751 TIP3 H2   HT     0.417000        1.0080           0
   56972 WT3  4752 TIP3 OH2  OT    -0.834000       15.9994           0
   56973 WT3  4752 TIP3 H1   HT     0.417000        1.0080           0
   56974 WT3  4752 TIP3 H2   HT     0.417000        1.0080           0
   56975 WT3  4753 TIP3 OH2  OT    -0.834000       15.9994           0
   56976 WT3  4753 TIP3 H1   HT     0.417000        1.0080           0
   56977 WT3  4753 TIP3 H2   HT     0.417000        1.0080           0
   56978 WT3  4754 TIP3 OH2  OT    -0.834000       15.9994           0
   56979 WT3  4754 TIP3 H1   HT     0.417000        1.0080           0
   56980 WT3  4754 TIP3 H2   HT     0.417000        1.0080           0
   56981 WT3  4755 TIP3 OH2  OT    -0.834000       15.9994           0
   56982 WT3  4755 TIP3 H1   HT     0.417000        1.0080           0
   56983 WT3  4755 TIP3 H2   HT     0.417000        1.0080           0
   56984 WT3  4758 TIP3 OH2  OT    -0.834000       15.9994           0
   56985 WT3  4758 TIP3 H1   HT     0.417000        1.0080           0
   56986 WT3  4758 TIP3 H2   HT     0.417000        1.0080           0
   56987 WT3  4759 TIP3 OH2  OT    -0.834000       15.9994           0
   56988 WT3  4759 TIP3 H1   HT     0.417000        1.0080           0
   56989 WT3  4759 TIP3 H2   HT     0.417000        1.0080           0
   56990 WT3  4760 TIP3 OH2  OT    -0.834000       15.9994           0
   56991 WT3  4760 TIP3 H1   HT     0.417000        1.0080           0
   56992 WT3  4760 TIP3 H2   HT     0.417000        1.0080           0
   56993 WT3  4761 TIP3 OH2  OT    -0.834000       15.9994           0
   56994 WT3  4761 TIP3 H1   HT     0.417000        1.0080           0
   56995 WT3  4761 TIP3 H2   HT     0.417000        1.0080           0
   56996 WT3  4763 TIP3 OH2  OT    -0.834000       15.9994           0
   56997 WT3  4763 TIP3 H1   HT     0.417000        1.0080           0
   56998 WT3  4763 TIP3 H2   HT     0.417000        1.0080           0
   56999 WT3  4767 TIP3 OH2  OT    -0.834000       15.9994           0
   57000 WT3  4767 TIP3 H1   HT     0.417000        1.0080           0
   57001 WT3  4767 TIP3 H2   HT     0.417000        1.0080           0
   57002 WT3  4768 TIP3 OH2  OT    -0.834000       15.9994           0
   57003 WT3  4768 TIP3 H1   HT     0.417000        1.0080           0
   57004 WT3  4768 TIP3 H2   HT     0.417000        1.0080           0
   57005 WT3  4770 TIP3 OH2  OT    -0.834000       15.9994           0
   57006 WT3  4770 TIP3 H1   HT     0.417000        1.0080           0
   57007 WT3  4770 TIP3 H2   HT     0.417000        1.0080           0
   57008 WT3  4773 TIP3 OH2  OT    -0.834000       15.9994           0
   57009 WT3  4773 TIP3 H1   HT     0.417000        1.0080           0
   57010 WT3  4773 TIP3 H2   HT     0.417000        1.0080           0
   57011 WT3  4774 TIP3 OH2  OT    -0.834000       15.9994           0
   57012 WT3  4774 TIP3 H1   HT     0.417000        1.0080           0
   57013 WT3  4774 TIP3 H2   HT     0.417000        1.0080           0
   57014 WT3  4775 TIP3 OH2  OT    -0.834000       15.9994           0
   57015 WT3  4775 TIP3 H1   HT     0.417000        1.0080           0
   57016 WT3  4775 TIP3 H2   HT     0.417000        1.0080           0
   57017 WT3  4776 TIP3 OH2  OT    -0.834000       15.9994           0
   57018 WT3  4776 TIP3 H1   HT     0.417000        1.0080           0
   57019 WT3  4776 TIP3 H2   HT     0.417000        1.0080           0
   57020 WT3  4777 TIP3 OH2  OT    -0.834000       15.9994           0
   57021 WT3  4777 TIP3 H1   HT     0.417000        1.0080           0
   57022 WT3  4777 TIP3 H2   HT     0.417000        1.0080           0
   57023 WT3  4778 TIP3 OH2  OT    -0.834000       15.9994           0
   57024 WT3  4778 TIP3 H1   HT     0.417000        1.0080           0
   57025 WT3  4778 TIP3 H2   HT     0.417000        1.0080           0
   57026 WT3  4779 TIP3 OH2  OT    -0.834000       15.9994           0
   57027 WT3  4779 TIP3 H1   HT     0.417000        1.0080           0
   57028 WT3  4779 TIP3 H2   HT     0.417000        1.0080           0
   57029 WT3  4780 TIP3 OH2  OT    -0.834000       15.9994           0
   57030 WT3  4780 TIP3 H1   HT     0.417000        1.0080           0
   57031 WT3  4780 TIP3 H2   HT     0.417000        1.0080           0
   57032 WT3  4782 TIP3 OH2  OT    -0.834000       15.9994           0
   57033 WT3  4782 TIP3 H1   HT     0.417000        1.0080           0
   57034 WT3  4782 TIP3 H2   HT     0.417000        1.0080           0
   57035 WT3  4785 TIP3 OH2  OT    -0.834000       15.9994           0
   57036 WT3  4785 TIP3 H1   HT     0.417000        1.0080           0
   57037 WT3  4785 TIP3 H2   HT     0.417000        1.0080           0
   57038 WT3  4788 TIP3 OH2  OT    -0.834000       15.9994           0
   57039 WT3  4788 TIP3 H1   HT     0.417000        1.0080           0
   57040 WT3  4788 TIP3 H2   HT     0.417000        1.0080           0
   57041 WT3  4790 TIP3 OH2  OT    -0.834000       15.9994           0
   57042 WT3  4790 TIP3 H1   HT     0.417000        1.0080           0
   57043 WT3  4790 TIP3 H2   HT     0.417000        1.0080           0
   57044 WT3  4791 TIP3 OH2  OT    -0.834000       15.9994           0
   57045 WT3  4791 TIP3 H1   HT     0.417000        1.0080           0
   57046 WT3  4791 TIP3 H2   HT     0.417000        1.0080           0
   57047 WT3  4792 TIP3 OH2  OT    -0.834000       15.9994           0
   57048 WT3  4792 TIP3 H1   HT     0.417000        1.0080           0
   57049 WT3  4792 TIP3 H2   HT     0.417000        1.0080           0
   57050 WT3  4793 TIP3 OH2  OT    -0.834000       15.9994           0
   57051 WT3  4793 TIP3 H1   HT     0.417000        1.0080           0
   57052 WT3  4793 TIP3 H2   HT     0.417000        1.0080           0
   57053 WT3  4794 TIP3 OH2  OT    -0.834000       15.9994           0
   57054 WT3  4794 TIP3 H1   HT     0.417000        1.0080           0
   57055 WT3  4794 TIP3 H2   HT     0.417000        1.0080           0
   57056 WT3  4795 TIP3 OH2  OT    -0.834000       15.9994           0
   57057 WT3  4795 TIP3 H1   HT     0.417000        1.0080           0
   57058 WT3  4795 TIP3 H2   HT     0.417000        1.0080           0
   57059 WT3  4796 TIP3 OH2  OT    -0.834000       15.9994           0
   57060 WT3  4796 TIP3 H1   HT     0.417000        1.0080           0
   57061 WT3  4796 TIP3 H2   HT     0.417000        1.0080           0
   57062 WT3  4798 TIP3 OH2  OT    -0.834000       15.9994           0
   57063 WT3  4798 TIP3 H1   HT     0.417000        1.0080           0
   57064 WT3  4798 TIP3 H2   HT     0.417000        1.0080           0
   57065 WT3  4799 TIP3 OH2  OT    -0.834000       15.9994           0
   57066 WT3  4799 TIP3 H1   HT     0.417000        1.0080           0
   57067 WT3  4799 TIP3 H2   HT     0.417000        1.0080           0
   57068 WT3  4800 TIP3 OH2  OT    -0.834000       15.9994           0
   57069 WT3  4800 TIP3 H1   HT     0.417000        1.0080           0
   57070 WT3  4800 TIP3 H2   HT     0.417000        1.0080           0
   57071 WT3  4801 TIP3 OH2  OT    -0.834000       15.9994           0
   57072 WT3  4801 TIP3 H1   HT     0.417000        1.0080           0
   57073 WT3  4801 TIP3 H2   HT     0.417000        1.0080           0
   57074 WT3  4803 TIP3 OH2  OT    -0.834000       15.9994           0
   57075 WT3  4803 TIP3 H1   HT     0.417000        1.0080           0
   57076 WT3  4803 TIP3 H2   HT     0.417000        1.0080           0
   57077 WT3  4806 TIP3 OH2  OT    -0.834000       15.9994           0
   57078 WT3  4806 TIP3 H1   HT     0.417000        1.0080           0
   57079 WT3  4806 TIP3 H2   HT     0.417000        1.0080           0
   57080 WT3  4808 TIP3 OH2  OT    -0.834000       15.9994           0
   57081 WT3  4808 TIP3 H1   HT     0.417000        1.0080           0
   57082 WT3  4808 TIP3 H2   HT     0.417000        1.0080           0
   57083 WT3  4809 TIP3 OH2  OT    -0.834000       15.9994           0
   57084 WT3  4809 TIP3 H1   HT     0.417000        1.0080           0
   57085 WT3  4809 TIP3 H2   HT     0.417000        1.0080           0
   57086 WT3  4811 TIP3 OH2  OT    -0.834000       15.9994           0
   57087 WT3  4811 TIP3 H1   HT     0.417000        1.0080           0
   57088 WT3  4811 TIP3 H2   HT     0.417000        1.0080           0
   57089 WT3  4812 TIP3 OH2  OT    -0.834000       15.9994           0
   57090 WT3  4812 TIP3 H1   HT     0.417000        1.0080           0
   57091 WT3  4812 TIP3 H2   HT     0.417000        1.0080           0
   57092 WT3  4813 TIP3 OH2  OT    -0.834000       15.9994           0
   57093 WT3  4813 TIP3 H1   HT     0.417000        1.0080           0
   57094 WT3  4813 TIP3 H2   HT     0.417000        1.0080           0
   57095 WT3  4814 TIP3 OH2  OT    -0.834000       15.9994           0
   57096 WT3  4814 TIP3 H1   HT     0.417000        1.0080           0
   57097 WT3  4814 TIP3 H2   HT     0.417000        1.0080           0
   57098 WT3  4815 TIP3 OH2  OT    -0.834000       15.9994           0
   57099 WT3  4815 TIP3 H1   HT     0.417000        1.0080           0
   57100 WT3  4815 TIP3 H2   HT     0.417000        1.0080           0
   57101 WT3  4816 TIP3 OH2  OT    -0.834000       15.9994           0
   57102 WT3  4816 TIP3 H1   HT     0.417000        1.0080           0
   57103 WT3  4816 TIP3 H2   HT     0.417000        1.0080           0
   57104 WT3  4817 TIP3 OH2  OT    -0.834000       15.9994           0
   57105 WT3  4817 TIP3 H1   HT     0.417000        1.0080           0
   57106 WT3  4817 TIP3 H2   HT     0.417000        1.0080           0
   57107 WT3  4818 TIP3 OH2  OT    -0.834000       15.9994           0
   57108 WT3  4818 TIP3 H1   HT     0.417000        1.0080           0
   57109 WT3  4818 TIP3 H2   HT     0.417000        1.0080           0
   57110 WT3  4819 TIP3 OH2  OT    -0.834000       15.9994           0
   57111 WT3  4819 TIP3 H1   HT     0.417000        1.0080           0
   57112 WT3  4819 TIP3 H2   HT     0.417000        1.0080           0
   57113 WT3  4821 TIP3 OH2  OT    -0.834000       15.9994           0
   57114 WT3  4821 TIP3 H1   HT     0.417000        1.0080           0
   57115 WT3  4821 TIP3 H2   HT     0.417000        1.0080           0
   57116 WT3  4822 TIP3 OH2  OT    -0.834000       15.9994           0
   57117 WT3  4822 TIP3 H1   HT     0.417000        1.0080           0
   57118 WT3  4822 TIP3 H2   HT     0.417000        1.0080           0
   57119 WT3  4824 TIP3 OH2  OT    -0.834000       15.9994           0
   57120 WT3  4824 TIP3 H1   HT     0.417000        1.0080           0
   57121 WT3  4824 TIP3 H2   HT     0.417000        1.0080           0
   57122 WT3  4825 TIP3 OH2  OT    -0.834000       15.9994           0
   57123 WT3  4825 TIP3 H1   HT     0.417000        1.0080           0
   57124 WT3  4825 TIP3 H2   HT     0.417000        1.0080           0
   57125 WT3  4832 TIP3 OH2  OT    -0.834000       15.9994           0
   57126 WT3  4832 TIP3 H1   HT     0.417000        1.0080           0
   57127 WT3  4832 TIP3 H2   HT     0.417000        1.0080           0
   57128 WT3  4833 TIP3 OH2  OT    -0.834000       15.9994           0
   57129 WT3  4833 TIP3 H1   HT     0.417000        1.0080           0
   57130 WT3  4833 TIP3 H2   HT     0.417000        1.0080           0
   57131 WT3  4834 TIP3 OH2  OT    -0.834000       15.9994           0
   57132 WT3  4834 TIP3 H1   HT     0.417000        1.0080           0
   57133 WT3  4834 TIP3 H2   HT     0.417000        1.0080           0
   57134 WT3  4835 TIP3 OH2  OT    -0.834000       15.9994           0
   57135 WT3  4835 TIP3 H1   HT     0.417000        1.0080           0
   57136 WT3  4835 TIP3 H2   HT     0.417000        1.0080           0
   57137 WT3  4836 TIP3 OH2  OT    -0.834000       15.9994           0
   57138 WT3  4836 TIP3 H1   HT     0.417000        1.0080           0
   57139 WT3  4836 TIP3 H2   HT     0.417000        1.0080           0
   57140 WT3  4837 TIP3 OH2  OT    -0.834000       15.9994           0
   57141 WT3  4837 TIP3 H1   HT     0.417000        1.0080           0
   57142 WT3  4837 TIP3 H2   HT     0.417000        1.0080           0
   57143 WT3  4841 TIP3 OH2  OT    -0.834000       15.9994           0
   57144 WT3  4841 TIP3 H1   HT     0.417000        1.0080           0
   57145 WT3  4841 TIP3 H2   HT     0.417000        1.0080           0
   57146 WT3  4842 TIP3 OH2  OT    -0.834000       15.9994           0
   57147 WT3  4842 TIP3 H1   HT     0.417000        1.0080           0
   57148 WT3  4842 TIP3 H2   HT     0.417000        1.0080           0
   57149 WT3  4843 TIP3 OH2  OT    -0.834000       15.9994           0
   57150 WT3  4843 TIP3 H1   HT     0.417000        1.0080           0
   57151 WT3  4843 TIP3 H2   HT     0.417000        1.0080           0
   57152 WT3  4849 TIP3 OH2  OT    -0.834000       15.9994           0
   57153 WT3  4849 TIP3 H1   HT     0.417000        1.0080           0
   57154 WT3  4849 TIP3 H2   HT     0.417000        1.0080           0
   57155 WT3  4851 TIP3 OH2  OT    -0.834000       15.9994           0
   57156 WT3  4851 TIP3 H1   HT     0.417000        1.0080           0
   57157 WT3  4851 TIP3 H2   HT     0.417000        1.0080           0
   57158 WT3  4852 TIP3 OH2  OT    -0.834000       15.9994           0
   57159 WT3  4852 TIP3 H1   HT     0.417000        1.0080           0
   57160 WT3  4852 TIP3 H2   HT     0.417000        1.0080           0
   57161 WT3  4853 TIP3 OH2  OT    -0.834000       15.9994           0
   57162 WT3  4853 TIP3 H1   HT     0.417000        1.0080           0
   57163 WT3  4853 TIP3 H2   HT     0.417000        1.0080           0
   57164 WT3  4855 TIP3 OH2  OT    -0.834000       15.9994           0
   57165 WT3  4855 TIP3 H1   HT     0.417000        1.0080           0
   57166 WT3  4855 TIP3 H2   HT     0.417000        1.0080           0
   57167 WT3  4857 TIP3 OH2  OT    -0.834000       15.9994           0
   57168 WT3  4857 TIP3 H1   HT     0.417000        1.0080           0
   57169 WT3  4857 TIP3 H2   HT     0.417000        1.0080           0
   57170 WT3  4859 TIP3 OH2  OT    -0.834000       15.9994           0
   57171 WT3  4859 TIP3 H1   HT     0.417000        1.0080           0
   57172 WT3  4859 TIP3 H2   HT     0.417000        1.0080           0
   57173 WT3  4860 TIP3 OH2  OT    -0.834000       15.9994           0
   57174 WT3  4860 TIP3 H1   HT     0.417000        1.0080           0
   57175 WT3  4860 TIP3 H2   HT     0.417000        1.0080           0
   57176 WT3  4861 TIP3 OH2  OT    -0.834000       15.9994           0
   57177 WT3  4861 TIP3 H1   HT     0.417000        1.0080           0
   57178 WT3  4861 TIP3 H2   HT     0.417000        1.0080           0
   57179 WT3  4862 TIP3 OH2  OT    -0.834000       15.9994           0
   57180 WT3  4862 TIP3 H1   HT     0.417000        1.0080           0
   57181 WT3  4862 TIP3 H2   HT     0.417000        1.0080           0
   57182 WT3  4863 TIP3 OH2  OT    -0.834000       15.9994           0
   57183 WT3  4863 TIP3 H1   HT     0.417000        1.0080           0
   57184 WT3  4863 TIP3 H2   HT     0.417000        1.0080           0
   57185 WT3  4864 TIP3 OH2  OT    -0.834000       15.9994           0
   57186 WT3  4864 TIP3 H1   HT     0.417000        1.0080           0
   57187 WT3  4864 TIP3 H2   HT     0.417000        1.0080           0
   57188 WT3  4865 TIP3 OH2  OT    -0.834000       15.9994           0
   57189 WT3  4865 TIP3 H1   HT     0.417000        1.0080           0
   57190 WT3  4865 TIP3 H2   HT     0.417000        1.0080           0
   57191 WT3  4866 TIP3 OH2  OT    -0.834000       15.9994           0
   57192 WT3  4866 TIP3 H1   HT     0.417000        1.0080           0
   57193 WT3  4866 TIP3 H2   HT     0.417000        1.0080           0
   57194 WT3  4867 TIP3 OH2  OT    -0.834000       15.9994           0
   57195 WT3  4867 TIP3 H1   HT     0.417000        1.0080           0
   57196 WT3  4867 TIP3 H2   HT     0.417000        1.0080           0
   57197 WT3  4872 TIP3 OH2  OT    -0.834000       15.9994           0
   57198 WT3  4872 TIP3 H1   HT     0.417000        1.0080           0
   57199 WT3  4872 TIP3 H2   HT     0.417000        1.0080           0
   57200 WT3  4875 TIP3 OH2  OT    -0.834000       15.9994           0
   57201 WT3  4875 TIP3 H1   HT     0.417000        1.0080           0
   57202 WT3  4875 TIP3 H2   HT     0.417000        1.0080           0
   57203 WT3  4876 TIP3 OH2  OT    -0.834000       15.9994           0
   57204 WT3  4876 TIP3 H1   HT     0.417000        1.0080           0
   57205 WT3  4876 TIP3 H2   HT     0.417000        1.0080           0
   57206 WT3  4877 TIP3 OH2  OT    -0.834000       15.9994           0
   57207 WT3  4877 TIP3 H1   HT     0.417000        1.0080           0
   57208 WT3  4877 TIP3 H2   HT     0.417000        1.0080           0
   57209 WT3  4878 TIP3 OH2  OT    -0.834000       15.9994           0
   57210 WT3  4878 TIP3 H1   HT     0.417000        1.0080           0
   57211 WT3  4878 TIP3 H2   HT     0.417000        1.0080           0
   57212 WT3  4879 TIP3 OH2  OT    -0.834000       15.9994           0
   57213 WT3  4879 TIP3 H1   HT     0.417000        1.0080           0
   57214 WT3  4879 TIP3 H2   HT     0.417000        1.0080           0
   57215 WT3  4880 TIP3 OH2  OT    -0.834000       15.9994           0
   57216 WT3  4880 TIP3 H1   HT     0.417000        1.0080           0
   57217 WT3  4880 TIP3 H2   HT     0.417000        1.0080           0
   57218 WT3  4881 TIP3 OH2  OT    -0.834000       15.9994           0
   57219 WT3  4881 TIP3 H1   HT     0.417000        1.0080           0
   57220 WT3  4881 TIP3 H2   HT     0.417000        1.0080           0
   57221 WT3  4882 TIP3 OH2  OT    -0.834000       15.9994           0
   57222 WT3  4882 TIP3 H1   HT     0.417000        1.0080           0
   57223 WT3  4882 TIP3 H2   HT     0.417000        1.0080           0
   57224 WT3  4883 TIP3 OH2  OT    -0.834000       15.9994           0
   57225 WT3  4883 TIP3 H1   HT     0.417000        1.0080           0
   57226 WT3  4883 TIP3 H2   HT     0.417000        1.0080           0
   57227 WT3  4884 TIP3 OH2  OT    -0.834000       15.9994           0
   57228 WT3  4884 TIP3 H1   HT     0.417000        1.0080           0
   57229 WT3  4884 TIP3 H2   HT     0.417000        1.0080           0
   57230 WT3  4886 TIP3 OH2  OT    -0.834000       15.9994           0
   57231 WT3  4886 TIP3 H1   HT     0.417000        1.0080           0
   57232 WT3  4886 TIP3 H2   HT     0.417000        1.0080           0
   57233 WT3  4887 TIP3 OH2  OT    -0.834000       15.9994           0
   57234 WT3  4887 TIP3 H1   HT     0.417000        1.0080           0
   57235 WT3  4887 TIP3 H2   HT     0.417000        1.0080           0
   57236 WT3  4890 TIP3 OH2  OT    -0.834000       15.9994           0
   57237 WT3  4890 TIP3 H1   HT     0.417000        1.0080           0
   57238 WT3  4890 TIP3 H2   HT     0.417000        1.0080           0
   57239 WT3  4893 TIP3 OH2  OT    -0.834000       15.9994           0
   57240 WT3  4893 TIP3 H1   HT     0.417000        1.0080           0
   57241 WT3  4893 TIP3 H2   HT     0.417000        1.0080           0
   57242 WT3  4896 TIP3 OH2  OT    -0.834000       15.9994           0
   57243 WT3  4896 TIP3 H1   HT     0.417000        1.0080           0
   57244 WT3  4896 TIP3 H2   HT     0.417000        1.0080           0
   57245 WT3  4897 TIP3 OH2  OT    -0.834000       15.9994           0
   57246 WT3  4897 TIP3 H1   HT     0.417000        1.0080           0
   57247 WT3  4897 TIP3 H2   HT     0.417000        1.0080           0
   57248 WT3  4898 TIP3 OH2  OT    -0.834000       15.9994           0
   57249 WT3  4898 TIP3 H1   HT     0.417000        1.0080           0
   57250 WT3  4898 TIP3 H2   HT     0.417000        1.0080           0
   57251 WT3  4899 TIP3 OH2  OT    -0.834000       15.9994           0
   57252 WT3  4899 TIP3 H1   HT     0.417000        1.0080           0
   57253 WT3  4899 TIP3 H2   HT     0.417000        1.0080           0
   57254 WT3  4900 TIP3 OH2  OT    -0.834000       15.9994           0
   57255 WT3  4900 TIP3 H1   HT     0.417000        1.0080           0
   57256 WT3  4900 TIP3 H2   HT     0.417000        1.0080           0
   57257 WT3  4901 TIP3 OH2  OT    -0.834000       15.9994           0
   57258 WT3  4901 TIP3 H1   HT     0.417000        1.0080           0
   57259 WT3  4901 TIP3 H2   HT     0.417000        1.0080           0
   57260 WT3  4902 TIP3 OH2  OT    -0.834000       15.9994           0
   57261 WT3  4902 TIP3 H1   HT     0.417000        1.0080           0
   57262 WT3  4902 TIP3 H2   HT     0.417000        1.0080           0
   57263 WT3  4903 TIP3 OH2  OT    -0.834000       15.9994           0
   57264 WT3  4903 TIP3 H1   HT     0.417000        1.0080           0
   57265 WT3  4903 TIP3 H2   HT     0.417000        1.0080           0
   57266 WT3  4904 TIP3 OH2  OT    -0.834000       15.9994           0
   57267 WT3  4904 TIP3 H1   HT     0.417000        1.0080           0
   57268 WT3  4904 TIP3 H2   HT     0.417000        1.0080           0
   57269 WT3  4905 TIP3 OH2  OT    -0.834000       15.9994           0
   57270 WT3  4905 TIP3 H1   HT     0.417000        1.0080           0
   57271 WT3  4905 TIP3 H2   HT     0.417000        1.0080           0
   57272 WT3  4906 TIP3 OH2  OT    -0.834000       15.9994           0
   57273 WT3  4906 TIP3 H1   HT     0.417000        1.0080           0
   57274 WT3  4906 TIP3 H2   HT     0.417000        1.0080           0
   57275 WT3  4911 TIP3 OH2  OT    -0.834000       15.9994           0
   57276 WT3  4911 TIP3 H1   HT     0.417000        1.0080           0
   57277 WT3  4911 TIP3 H2   HT     0.417000        1.0080           0
   57278 WT3  4914 TIP3 OH2  OT    -0.834000       15.9994           0
   57279 WT3  4914 TIP3 H1   HT     0.417000        1.0080           0
   57280 WT3  4914 TIP3 H2   HT     0.417000        1.0080           0
   57281 WT3  4915 TIP3 OH2  OT    -0.834000       15.9994           0
   57282 WT3  4915 TIP3 H1   HT     0.417000        1.0080           0
   57283 WT3  4915 TIP3 H2   HT     0.417000        1.0080           0
   57284 WT3  4916 TIP3 OH2  OT    -0.834000       15.9994           0
   57285 WT3  4916 TIP3 H1   HT     0.417000        1.0080           0
   57286 WT3  4916 TIP3 H2   HT     0.417000        1.0080           0
   57287 WT3  4918 TIP3 OH2  OT    -0.834000       15.9994           0
   57288 WT3  4918 TIP3 H1   HT     0.417000        1.0080           0
   57289 WT3  4918 TIP3 H2   HT     0.417000        1.0080           0
   57290 WT3  4919 TIP3 OH2  OT    -0.834000       15.9994           0
   57291 WT3  4919 TIP3 H1   HT     0.417000        1.0080           0
   57292 WT3  4919 TIP3 H2   HT     0.417000        1.0080           0
   57293 WT3  4920 TIP3 OH2  OT    -0.834000       15.9994           0
   57294 WT3  4920 TIP3 H1   HT     0.417000        1.0080           0
   57295 WT3  4920 TIP3 H2   HT     0.417000        1.0080           0
   57296 WT3  4921 TIP3 OH2  OT    -0.834000       15.9994           0
   57297 WT3  4921 TIP3 H1   HT     0.417000        1.0080           0
   57298 WT3  4921 TIP3 H2   HT     0.417000        1.0080           0
   57299 WT3  4922 TIP3 OH2  OT    -0.834000       15.9994           0
   57300 WT3  4922 TIP3 H1   HT     0.417000        1.0080           0
   57301 WT3  4922 TIP3 H2   HT     0.417000        1.0080           0
   57302 WT3  4923 TIP3 OH2  OT    -0.834000       15.9994           0
   57303 WT3  4923 TIP3 H1   HT     0.417000        1.0080           0
   57304 WT3  4923 TIP3 H2   HT     0.417000        1.0080           0
   57305 WT3  4924 TIP3 OH2  OT    -0.834000       15.9994           0
   57306 WT3  4924 TIP3 H1   HT     0.417000        1.0080           0
   57307 WT3  4924 TIP3 H2   HT     0.417000        1.0080           0
   57308 WT3  4925 TIP3 OH2  OT    -0.834000       15.9994           0
   57309 WT3  4925 TIP3 H1   HT     0.417000        1.0080           0
   57310 WT3  4925 TIP3 H2   HT     0.417000        1.0080           0
   57311 WT3  4926 TIP3 OH2  OT    -0.834000       15.9994           0
   57312 WT3  4926 TIP3 H1   HT     0.417000        1.0080           0
   57313 WT3  4926 TIP3 H2   HT     0.417000        1.0080           0
   57314 WT3  4927 TIP3 OH2  OT    -0.834000       15.9994           0
   57315 WT3  4927 TIP3 H1   HT     0.417000        1.0080           0
   57316 WT3  4927 TIP3 H2   HT     0.417000        1.0080           0
   57317 WT3  4930 TIP3 OH2  OT    -0.834000       15.9994           0
   57318 WT3  4930 TIP3 H1   HT     0.417000        1.0080           0
   57319 WT3  4930 TIP3 H2   HT     0.417000        1.0080           0
   57320 WT3  4933 TIP3 OH2  OT    -0.834000       15.9994           0
   57321 WT3  4933 TIP3 H1   HT     0.417000        1.0080           0
   57322 WT3  4933 TIP3 H2   HT     0.417000        1.0080           0
   57323 WT3  4934 TIP3 OH2  OT    -0.834000       15.9994           0
   57324 WT3  4934 TIP3 H1   HT     0.417000        1.0080           0
   57325 WT3  4934 TIP3 H2   HT     0.417000        1.0080           0
   57326 WT3  4935 TIP3 OH2  OT    -0.834000       15.9994           0
   57327 WT3  4935 TIP3 H1   HT     0.417000        1.0080           0
   57328 WT3  4935 TIP3 H2   HT     0.417000        1.0080           0
   57329 WT3  4936 TIP3 OH2  OT    -0.834000       15.9994           0
   57330 WT3  4936 TIP3 H1   HT     0.417000        1.0080           0
   57331 WT3  4936 TIP3 H2   HT     0.417000        1.0080           0
   57332 WT3  4937 TIP3 OH2  OT    -0.834000       15.9994           0
   57333 WT3  4937 TIP3 H1   HT     0.417000        1.0080           0
   57334 WT3  4937 TIP3 H2   HT     0.417000        1.0080           0
   57335 WT3  4939 TIP3 OH2  OT    -0.834000       15.9994           0
   57336 WT3  4939 TIP3 H1   HT     0.417000        1.0080           0
   57337 WT3  4939 TIP3 H2   HT     0.417000        1.0080           0
   57338 WT3  4940 TIP3 OH2  OT    -0.834000       15.9994           0
   57339 WT3  4940 TIP3 H1   HT     0.417000        1.0080           0
   57340 WT3  4940 TIP3 H2   HT     0.417000        1.0080           0
   57341 WT3  4941 TIP3 OH2  OT    -0.834000       15.9994           0
   57342 WT3  4941 TIP3 H1   HT     0.417000        1.0080           0
   57343 WT3  4941 TIP3 H2   HT     0.417000        1.0080           0
   57344 WT3  4942 TIP3 OH2  OT    -0.834000       15.9994           0
   57345 WT3  4942 TIP3 H1   HT     0.417000        1.0080           0
   57346 WT3  4942 TIP3 H2   HT     0.417000        1.0080           0
   57347 WT3  4944 TIP3 OH2  OT    -0.834000       15.9994           0
   57348 WT3  4944 TIP3 H1   HT     0.417000        1.0080           0
   57349 WT3  4944 TIP3 H2   HT     0.417000        1.0080           0
   57350 WT3  4946 TIP3 OH2  OT    -0.834000       15.9994           0
   57351 WT3  4946 TIP3 H1   HT     0.417000        1.0080           0
   57352 WT3  4946 TIP3 H2   HT     0.417000        1.0080           0
   57353 WT3  4947 TIP3 OH2  OT    -0.834000       15.9994           0
   57354 WT3  4947 TIP3 H1   HT     0.417000        1.0080           0
   57355 WT3  4947 TIP3 H2   HT     0.417000        1.0080           0
   57356 WT3  4951 TIP3 OH2  OT    -0.834000       15.9994           0
   57357 WT3  4951 TIP3 H1   HT     0.417000        1.0080           0
   57358 WT3  4951 TIP3 H2   HT     0.417000        1.0080           0
   57359 WT3  4956 TIP3 OH2  OT    -0.834000       15.9994           0
   57360 WT3  4956 TIP3 H1   HT     0.417000        1.0080           0
   57361 WT3  4956 TIP3 H2   HT     0.417000        1.0080           0
   57362 WT3  4957 TIP3 OH2  OT    -0.834000       15.9994           0
   57363 WT3  4957 TIP3 H1   HT     0.417000        1.0080           0
   57364 WT3  4957 TIP3 H2   HT     0.417000        1.0080           0
   57365 WT3  4962 TIP3 OH2  OT    -0.834000       15.9994           0
   57366 WT3  4962 TIP3 H1   HT     0.417000        1.0080           0
   57367 WT3  4962 TIP3 H2   HT     0.417000        1.0080           0
   57368 WT3  4963 TIP3 OH2  OT    -0.834000       15.9994           0
   57369 WT3  4963 TIP3 H1   HT     0.417000        1.0080           0
   57370 WT3  4963 TIP3 H2   HT     0.417000        1.0080           0
   57371 WT3  4965 TIP3 OH2  OT    -0.834000       15.9994           0
   57372 WT3  4965 TIP3 H1   HT     0.417000        1.0080           0
   57373 WT3  4965 TIP3 H2   HT     0.417000        1.0080           0
   57374 WT3  4966 TIP3 OH2  OT    -0.834000       15.9994           0
   57375 WT3  4966 TIP3 H1   HT     0.417000        1.0080           0
   57376 WT3  4966 TIP3 H2   HT     0.417000        1.0080           0
   57377 WT3  4967 TIP3 OH2  OT    -0.834000       15.9994           0
   57378 WT3  4967 TIP3 H1   HT     0.417000        1.0080           0
   57379 WT3  4967 TIP3 H2   HT     0.417000        1.0080           0
   57380 WT3  4968 TIP3 OH2  OT    -0.834000       15.9994           0
   57381 WT3  4968 TIP3 H1   HT     0.417000        1.0080           0
   57382 WT3  4968 TIP3 H2   HT     0.417000        1.0080           0
   57383 WT3  4969 TIP3 OH2  OT    -0.834000       15.9994           0
   57384 WT3  4969 TIP3 H1   HT     0.417000        1.0080           0
   57385 WT3  4969 TIP3 H2   HT     0.417000        1.0080           0
   57386 WT3  4971 TIP3 OH2  OT    -0.834000       15.9994           0
   57387 WT3  4971 TIP3 H1   HT     0.417000        1.0080           0
   57388 WT3  4971 TIP3 H2   HT     0.417000        1.0080           0
   57389 WT3  4979 TIP3 OH2  OT    -0.834000       15.9994           0
   57390 WT3  4979 TIP3 H1   HT     0.417000        1.0080           0
   57391 WT3  4979 TIP3 H2   HT     0.417000        1.0080           0
   57392 WT3  4980 TIP3 OH2  OT    -0.834000       15.9994           0
   57393 WT3  4980 TIP3 H1   HT     0.417000        1.0080           0
   57394 WT3  4980 TIP3 H2   HT     0.417000        1.0080           0
   57395 WT3  4981 TIP3 OH2  OT    -0.834000       15.9994           0
   57396 WT3  4981 TIP3 H1   HT     0.417000        1.0080           0
   57397 WT3  4981 TIP3 H2   HT     0.417000        1.0080           0
   57398 WT3  4982 TIP3 OH2  OT    -0.834000       15.9994           0
   57399 WT3  4982 TIP3 H1   HT     0.417000        1.0080           0
   57400 WT3  4982 TIP3 H2   HT     0.417000        1.0080           0
   57401 WT3  4983 TIP3 OH2  OT    -0.834000       15.9994           0
   57402 WT3  4983 TIP3 H1   HT     0.417000        1.0080           0
   57403 WT3  4983 TIP3 H2   HT     0.417000        1.0080           0
   57404 WT3  4984 TIP3 OH2  OT    -0.834000       15.9994           0
   57405 WT3  4984 TIP3 H1   HT     0.417000        1.0080           0
   57406 WT3  4984 TIP3 H2   HT     0.417000        1.0080           0
   57407 WT3  4986 TIP3 OH2  OT    -0.834000       15.9994           0
   57408 WT3  4986 TIP3 H1   HT     0.417000        1.0080           0
   57409 WT3  4986 TIP3 H2   HT     0.417000        1.0080           0
   57410 WT3  4987 TIP3 OH2  OT    -0.834000       15.9994           0
   57411 WT3  4987 TIP3 H1   HT     0.417000        1.0080           0
   57412 WT3  4987 TIP3 H2   HT     0.417000        1.0080           0
   57413 WT3  4988 TIP3 OH2  OT    -0.834000       15.9994           0
   57414 WT3  4988 TIP3 H1   HT     0.417000        1.0080           0
   57415 WT3  4988 TIP3 H2   HT     0.417000        1.0080           0
   57416 WT3  4989 TIP3 OH2  OT    -0.834000       15.9994           0
   57417 WT3  4989 TIP3 H1   HT     0.417000        1.0080           0
   57418 WT3  4989 TIP3 H2   HT     0.417000        1.0080           0
   57419 WT3  4990 TIP3 OH2  OT    -0.834000       15.9994           0
   57420 WT3  4990 TIP3 H1   HT     0.417000        1.0080           0
   57421 WT3  4990 TIP3 H2   HT     0.417000        1.0080           0
   57422 WT3  4991 TIP3 OH2  OT    -0.834000       15.9994           0
   57423 WT3  4991 TIP3 H1   HT     0.417000        1.0080           0
   57424 WT3  4991 TIP3 H2   HT     0.417000        1.0080           0
   57425 WT3  4993 TIP3 OH2  OT    -0.834000       15.9994           0
   57426 WT3  4993 TIP3 H1   HT     0.417000        1.0080           0
   57427 WT3  4993 TIP3 H2   HT     0.417000        1.0080           0
   57428 WT3  4995 TIP3 OH2  OT    -0.834000       15.9994           0
   57429 WT3  4995 TIP3 H1   HT     0.417000        1.0080           0
   57430 WT3  4995 TIP3 H2   HT     0.417000        1.0080           0
   57431 WT3  4996 TIP3 OH2  OT    -0.834000       15.9994           0
   57432 WT3  4996 TIP3 H1   HT     0.417000        1.0080           0
   57433 WT3  4996 TIP3 H2   HT     0.417000        1.0080           0
   57434 WT3  4999 TIP3 OH2  OT    -0.834000       15.9994           0
   57435 WT3  4999 TIP3 H1   HT     0.417000        1.0080           0
   57436 WT3  4999 TIP3 H2   HT     0.417000        1.0080           0
   57437 WT3  5000 TIP3 OH2  OT    -0.834000       15.9994           0
   57438 WT3  5000 TIP3 H1   HT     0.417000        1.0080           0
   57439 WT3  5000 TIP3 H2   HT     0.417000        1.0080           0
   57440 WT3  5001 TIP3 OH2  OT    -0.834000       15.9994           0
   57441 WT3  5001 TIP3 H1   HT     0.417000        1.0080           0
   57442 WT3  5001 TIP3 H2   HT     0.417000        1.0080           0
   57443 WT3  5002 TIP3 OH2  OT    -0.834000       15.9994           0
   57444 WT3  5002 TIP3 H1   HT     0.417000        1.0080           0
   57445 WT3  5002 TIP3 H2   HT     0.417000        1.0080           0
   57446 WT3  5003 TIP3 OH2  OT    -0.834000       15.9994           0
   57447 WT3  5003 TIP3 H1   HT     0.417000        1.0080           0
   57448 WT3  5003 TIP3 H2   HT     0.417000        1.0080           0
   57449 WT3  5004 TIP3 OH2  OT    -0.834000       15.9994           0
   57450 WT3  5004 TIP3 H1   HT     0.417000        1.0080           0
   57451 WT3  5004 TIP3 H2   HT     0.417000        1.0080           0
   57452 WT3  5005 TIP3 OH2  OT    -0.834000       15.9994           0
   57453 WT3  5005 TIP3 H1   HT     0.417000        1.0080           0
   57454 WT3  5005 TIP3 H2   HT     0.417000        1.0080           0
   57455 WT3  5006 TIP3 OH2  OT    -0.834000       15.9994           0
   57456 WT3  5006 TIP3 H1   HT     0.417000        1.0080           0
   57457 WT3  5006 TIP3 H2   HT     0.417000        1.0080           0
   57458 WT3  5007 TIP3 OH2  OT    -0.834000       15.9994           0
   57459 WT3  5007 TIP3 H1   HT     0.417000        1.0080           0
   57460 WT3  5007 TIP3 H2   HT     0.417000        1.0080           0
   57461 WT3  5008 TIP3 OH2  OT    -0.834000       15.9994           0
   57462 WT3  5008 TIP3 H1   HT     0.417000        1.0080           0
   57463 WT3  5008 TIP3 H2   HT     0.417000        1.0080           0
   57464 WT3  5009 TIP3 OH2  OT    -0.834000       15.9994           0
   57465 WT3  5009 TIP3 H1   HT     0.417000        1.0080           0
   57466 WT3  5009 TIP3 H2   HT     0.417000        1.0080           0
   57467 WT3  5010 TIP3 OH2  OT    -0.834000       15.9994           0
   57468 WT3  5010 TIP3 H1   HT     0.417000        1.0080           0
   57469 WT3  5010 TIP3 H2   HT     0.417000        1.0080           0
   57470 WT3  5012 TIP3 OH2  OT    -0.834000       15.9994           0
   57471 WT3  5012 TIP3 H1   HT     0.417000        1.0080           0
   57472 WT3  5012 TIP3 H2   HT     0.417000        1.0080           0
   57473 WT3  5013 TIP3 OH2  OT    -0.834000       15.9994           0
   57474 WT3  5013 TIP3 H1   HT     0.417000        1.0080           0
   57475 WT3  5013 TIP3 H2   HT     0.417000        1.0080           0
   57476 WT3  5019 TIP3 OH2  OT    -0.834000       15.9994           0
   57477 WT3  5019 TIP3 H1   HT     0.417000        1.0080           0
   57478 WT3  5019 TIP3 H2   HT     0.417000        1.0080           0
   57479 WT3  5025 TIP3 OH2  OT    -0.834000       15.9994           0
   57480 WT3  5025 TIP3 H1   HT     0.417000        1.0080           0
   57481 WT3  5025 TIP3 H2   HT     0.417000        1.0080           0
   57482 WT3  5026 TIP3 OH2  OT    -0.834000       15.9994           0
   57483 WT3  5026 TIP3 H1   HT     0.417000        1.0080           0
   57484 WT3  5026 TIP3 H2   HT     0.417000        1.0080           0
   57485 WT3  5027 TIP3 OH2  OT    -0.834000       15.9994           0
   57486 WT3  5027 TIP3 H1   HT     0.417000        1.0080           0
   57487 WT3  5027 TIP3 H2   HT     0.417000        1.0080           0
   57488 WT3  5028 TIP3 OH2  OT    -0.834000       15.9994           0
   57489 WT3  5028 TIP3 H1   HT     0.417000        1.0080           0
   57490 WT3  5028 TIP3 H2   HT     0.417000        1.0080           0
   57491 WT3  5029 TIP3 OH2  OT    -0.834000       15.9994           0
   57492 WT3  5029 TIP3 H1   HT     0.417000        1.0080           0
   57493 WT3  5029 TIP3 H2   HT     0.417000        1.0080           0
   57494 WT3  5030 TIP3 OH2  OT    -0.834000       15.9994           0
   57495 WT3  5030 TIP3 H1   HT     0.417000        1.0080           0
   57496 WT3  5030 TIP3 H2   HT     0.417000        1.0080           0
   57497 WT3  5042 TIP3 OH2  OT    -0.834000       15.9994           0
   57498 WT3  5042 TIP3 H1   HT     0.417000        1.0080           0
   57499 WT3  5042 TIP3 H2   HT     0.417000        1.0080           0
   57500 WT3  5045 TIP3 OH2  OT    -0.834000       15.9994           0
   57501 WT3  5045 TIP3 H1   HT     0.417000        1.0080           0
   57502 WT3  5045 TIP3 H2   HT     0.417000        1.0080           0
   57503 WT3  5046 TIP3 OH2  OT    -0.834000       15.9994           0
   57504 WT3  5046 TIP3 H1   HT     0.417000        1.0080           0
   57505 WT3  5046 TIP3 H2   HT     0.417000        1.0080           0
   57506 WT3  5047 TIP3 OH2  OT    -0.834000       15.9994           0
   57507 WT3  5047 TIP3 H1   HT     0.417000        1.0080           0
   57508 WT3  5047 TIP3 H2   HT     0.417000        1.0080           0
   57509 WT3  5048 TIP3 OH2  OT    -0.834000       15.9994           0
   57510 WT3  5048 TIP3 H1   HT     0.417000        1.0080           0
   57511 WT3  5048 TIP3 H2   HT     0.417000        1.0080           0
   57512 WT3  5050 TIP3 OH2  OT    -0.834000       15.9994           0
   57513 WT3  5050 TIP3 H1   HT     0.417000        1.0080           0
   57514 WT3  5050 TIP3 H2   HT     0.417000        1.0080           0
   57515 WT3  5051 TIP3 OH2  OT    -0.834000       15.9994           0
   57516 WT3  5051 TIP3 H1   HT     0.417000        1.0080           0
   57517 WT3  5051 TIP3 H2   HT     0.417000        1.0080           0
   57518 WT3  5052 TIP3 OH2  OT    -0.834000       15.9994           0
   57519 WT3  5052 TIP3 H1   HT     0.417000        1.0080           0
   57520 WT3  5052 TIP3 H2   HT     0.417000        1.0080           0
   57521 WT3  5053 TIP3 OH2  OT    -0.834000       15.9994           0
   57522 WT3  5053 TIP3 H1   HT     0.417000        1.0080           0
   57523 WT3  5053 TIP3 H2   HT     0.417000        1.0080           0
   57524 WT3  5055 TIP3 OH2  OT    -0.834000       15.9994           0
   57525 WT3  5055 TIP3 H1   HT     0.417000        1.0080           0
   57526 WT3  5055 TIP3 H2   HT     0.417000        1.0080           0
   57527 WT3  5056 TIP3 OH2  OT    -0.834000       15.9994           0
   57528 WT3  5056 TIP3 H1   HT     0.417000        1.0080           0
   57529 WT3  5056 TIP3 H2   HT     0.417000        1.0080           0
   57530 WT3  5061 TIP3 OH2  OT    -0.834000       15.9994           0
   57531 WT3  5061 TIP3 H1   HT     0.417000        1.0080           0
   57532 WT3  5061 TIP3 H2   HT     0.417000        1.0080           0
   57533 WT3  5062 TIP3 OH2  OT    -0.834000       15.9994           0
   57534 WT3  5062 TIP3 H1   HT     0.417000        1.0080           0
   57535 WT3  5062 TIP3 H2   HT     0.417000        1.0080           0
   57536 WT3  5065 TIP3 OH2  OT    -0.834000       15.9994           0
   57537 WT3  5065 TIP3 H1   HT     0.417000        1.0080           0
   57538 WT3  5065 TIP3 H2   HT     0.417000        1.0080           0
   57539 WT3  5066 TIP3 OH2  OT    -0.834000       15.9994           0
   57540 WT3  5066 TIP3 H1   HT     0.417000        1.0080           0
   57541 WT3  5066 TIP3 H2   HT     0.417000        1.0080           0
   57542 WT3  5067 TIP3 OH2  OT    -0.834000       15.9994           0
   57543 WT3  5067 TIP3 H1   HT     0.417000        1.0080           0
   57544 WT3  5067 TIP3 H2   HT     0.417000        1.0080           0
   57545 WT3  5069 TIP3 OH2  OT    -0.834000       15.9994           0
   57546 WT3  5069 TIP3 H1   HT     0.417000        1.0080           0
   57547 WT3  5069 TIP3 H2   HT     0.417000        1.0080           0
   57548 WT3  5070 TIP3 OH2  OT    -0.834000       15.9994           0
   57549 WT3  5070 TIP3 H1   HT     0.417000        1.0080           0
   57550 WT3  5070 TIP3 H2   HT     0.417000        1.0080           0
   57551 WT3  5071 TIP3 OH2  OT    -0.834000       15.9994           0
   57552 WT3  5071 TIP3 H1   HT     0.417000        1.0080           0
   57553 WT3  5071 TIP3 H2   HT     0.417000        1.0080           0
   57554 WT3  5075 TIP3 OH2  OT    -0.834000       15.9994           0
   57555 WT3  5075 TIP3 H1   HT     0.417000        1.0080           0
   57556 WT3  5075 TIP3 H2   HT     0.417000        1.0080           0
   57557 WT3  5085 TIP3 OH2  OT    -0.834000       15.9994           0
   57558 WT3  5085 TIP3 H1   HT     0.417000        1.0080           0
   57559 WT3  5085 TIP3 H2   HT     0.417000        1.0080           0
   57560 WT3  5086 TIP3 OH2  OT    -0.834000       15.9994           0
   57561 WT3  5086 TIP3 H1   HT     0.417000        1.0080           0
   57562 WT3  5086 TIP3 H2   HT     0.417000        1.0080           0
   57563 WT3  5087 TIP3 OH2  OT    -0.834000       15.9994           0
   57564 WT3  5087 TIP3 H1   HT     0.417000        1.0080           0
   57565 WT3  5087 TIP3 H2   HT     0.417000        1.0080           0
   57566 WT3  5088 TIP3 OH2  OT    -0.834000       15.9994           0
   57567 WT3  5088 TIP3 H1   HT     0.417000        1.0080           0
   57568 WT3  5088 TIP3 H2   HT     0.417000        1.0080           0
   57569 WT3  5090 TIP3 OH2  OT    -0.834000       15.9994           0
   57570 WT3  5090 TIP3 H1   HT     0.417000        1.0080           0
   57571 WT3  5090 TIP3 H2   HT     0.417000        1.0080           0
   57572 WT3  5091 TIP3 OH2  OT    -0.834000       15.9994           0
   57573 WT3  5091 TIP3 H1   HT     0.417000        1.0080           0
   57574 WT3  5091 TIP3 H2   HT     0.417000        1.0080           0
   57575 WT3  5092 TIP3 OH2  OT    -0.834000       15.9994           0
   57576 WT3  5092 TIP3 H1   HT     0.417000        1.0080           0
   57577 WT3  5092 TIP3 H2   HT     0.417000        1.0080           0
   57578 WT3  5093 TIP3 OH2  OT    -0.834000       15.9994           0
   57579 WT3  5093 TIP3 H1   HT     0.417000        1.0080           0
   57580 WT3  5093 TIP3 H2   HT     0.417000        1.0080           0
   57581 WT3  5095 TIP3 OH2  OT    -0.834000       15.9994           0
   57582 WT3  5095 TIP3 H1   HT     0.417000        1.0080           0
   57583 WT3  5095 TIP3 H2   HT     0.417000        1.0080           0
   57584 WT3  5097 TIP3 OH2  OT    -0.834000       15.9994           0
   57585 WT3  5097 TIP3 H1   HT     0.417000        1.0080           0
   57586 WT3  5097 TIP3 H2   HT     0.417000        1.0080           0
   57587 WT3  5098 TIP3 OH2  OT    -0.834000       15.9994           0
   57588 WT3  5098 TIP3 H1   HT     0.417000        1.0080           0
   57589 WT3  5098 TIP3 H2   HT     0.417000        1.0080           0
   57590 WT3  5101 TIP3 OH2  OT    -0.834000       15.9994           0
   57591 WT3  5101 TIP3 H1   HT     0.417000        1.0080           0
   57592 WT3  5101 TIP3 H2   HT     0.417000        1.0080           0
   57593 WT3  5104 TIP3 OH2  OT    -0.834000       15.9994           0
   57594 WT3  5104 TIP3 H1   HT     0.417000        1.0080           0
   57595 WT3  5104 TIP3 H2   HT     0.417000        1.0080           0
   57596 WT3  5106 TIP3 OH2  OT    -0.834000       15.9994           0
   57597 WT3  5106 TIP3 H1   HT     0.417000        1.0080           0
   57598 WT3  5106 TIP3 H2   HT     0.417000        1.0080           0
   57599 WT3  5108 TIP3 OH2  OT    -0.834000       15.9994           0
   57600 WT3  5108 TIP3 H1   HT     0.417000        1.0080           0
   57601 WT3  5108 TIP3 H2   HT     0.417000        1.0080           0
   57602 WT3  5109 TIP3 OH2  OT    -0.834000       15.9994           0
   57603 WT3  5109 TIP3 H1   HT     0.417000        1.0080           0
   57604 WT3  5109 TIP3 H2   HT     0.417000        1.0080           0
   57605 WT3  5110 TIP3 OH2  OT    -0.834000       15.9994           0
   57606 WT3  5110 TIP3 H1   HT     0.417000        1.0080           0
   57607 WT3  5110 TIP3 H2   HT     0.417000        1.0080           0
   57608 WT3  5111 TIP3 OH2  OT    -0.834000       15.9994           0
   57609 WT3  5111 TIP3 H1   HT     0.417000        1.0080           0
   57610 WT3  5111 TIP3 H2   HT     0.417000        1.0080           0
   57611 WT3  5112 TIP3 OH2  OT    -0.834000       15.9994           0
   57612 WT3  5112 TIP3 H1   HT     0.417000        1.0080           0
   57613 WT3  5112 TIP3 H2   HT     0.417000        1.0080           0
   57614 WT3  5113 TIP3 OH2  OT    -0.834000       15.9994           0
   57615 WT3  5113 TIP3 H1   HT     0.417000        1.0080           0
   57616 WT3  5113 TIP3 H2   HT     0.417000        1.0080           0
   57617 WT3  5115 TIP3 OH2  OT    -0.834000       15.9994           0
   57618 WT3  5115 TIP3 H1   HT     0.417000        1.0080           0
   57619 WT3  5115 TIP3 H2   HT     0.417000        1.0080           0
   57620 WT3  5117 TIP3 OH2  OT    -0.834000       15.9994           0
   57621 WT3  5117 TIP3 H1   HT     0.417000        1.0080           0
   57622 WT3  5117 TIP3 H2   HT     0.417000        1.0080           0
   57623 WT3  5118 TIP3 OH2  OT    -0.834000       15.9994           0
   57624 WT3  5118 TIP3 H1   HT     0.417000        1.0080           0
   57625 WT3  5118 TIP3 H2   HT     0.417000        1.0080           0
   57626 WT3  5121 TIP3 OH2  OT    -0.834000       15.9994           0
   57627 WT3  5121 TIP3 H1   HT     0.417000        1.0080           0
   57628 WT3  5121 TIP3 H2   HT     0.417000        1.0080           0
   57629 WT3  5125 TIP3 OH2  OT    -0.834000       15.9994           0
   57630 WT3  5125 TIP3 H1   HT     0.417000        1.0080           0
   57631 WT3  5125 TIP3 H2   HT     0.417000        1.0080           0
   57632 WT3  5129 TIP3 OH2  OT    -0.834000       15.9994           0
   57633 WT3  5129 TIP3 H1   HT     0.417000        1.0080           0
   57634 WT3  5129 TIP3 H2   HT     0.417000        1.0080           0
   57635 WT3  5130 TIP3 OH2  OT    -0.834000       15.9994           0
   57636 WT3  5130 TIP3 H1   HT     0.417000        1.0080           0
   57637 WT3  5130 TIP3 H2   HT     0.417000        1.0080           0
   57638 WT3  5131 TIP3 OH2  OT    -0.834000       15.9994           0
   57639 WT3  5131 TIP3 H1   HT     0.417000        1.0080           0
   57640 WT3  5131 TIP3 H2   HT     0.417000        1.0080           0
   57641 WT3  5132 TIP3 OH2  OT    -0.834000       15.9994           0
   57642 WT3  5132 TIP3 H1   HT     0.417000        1.0080           0
   57643 WT3  5132 TIP3 H2   HT     0.417000        1.0080           0
   57644 WT3  5133 TIP3 OH2  OT    -0.834000       15.9994           0
   57645 WT3  5133 TIP3 H1   HT     0.417000        1.0080           0
   57646 WT3  5133 TIP3 H2   HT     0.417000        1.0080           0
   57647 WT3  5134 TIP3 OH2  OT    -0.834000       15.9994           0
   57648 WT3  5134 TIP3 H1   HT     0.417000        1.0080           0
   57649 WT3  5134 TIP3 H2   HT     0.417000        1.0080           0
   57650 WT3  5136 TIP3 OH2  OT    -0.834000       15.9994           0
   57651 WT3  5136 TIP3 H1   HT     0.417000        1.0080           0
   57652 WT3  5136 TIP3 H2   HT     0.417000        1.0080           0
   57653 WT3  5137 TIP3 OH2  OT    -0.834000       15.9994           0
   57654 WT3  5137 TIP3 H1   HT     0.417000        1.0080           0
   57655 WT3  5137 TIP3 H2   HT     0.417000        1.0080           0
   57656 WT3  5138 TIP3 OH2  OT    -0.834000       15.9994           0
   57657 WT3  5138 TIP3 H1   HT     0.417000        1.0080           0
   57658 WT3  5138 TIP3 H2   HT     0.417000        1.0080           0
   57659 WT3  5140 TIP3 OH2  OT    -0.834000       15.9994           0
   57660 WT3  5140 TIP3 H1   HT     0.417000        1.0080           0
   57661 WT3  5140 TIP3 H2   HT     0.417000        1.0080           0
   57662 WT3  5147 TIP3 OH2  OT    -0.834000       15.9994           0
   57663 WT3  5147 TIP3 H1   HT     0.417000        1.0080           0
   57664 WT3  5147 TIP3 H2   HT     0.417000        1.0080           0
   57665 WT3  5148 TIP3 OH2  OT    -0.834000       15.9994           0
   57666 WT3  5148 TIP3 H1   HT     0.417000        1.0080           0
   57667 WT3  5148 TIP3 H2   HT     0.417000        1.0080           0
   57668 WT3  5149 TIP3 OH2  OT    -0.834000       15.9994           0
   57669 WT3  5149 TIP3 H1   HT     0.417000        1.0080           0
   57670 WT3  5149 TIP3 H2   HT     0.417000        1.0080           0
   57671 WT3  5150 TIP3 OH2  OT    -0.834000       15.9994           0
   57672 WT3  5150 TIP3 H1   HT     0.417000        1.0080           0
   57673 WT3  5150 TIP3 H2   HT     0.417000        1.0080           0
   57674 WT3  5151 TIP3 OH2  OT    -0.834000       15.9994           0
   57675 WT3  5151 TIP3 H1   HT     0.417000        1.0080           0
   57676 WT3  5151 TIP3 H2   HT     0.417000        1.0080           0
   57677 WT3  5153 TIP3 OH2  OT    -0.834000       15.9994           0
   57678 WT3  5153 TIP3 H1   HT     0.417000        1.0080           0
   57679 WT3  5153 TIP3 H2   HT     0.417000        1.0080           0
   57680 WT3  5154 TIP3 OH2  OT    -0.834000       15.9994           0
   57681 WT3  5154 TIP3 H1   HT     0.417000        1.0080           0
   57682 WT3  5154 TIP3 H2   HT     0.417000        1.0080           0
   57683 WT3  5155 TIP3 OH2  OT    -0.834000       15.9994           0
   57684 WT3  5155 TIP3 H1   HT     0.417000        1.0080           0
   57685 WT3  5155 TIP3 H2   HT     0.417000        1.0080           0
   57686 WT3  5156 TIP3 OH2  OT    -0.834000       15.9994           0
   57687 WT3  5156 TIP3 H1   HT     0.417000        1.0080           0
   57688 WT3  5156 TIP3 H2   HT     0.417000        1.0080           0
   57689 WT3  5157 TIP3 OH2  OT    -0.834000       15.9994           0
   57690 WT3  5157 TIP3 H1   HT     0.417000        1.0080           0
   57691 WT3  5157 TIP3 H2   HT     0.417000        1.0080           0
   57692 WT3  5158 TIP3 OH2  OT    -0.834000       15.9994           0
   57693 WT3  5158 TIP3 H1   HT     0.417000        1.0080           0
   57694 WT3  5158 TIP3 H2   HT     0.417000        1.0080           0
   57695 WT3  5161 TIP3 OH2  OT    -0.834000       15.9994           0
   57696 WT3  5161 TIP3 H1   HT     0.417000        1.0080           0
   57697 WT3  5161 TIP3 H2   HT     0.417000        1.0080           0
   57698 WT3  5166 TIP3 OH2  OT    -0.834000       15.9994           0
   57699 WT3  5166 TIP3 H1   HT     0.417000        1.0080           0
   57700 WT3  5166 TIP3 H2   HT     0.417000        1.0080           0
   57701 WT3  5168 TIP3 OH2  OT    -0.834000       15.9994           0
   57702 WT3  5168 TIP3 H1   HT     0.417000        1.0080           0
   57703 WT3  5168 TIP3 H2   HT     0.417000        1.0080           0
   57704 WT3  5171 TIP3 OH2  OT    -0.834000       15.9994           0
   57705 WT3  5171 TIP3 H1   HT     0.417000        1.0080           0
   57706 WT3  5171 TIP3 H2   HT     0.417000        1.0080           0
   57707 WT3  5172 TIP3 OH2  OT    -0.834000       15.9994           0
   57708 WT3  5172 TIP3 H1   HT     0.417000        1.0080           0
   57709 WT3  5172 TIP3 H2   HT     0.417000        1.0080           0
   57710 WT3  5173 TIP3 OH2  OT    -0.834000       15.9994           0
   57711 WT3  5173 TIP3 H1   HT     0.417000        1.0080           0
   57712 WT3  5173 TIP3 H2   HT     0.417000        1.0080           0
   57713 WT3  5174 TIP3 OH2  OT    -0.834000       15.9994           0
   57714 WT3  5174 TIP3 H1   HT     0.417000        1.0080           0
   57715 WT3  5174 TIP3 H2   HT     0.417000        1.0080           0
   57716 WT3  5175 TIP3 OH2  OT    -0.834000       15.9994           0
   57717 WT3  5175 TIP3 H1   HT     0.417000        1.0080           0
   57718 WT3  5175 TIP3 H2   HT     0.417000        1.0080           0
   57719 WT3  5176 TIP3 OH2  OT    -0.834000       15.9994           0
   57720 WT3  5176 TIP3 H1   HT     0.417000        1.0080           0
   57721 WT3  5176 TIP3 H2   HT     0.417000        1.0080           0
   57722 WT3  5177 TIP3 OH2  OT    -0.834000       15.9994           0
   57723 WT3  5177 TIP3 H1   HT     0.417000        1.0080           0
   57724 WT3  5177 TIP3 H2   HT     0.417000        1.0080           0
   57725 WT3  5178 TIP3 OH2  OT    -0.834000       15.9994           0
   57726 WT3  5178 TIP3 H1   HT     0.417000        1.0080           0
   57727 WT3  5178 TIP3 H2   HT     0.417000        1.0080           0
   57728 WT3  5179 TIP3 OH2  OT    -0.834000       15.9994           0
   57729 WT3  5179 TIP3 H1   HT     0.417000        1.0080           0
   57730 WT3  5179 TIP3 H2   HT     0.417000        1.0080           0
   57731 WT3  5180 TIP3 OH2  OT    -0.834000       15.9994           0
   57732 WT3  5180 TIP3 H1   HT     0.417000        1.0080           0
   57733 WT3  5180 TIP3 H2   HT     0.417000        1.0080           0
   57734 WT3  5182 TIP3 OH2  OT    -0.834000       15.9994           0
   57735 WT3  5182 TIP3 H1   HT     0.417000        1.0080           0
   57736 WT3  5182 TIP3 H2   HT     0.417000        1.0080           0
   57737 WT3  5186 TIP3 OH2  OT    -0.834000       15.9994           0
   57738 WT3  5186 TIP3 H1   HT     0.417000        1.0080           0
   57739 WT3  5186 TIP3 H2   HT     0.417000        1.0080           0
   57740 WT3  5189 TIP3 OH2  OT    -0.834000       15.9994           0
   57741 WT3  5189 TIP3 H1   HT     0.417000        1.0080           0
   57742 WT3  5189 TIP3 H2   HT     0.417000        1.0080           0
   57743 WT3  5190 TIP3 OH2  OT    -0.834000       15.9994           0
   57744 WT3  5190 TIP3 H1   HT     0.417000        1.0080           0
   57745 WT3  5190 TIP3 H2   HT     0.417000        1.0080           0
   57746 WT3  5191 TIP3 OH2  OT    -0.834000       15.9994           0
   57747 WT3  5191 TIP3 H1   HT     0.417000        1.0080           0
   57748 WT3  5191 TIP3 H2   HT     0.417000        1.0080           0
   57749 WT3  5192 TIP3 OH2  OT    -0.834000       15.9994           0
   57750 WT3  5192 TIP3 H1   HT     0.417000        1.0080           0
   57751 WT3  5192 TIP3 H2   HT     0.417000        1.0080           0
   57752 WT3  5194 TIP3 OH2  OT    -0.834000       15.9994           0
   57753 WT3  5194 TIP3 H1   HT     0.417000        1.0080           0
   57754 WT3  5194 TIP3 H2   HT     0.417000        1.0080           0
   57755 WT3  5195 TIP3 OH2  OT    -0.834000       15.9994           0
   57756 WT3  5195 TIP3 H1   HT     0.417000        1.0080           0
   57757 WT3  5195 TIP3 H2   HT     0.417000        1.0080           0
   57758 WT3  5196 TIP3 OH2  OT    -0.834000       15.9994           0
   57759 WT3  5196 TIP3 H1   HT     0.417000        1.0080           0
   57760 WT3  5196 TIP3 H2   HT     0.417000        1.0080           0
   57761 WT3  5197 TIP3 OH2  OT    -0.834000       15.9994           0
   57762 WT3  5197 TIP3 H1   HT     0.417000        1.0080           0
   57763 WT3  5197 TIP3 H2   HT     0.417000        1.0080           0
   57764 WT3  5198 TIP3 OH2  OT    -0.834000       15.9994           0
   57765 WT3  5198 TIP3 H1   HT     0.417000        1.0080           0
   57766 WT3  5198 TIP3 H2   HT     0.417000        1.0080           0
   57767 WT3  5199 TIP3 OH2  OT    -0.834000       15.9994           0
   57768 WT3  5199 TIP3 H1   HT     0.417000        1.0080           0
   57769 WT3  5199 TIP3 H2   HT     0.417000        1.0080           0
   57770 WT3  5200 TIP3 OH2  OT    -0.834000       15.9994           0
   57771 WT3  5200 TIP3 H1   HT     0.417000        1.0080           0
   57772 WT3  5200 TIP3 H2   HT     0.417000        1.0080           0
   57773 WT3  5201 TIP3 OH2  OT    -0.834000       15.9994           0
   57774 WT3  5201 TIP3 H1   HT     0.417000        1.0080           0
   57775 WT3  5201 TIP3 H2   HT     0.417000        1.0080           0
   57776 WT3  5205 TIP3 OH2  OT    -0.834000       15.9994           0
   57777 WT3  5205 TIP3 H1   HT     0.417000        1.0080           0
   57778 WT3  5205 TIP3 H2   HT     0.417000        1.0080           0
   57779 WT3  5206 TIP3 OH2  OT    -0.834000       15.9994           0
   57780 WT3  5206 TIP3 H1   HT     0.417000        1.0080           0
   57781 WT3  5206 TIP3 H2   HT     0.417000        1.0080           0
   57782 WT3  5211 TIP3 OH2  OT    -0.834000       15.9994           0
   57783 WT3  5211 TIP3 H1   HT     0.417000        1.0080           0
   57784 WT3  5211 TIP3 H2   HT     0.417000        1.0080           0
   57785 WT3  5212 TIP3 OH2  OT    -0.834000       15.9994           0
   57786 WT3  5212 TIP3 H1   HT     0.417000        1.0080           0
   57787 WT3  5212 TIP3 H2   HT     0.417000        1.0080           0
   57788 WT3  5214 TIP3 OH2  OT    -0.834000       15.9994           0
   57789 WT3  5214 TIP3 H1   HT     0.417000        1.0080           0
   57790 WT3  5214 TIP3 H2   HT     0.417000        1.0080           0
   57791 WT3  5216 TIP3 OH2  OT    -0.834000       15.9994           0
   57792 WT3  5216 TIP3 H1   HT     0.417000        1.0080           0
   57793 WT3  5216 TIP3 H2   HT     0.417000        1.0080           0
   57794 WT3  5217 TIP3 OH2  OT    -0.834000       15.9994           0
   57795 WT3  5217 TIP3 H1   HT     0.417000        1.0080           0
   57796 WT3  5217 TIP3 H2   HT     0.417000        1.0080           0
   57797 WT3  5218 TIP3 OH2  OT    -0.834000       15.9994           0
   57798 WT3  5218 TIP3 H1   HT     0.417000        1.0080           0
   57799 WT3  5218 TIP3 H2   HT     0.417000        1.0080           0
   57800 WT3  5220 TIP3 OH2  OT    -0.834000       15.9994           0
   57801 WT3  5220 TIP3 H1   HT     0.417000        1.0080           0
   57802 WT3  5220 TIP3 H2   HT     0.417000        1.0080           0
   57803 WT3  5221 TIP3 OH2  OT    -0.834000       15.9994           0
   57804 WT3  5221 TIP3 H1   HT     0.417000        1.0080           0
   57805 WT3  5221 TIP3 H2   HT     0.417000        1.0080           0
   57806 WT3  5223 TIP3 OH2  OT    -0.834000       15.9994           0
   57807 WT3  5223 TIP3 H1   HT     0.417000        1.0080           0
   57808 WT3  5223 TIP3 H2   HT     0.417000        1.0080           0
   57809 WT3  5224 TIP3 OH2  OT    -0.834000       15.9994           0
   57810 WT3  5224 TIP3 H1   HT     0.417000        1.0080           0
   57811 WT3  5224 TIP3 H2   HT     0.417000        1.0080           0
   57812 WT3  5230 TIP3 OH2  OT    -0.834000       15.9994           0
   57813 WT3  5230 TIP3 H1   HT     0.417000        1.0080           0
   57814 WT3  5230 TIP3 H2   HT     0.417000        1.0080           0
   57815 WT3  5232 TIP3 OH2  OT    -0.834000       15.9994           0
   57816 WT3  5232 TIP3 H1   HT     0.417000        1.0080           0
   57817 WT3  5232 TIP3 H2   HT     0.417000        1.0080           0
   57818 WT3  5233 TIP3 OH2  OT    -0.834000       15.9994           0
   57819 WT3  5233 TIP3 H1   HT     0.417000        1.0080           0
   57820 WT3  5233 TIP3 H2   HT     0.417000        1.0080           0
   57821 WT3  5235 TIP3 OH2  OT    -0.834000       15.9994           0
   57822 WT3  5235 TIP3 H1   HT     0.417000        1.0080           0
   57823 WT3  5235 TIP3 H2   HT     0.417000        1.0080           0
   57824 WT3  5236 TIP3 OH2  OT    -0.834000       15.9994           0
   57825 WT3  5236 TIP3 H1   HT     0.417000        1.0080           0
   57826 WT3  5236 TIP3 H2   HT     0.417000        1.0080           0
   57827 WT3  5237 TIP3 OH2  OT    -0.834000       15.9994           0
   57828 WT3  5237 TIP3 H1   HT     0.417000        1.0080           0
   57829 WT3  5237 TIP3 H2   HT     0.417000        1.0080           0
   57830 WT3  5238 TIP3 OH2  OT    -0.834000       15.9994           0
   57831 WT3  5238 TIP3 H1   HT     0.417000        1.0080           0
   57832 WT3  5238 TIP3 H2   HT     0.417000        1.0080           0
   57833 WT3  5239 TIP3 OH2  OT    -0.834000       15.9994           0
   57834 WT3  5239 TIP3 H1   HT     0.417000        1.0080           0
   57835 WT3  5239 TIP3 H2   HT     0.417000        1.0080           0
   57836 WT3  5240 TIP3 OH2  OT    -0.834000       15.9994           0
   57837 WT3  5240 TIP3 H1   HT     0.417000        1.0080           0
   57838 WT3  5240 TIP3 H2   HT     0.417000        1.0080           0
   57839 WT3  5242 TIP3 OH2  OT    -0.834000       15.9994           0
   57840 WT3  5242 TIP3 H1   HT     0.417000        1.0080           0
   57841 WT3  5242 TIP3 H2   HT     0.417000        1.0080           0
   57842 WT3  5244 TIP3 OH2  OT    -0.834000       15.9994           0
   57843 WT3  5244 TIP3 H1   HT     0.417000        1.0080           0
   57844 WT3  5244 TIP3 H2   HT     0.417000        1.0080           0
   57845 WT3  5251 TIP3 OH2  OT    -0.834000       15.9994           0
   57846 WT3  5251 TIP3 H1   HT     0.417000        1.0080           0
   57847 WT3  5251 TIP3 H2   HT     0.417000        1.0080           0
   57848 WT3  5253 TIP3 OH2  OT    -0.834000       15.9994           0
   57849 WT3  5253 TIP3 H1   HT     0.417000        1.0080           0
   57850 WT3  5253 TIP3 H2   HT     0.417000        1.0080           0
   57851 WT3  5255 TIP3 OH2  OT    -0.834000       15.9994           0
   57852 WT3  5255 TIP3 H1   HT     0.417000        1.0080           0
   57853 WT3  5255 TIP3 H2   HT     0.417000        1.0080           0
   57854 WT3  5256 TIP3 OH2  OT    -0.834000       15.9994           0
   57855 WT3  5256 TIP3 H1   HT     0.417000        1.0080           0
   57856 WT3  5256 TIP3 H2   HT     0.417000        1.0080           0
   57857 WT3  5257 TIP3 OH2  OT    -0.834000       15.9994           0
   57858 WT3  5257 TIP3 H1   HT     0.417000        1.0080           0
   57859 WT3  5257 TIP3 H2   HT     0.417000        1.0080           0
   57860 WT3  5258 TIP3 OH2  OT    -0.834000       15.9994           0
   57861 WT3  5258 TIP3 H1   HT     0.417000        1.0080           0
   57862 WT3  5258 TIP3 H2   HT     0.417000        1.0080           0
   57863 WT3  5259 TIP3 OH2  OT    -0.834000       15.9994           0
   57864 WT3  5259 TIP3 H1   HT     0.417000        1.0080           0
   57865 WT3  5259 TIP3 H2   HT     0.417000        1.0080           0
   57866 WT3  5261 TIP3 OH2  OT    -0.834000       15.9994           0
   57867 WT3  5261 TIP3 H1   HT     0.417000        1.0080           0
   57868 WT3  5261 TIP3 H2   HT     0.417000        1.0080           0
   57869 WT3  5262 TIP3 OH2  OT    -0.834000       15.9994           0
   57870 WT3  5262 TIP3 H1   HT     0.417000        1.0080           0
   57871 WT3  5262 TIP3 H2   HT     0.417000        1.0080           0
   57872 WT3  5263 TIP3 OH2  OT    -0.834000       15.9994           0
   57873 WT3  5263 TIP3 H1   HT     0.417000        1.0080           0
   57874 WT3  5263 TIP3 H2   HT     0.417000        1.0080           0
   57875 WT3  5270 TIP3 OH2  OT    -0.834000       15.9994           0
   57876 WT3  5270 TIP3 H1   HT     0.417000        1.0080           0
   57877 WT3  5270 TIP3 H2   HT     0.417000        1.0080           0
   57878 WT3  5271 TIP3 OH2  OT    -0.834000       15.9994           0
   57879 WT3  5271 TIP3 H1   HT     0.417000        1.0080           0
   57880 WT3  5271 TIP3 H2   HT     0.417000        1.0080           0
   57881 WT3  5272 TIP3 OH2  OT    -0.834000       15.9994           0
   57882 WT3  5272 TIP3 H1   HT     0.417000        1.0080           0
   57883 WT3  5272 TIP3 H2   HT     0.417000        1.0080           0
   57884 WT3  5274 TIP3 OH2  OT    -0.834000       15.9994           0
   57885 WT3  5274 TIP3 H1   HT     0.417000        1.0080           0
   57886 WT3  5274 TIP3 H2   HT     0.417000        1.0080           0
   57887 WT3  5275 TIP3 OH2  OT    -0.834000       15.9994           0
   57888 WT3  5275 TIP3 H1   HT     0.417000        1.0080           0
   57889 WT3  5275 TIP3 H2   HT     0.417000        1.0080           0
   57890 WT3  5277 TIP3 OH2  OT    -0.834000       15.9994           0
   57891 WT3  5277 TIP3 H1   HT     0.417000        1.0080           0
   57892 WT3  5277 TIP3 H2   HT     0.417000        1.0080           0
   57893 WT3  5278 TIP3 OH2  OT    -0.834000       15.9994           0
   57894 WT3  5278 TIP3 H1   HT     0.417000        1.0080           0
   57895 WT3  5278 TIP3 H2   HT     0.417000        1.0080           0
   57896 WT3  5279 TIP3 OH2  OT    -0.834000       15.9994           0
   57897 WT3  5279 TIP3 H1   HT     0.417000        1.0080           0
   57898 WT3  5279 TIP3 H2   HT     0.417000        1.0080           0
   57899 WT3  5280 TIP3 OH2  OT    -0.834000       15.9994           0
   57900 WT3  5280 TIP3 H1   HT     0.417000        1.0080           0
   57901 WT3  5280 TIP3 H2   HT     0.417000        1.0080           0
   57902 WT3  5281 TIP3 OH2  OT    -0.834000       15.9994           0
   57903 WT3  5281 TIP3 H1   HT     0.417000        1.0080           0
   57904 WT3  5281 TIP3 H2   HT     0.417000        1.0080           0
   57905 WT3  5282 TIP3 OH2  OT    -0.834000       15.9994           0
   57906 WT3  5282 TIP3 H1   HT     0.417000        1.0080           0
   57907 WT3  5282 TIP3 H2   HT     0.417000        1.0080           0
   57908 WT3  5287 TIP3 OH2  OT    -0.834000       15.9994           0
   57909 WT3  5287 TIP3 H1   HT     0.417000        1.0080           0
   57910 WT3  5287 TIP3 H2   HT     0.417000        1.0080           0
   57911 WT3  5292 TIP3 OH2  OT    -0.834000       15.9994           0
   57912 WT3  5292 TIP3 H1   HT     0.417000        1.0080           0
   57913 WT3  5292 TIP3 H2   HT     0.417000        1.0080           0
   57914 WT3  5293 TIP3 OH2  OT    -0.834000       15.9994           0
   57915 WT3  5293 TIP3 H1   HT     0.417000        1.0080           0
   57916 WT3  5293 TIP3 H2   HT     0.417000        1.0080           0
   57917 WT3  5294 TIP3 OH2  OT    -0.834000       15.9994           0
   57918 WT3  5294 TIP3 H1   HT     0.417000        1.0080           0
   57919 WT3  5294 TIP3 H2   HT     0.417000        1.0080           0
   57920 WT3  5295 TIP3 OH2  OT    -0.834000       15.9994           0
   57921 WT3  5295 TIP3 H1   HT     0.417000        1.0080           0
   57922 WT3  5295 TIP3 H2   HT     0.417000        1.0080           0
   57923 WT3  5296 TIP3 OH2  OT    -0.834000       15.9994           0
   57924 WT3  5296 TIP3 H1   HT     0.417000        1.0080           0
   57925 WT3  5296 TIP3 H2   HT     0.417000        1.0080           0
   57926 WT3  5297 TIP3 OH2  OT    -0.834000       15.9994           0
   57927 WT3  5297 TIP3 H1   HT     0.417000        1.0080           0
   57928 WT3  5297 TIP3 H2   HT     0.417000        1.0080           0
   57929 WT3  5298 TIP3 OH2  OT    -0.834000       15.9994           0
   57930 WT3  5298 TIP3 H1   HT     0.417000        1.0080           0
   57931 WT3  5298 TIP3 H2   HT     0.417000        1.0080           0
   57932 WT3  5299 TIP3 OH2  OT    -0.834000       15.9994           0
   57933 WT3  5299 TIP3 H1   HT     0.417000        1.0080           0
   57934 WT3  5299 TIP3 H2   HT     0.417000        1.0080           0
   57935 WT3  5300 TIP3 OH2  OT    -0.834000       15.9994           0
   57936 WT3  5300 TIP3 H1   HT     0.417000        1.0080           0
   57937 WT3  5300 TIP3 H2   HT     0.417000        1.0080           0
   57938 WT3  5301 TIP3 OH2  OT    -0.834000       15.9994           0
   57939 WT3  5301 TIP3 H1   HT     0.417000        1.0080           0
   57940 WT3  5301 TIP3 H2   HT     0.417000        1.0080           0
   57941 WT3  5302 TIP3 OH2  OT    -0.834000       15.9994           0
   57942 WT3  5302 TIP3 H1   HT     0.417000        1.0080           0
   57943 WT3  5302 TIP3 H2   HT     0.417000        1.0080           0
   57944 WT3  5303 TIP3 OH2  OT    -0.834000       15.9994           0
   57945 WT3  5303 TIP3 H1   HT     0.417000        1.0080           0
   57946 WT3  5303 TIP3 H2   HT     0.417000        1.0080           0
   57947 WT3  5304 TIP3 OH2  OT    -0.834000       15.9994           0
   57948 WT3  5304 TIP3 H1   HT     0.417000        1.0080           0
   57949 WT3  5304 TIP3 H2   HT     0.417000        1.0080           0
   57950 WT3  5305 TIP3 OH2  OT    -0.834000       15.9994           0
   57951 WT3  5305 TIP3 H1   HT     0.417000        1.0080           0
   57952 WT3  5305 TIP3 H2   HT     0.417000        1.0080           0
   57953 WT3  5306 TIP3 OH2  OT    -0.834000       15.9994           0
   57954 WT3  5306 TIP3 H1   HT     0.417000        1.0080           0
   57955 WT3  5306 TIP3 H2   HT     0.417000        1.0080           0
   57956 WT3  5307 TIP3 OH2  OT    -0.834000       15.9994           0
   57957 WT3  5307 TIP3 H1   HT     0.417000        1.0080           0
   57958 WT3  5307 TIP3 H2   HT     0.417000        1.0080           0
   57959 WT3  5315 TIP3 OH2  OT    -0.834000       15.9994           0
   57960 WT3  5315 TIP3 H1   HT     0.417000        1.0080           0
   57961 WT3  5315 TIP3 H2   HT     0.417000        1.0080           0
   57962 WT3  5317 TIP3 OH2  OT    -0.834000       15.9994           0
   57963 WT3  5317 TIP3 H1   HT     0.417000        1.0080           0
   57964 WT3  5317 TIP3 H2   HT     0.417000        1.0080           0
   57965 WT3  5319 TIP3 OH2  OT    -0.834000       15.9994           0
   57966 WT3  5319 TIP3 H1   HT     0.417000        1.0080           0
   57967 WT3  5319 TIP3 H2   HT     0.417000        1.0080           0
   57968 WT3  5320 TIP3 OH2  OT    -0.834000       15.9994           0
   57969 WT3  5320 TIP3 H1   HT     0.417000        1.0080           0
   57970 WT3  5320 TIP3 H2   HT     0.417000        1.0080           0
   57971 WT3  5321 TIP3 OH2  OT    -0.834000       15.9994           0
   57972 WT3  5321 TIP3 H1   HT     0.417000        1.0080           0
   57973 WT3  5321 TIP3 H2   HT     0.417000        1.0080           0
   57974 WT3  5322 TIP3 OH2  OT    -0.834000       15.9994           0
   57975 WT3  5322 TIP3 H1   HT     0.417000        1.0080           0
   57976 WT3  5322 TIP3 H2   HT     0.417000        1.0080           0
   57977 WT3  5323 TIP3 OH2  OT    -0.834000       15.9994           0
   57978 WT3  5323 TIP3 H1   HT     0.417000        1.0080           0
   57979 WT3  5323 TIP3 H2   HT     0.417000        1.0080           0
   57980 WT3  5324 TIP3 OH2  OT    -0.834000       15.9994           0
   57981 WT3  5324 TIP3 H1   HT     0.417000        1.0080           0
   57982 WT3  5324 TIP3 H2   HT     0.417000        1.0080           0
   57983 WT3  5325 TIP3 OH2  OT    -0.834000       15.9994           0
   57984 WT3  5325 TIP3 H1   HT     0.417000        1.0080           0
   57985 WT3  5325 TIP3 H2   HT     0.417000        1.0080           0
   57986 WT3  5327 TIP3 OH2  OT    -0.834000       15.9994           0
   57987 WT3  5327 TIP3 H1   HT     0.417000        1.0080           0
   57988 WT3  5327 TIP3 H2   HT     0.417000        1.0080           0
   57989 WT3  5330 TIP3 OH2  OT    -0.834000       15.9994           0
   57990 WT3  5330 TIP3 H1   HT     0.417000        1.0080           0
   57991 WT3  5330 TIP3 H2   HT     0.417000        1.0080           0
   57992 WT3  5335 TIP3 OH2  OT    -0.834000       15.9994           0
   57993 WT3  5335 TIP3 H1   HT     0.417000        1.0080           0
   57994 WT3  5335 TIP3 H2   HT     0.417000        1.0080           0
   57995 WT3  5337 TIP3 OH2  OT    -0.834000       15.9994           0
   57996 WT3  5337 TIP3 H1   HT     0.417000        1.0080           0
   57997 WT3  5337 TIP3 H2   HT     0.417000        1.0080           0
   57998 WT3  5339 TIP3 OH2  OT    -0.834000       15.9994           0
   57999 WT3  5339 TIP3 H1   HT     0.417000        1.0080           0
   58000 WT3  5339 TIP3 H2   HT     0.417000        1.0080           0
   58001 WT3  5342 TIP3 OH2  OT    -0.834000       15.9994           0
   58002 WT3  5342 TIP3 H1   HT     0.417000        1.0080           0
   58003 WT3  5342 TIP3 H2   HT     0.417000        1.0080           0
   58004 WT3  5343 TIP3 OH2  OT    -0.834000       15.9994           0
   58005 WT3  5343 TIP3 H1   HT     0.417000        1.0080           0
   58006 WT3  5343 TIP3 H2   HT     0.417000        1.0080           0
   58007 WT3  5345 TIP3 OH2  OT    -0.834000       15.9994           0
   58008 WT3  5345 TIP3 H1   HT     0.417000        1.0080           0
   58009 WT3  5345 TIP3 H2   HT     0.417000        1.0080           0
   58010 WT3  5346 TIP3 OH2  OT    -0.834000       15.9994           0
   58011 WT3  5346 TIP3 H1   HT     0.417000        1.0080           0
   58012 WT3  5346 TIP3 H2   HT     0.417000        1.0080           0
   58013 WT3  5347 TIP3 OH2  OT    -0.834000       15.9994           0
   58014 WT3  5347 TIP3 H1   HT     0.417000        1.0080           0
   58015 WT3  5347 TIP3 H2   HT     0.417000        1.0080           0
   58016 WT3  5348 TIP3 OH2  OT    -0.834000       15.9994           0
   58017 WT3  5348 TIP3 H1   HT     0.417000        1.0080           0
   58018 WT3  5348 TIP3 H2   HT     0.417000        1.0080           0
   58019 WT3  5349 TIP3 OH2  OT    -0.834000       15.9994           0
   58020 WT3  5349 TIP3 H1   HT     0.417000        1.0080           0
   58021 WT3  5349 TIP3 H2   HT     0.417000        1.0080           0
   58022 WT3  5355 TIP3 OH2  OT    -0.834000       15.9994           0
   58023 WT3  5355 TIP3 H1   HT     0.417000        1.0080           0
   58024 WT3  5355 TIP3 H2   HT     0.417000        1.0080           0
   58025 WT3  5356 TIP3 OH2  OT    -0.834000       15.9994           0
   58026 WT3  5356 TIP3 H1   HT     0.417000        1.0080           0
   58027 WT3  5356 TIP3 H2   HT     0.417000        1.0080           0
   58028 WT3  5358 TIP3 OH2  OT    -0.834000       15.9994           0
   58029 WT3  5358 TIP3 H1   HT     0.417000        1.0080           0
   58030 WT3  5358 TIP3 H2   HT     0.417000        1.0080           0
   58031 WT3  5359 TIP3 OH2  OT    -0.834000       15.9994           0
   58032 WT3  5359 TIP3 H1   HT     0.417000        1.0080           0
   58033 WT3  5359 TIP3 H2   HT     0.417000        1.0080           0
   58034 WT3  5360 TIP3 OH2  OT    -0.834000       15.9994           0
   58035 WT3  5360 TIP3 H1   HT     0.417000        1.0080           0
   58036 WT3  5360 TIP3 H2   HT     0.417000        1.0080           0
   58037 WT3  5362 TIP3 OH2  OT    -0.834000       15.9994           0
   58038 WT3  5362 TIP3 H1   HT     0.417000        1.0080           0
   58039 WT3  5362 TIP3 H2   HT     0.417000        1.0080           0
   58040 WT3  5365 TIP3 OH2  OT    -0.834000       15.9994           0
   58041 WT3  5365 TIP3 H1   HT     0.417000        1.0080           0
   58042 WT3  5365 TIP3 H2   HT     0.417000        1.0080           0
   58043 WT3  5366 TIP3 OH2  OT    -0.834000       15.9994           0
   58044 WT3  5366 TIP3 H1   HT     0.417000        1.0080           0
   58045 WT3  5366 TIP3 H2   HT     0.417000        1.0080           0
   58046 WT3  5367 TIP3 OH2  OT    -0.834000       15.9994           0
   58047 WT3  5367 TIP3 H1   HT     0.417000        1.0080           0
   58048 WT3  5367 TIP3 H2   HT     0.417000        1.0080           0
   58049 WT3  5368 TIP3 OH2  OT    -0.834000       15.9994           0
   58050 WT3  5368 TIP3 H1   HT     0.417000        1.0080           0
   58051 WT3  5368 TIP3 H2   HT     0.417000        1.0080           0
   58052 WT3  5370 TIP3 OH2  OT    -0.834000       15.9994           0
   58053 WT3  5370 TIP3 H1   HT     0.417000        1.0080           0
   58054 WT3  5370 TIP3 H2   HT     0.417000        1.0080           0
   58055 WT3  5371 TIP3 OH2  OT    -0.834000       15.9994           0
   58056 WT3  5371 TIP3 H1   HT     0.417000        1.0080           0
   58057 WT3  5371 TIP3 H2   HT     0.417000        1.0080           0
   58058 WT3  5377 TIP3 OH2  OT    -0.834000       15.9994           0
   58059 WT3  5377 TIP3 H1   HT     0.417000        1.0080           0
   58060 WT3  5377 TIP3 H2   HT     0.417000        1.0080           0
   58061 WT3  5378 TIP3 OH2  OT    -0.834000       15.9994           0
   58062 WT3  5378 TIP3 H1   HT     0.417000        1.0080           0
   58063 WT3  5378 TIP3 H2   HT     0.417000        1.0080           0
   58064 WT3  5379 TIP3 OH2  OT    -0.834000       15.9994           0
   58065 WT3  5379 TIP3 H1   HT     0.417000        1.0080           0
   58066 WT3  5379 TIP3 H2   HT     0.417000        1.0080           0
   58067 WT3  5380 TIP3 OH2  OT    -0.834000       15.9994           0
   58068 WT3  5380 TIP3 H1   HT     0.417000        1.0080           0
   58069 WT3  5380 TIP3 H2   HT     0.417000        1.0080           0
   58070 WT3  5381 TIP3 OH2  OT    -0.834000       15.9994           0
   58071 WT3  5381 TIP3 H1   HT     0.417000        1.0080           0
   58072 WT3  5381 TIP3 H2   HT     0.417000        1.0080           0
   58073 WT3  5383 TIP3 OH2  OT    -0.834000       15.9994           0
   58074 WT3  5383 TIP3 H1   HT     0.417000        1.0080           0
   58075 WT3  5383 TIP3 H2   HT     0.417000        1.0080           0
   58076 WT3  5384 TIP3 OH2  OT    -0.834000       15.9994           0
   58077 WT3  5384 TIP3 H1   HT     0.417000        1.0080           0
   58078 WT3  5384 TIP3 H2   HT     0.417000        1.0080           0
   58079 WT3  5385 TIP3 OH2  OT    -0.834000       15.9994           0
   58080 WT3  5385 TIP3 H1   HT     0.417000        1.0080           0
   58081 WT3  5385 TIP3 H2   HT     0.417000        1.0080           0
   58082 WT3  5386 TIP3 OH2  OT    -0.834000       15.9994           0
   58083 WT3  5386 TIP3 H1   HT     0.417000        1.0080           0
   58084 WT3  5386 TIP3 H2   HT     0.417000        1.0080           0
   58085 WT3  5387 TIP3 OH2  OT    -0.834000       15.9994           0
   58086 WT3  5387 TIP3 H1   HT     0.417000        1.0080           0
   58087 WT3  5387 TIP3 H2   HT     0.417000        1.0080           0
   58088 WT3  5389 TIP3 OH2  OT    -0.834000       15.9994           0
   58089 WT3  5389 TIP3 H1   HT     0.417000        1.0080           0
   58090 WT3  5389 TIP3 H2   HT     0.417000        1.0080           0
   58091 WT3  5390 TIP3 OH2  OT    -0.834000       15.9994           0
   58092 WT3  5390 TIP3 H1   HT     0.417000        1.0080           0
   58093 WT3  5390 TIP3 H2   HT     0.417000        1.0080           0
   58094 WT3  5393 TIP3 OH2  OT    -0.834000       15.9994           0
   58095 WT3  5393 TIP3 H1   HT     0.417000        1.0080           0
   58096 WT3  5393 TIP3 H2   HT     0.417000        1.0080           0
   58097 WT3  5396 TIP3 OH2  OT    -0.834000       15.9994           0
   58098 WT3  5396 TIP3 H1   HT     0.417000        1.0080           0
   58099 WT3  5396 TIP3 H2   HT     0.417000        1.0080           0
   58100 WT3  5399 TIP3 OH2  OT    -0.834000       15.9994           0
   58101 WT3  5399 TIP3 H1   HT     0.417000        1.0080           0
   58102 WT3  5399 TIP3 H2   HT     0.417000        1.0080           0
   58103 WT3  5400 TIP3 OH2  OT    -0.834000       15.9994           0
   58104 WT3  5400 TIP3 H1   HT     0.417000        1.0080           0
   58105 WT3  5400 TIP3 H2   HT     0.417000        1.0080           0
   58106 WT3  5401 TIP3 OH2  OT    -0.834000       15.9994           0
   58107 WT3  5401 TIP3 H1   HT     0.417000        1.0080           0
   58108 WT3  5401 TIP3 H2   HT     0.417000        1.0080           0
   58109 WT3  5402 TIP3 OH2  OT    -0.834000       15.9994           0
   58110 WT3  5402 TIP3 H1   HT     0.417000        1.0080           0
   58111 WT3  5402 TIP3 H2   HT     0.417000        1.0080           0
   58112 WT3  5403 TIP3 OH2  OT    -0.834000       15.9994           0
   58113 WT3  5403 TIP3 H1   HT     0.417000        1.0080           0
   58114 WT3  5403 TIP3 H2   HT     0.417000        1.0080           0
   58115 WT3  5406 TIP3 OH2  OT    -0.834000       15.9994           0
   58116 WT3  5406 TIP3 H1   HT     0.417000        1.0080           0
   58117 WT3  5406 TIP3 H2   HT     0.417000        1.0080           0
   58118 WT3  5407 TIP3 OH2  OT    -0.834000       15.9994           0
   58119 WT3  5407 TIP3 H1   HT     0.417000        1.0080           0
   58120 WT3  5407 TIP3 H2   HT     0.417000        1.0080           0
   58121 WT3  5408 TIP3 OH2  OT    -0.834000       15.9994           0
   58122 WT3  5408 TIP3 H1   HT     0.417000        1.0080           0
   58123 WT3  5408 TIP3 H2   HT     0.417000        1.0080           0
   58124 WT3  5409 TIP3 OH2  OT    -0.834000       15.9994           0
   58125 WT3  5409 TIP3 H1   HT     0.417000        1.0080           0
   58126 WT3  5409 TIP3 H2   HT     0.417000        1.0080           0
   58127 WT3  5410 TIP3 OH2  OT    -0.834000       15.9994           0
   58128 WT3  5410 TIP3 H1   HT     0.417000        1.0080           0
   58129 WT3  5410 TIP3 H2   HT     0.417000        1.0080           0
   58130 WT3  5412 TIP3 OH2  OT    -0.834000       15.9994           0
   58131 WT3  5412 TIP3 H1   HT     0.417000        1.0080           0
   58132 WT3  5412 TIP3 H2   HT     0.417000        1.0080           0
   58133 WT3  5418 TIP3 OH2  OT    -0.834000       15.9994           0
   58134 WT3  5418 TIP3 H1   HT     0.417000        1.0080           0
   58135 WT3  5418 TIP3 H2   HT     0.417000        1.0080           0
   58136 WT3  5420 TIP3 OH2  OT    -0.834000       15.9994           0
   58137 WT3  5420 TIP3 H1   HT     0.417000        1.0080           0
   58138 WT3  5420 TIP3 H2   HT     0.417000        1.0080           0
   58139 WT3  5421 TIP3 OH2  OT    -0.834000       15.9994           0
   58140 WT3  5421 TIP3 H1   HT     0.417000        1.0080           0
   58141 WT3  5421 TIP3 H2   HT     0.417000        1.0080           0
   58142 WT3  5422 TIP3 OH2  OT    -0.834000       15.9994           0
   58143 WT3  5422 TIP3 H1   HT     0.417000        1.0080           0
   58144 WT3  5422 TIP3 H2   HT     0.417000        1.0080           0
   58145 WT3  5423 TIP3 OH2  OT    -0.834000       15.9994           0
   58146 WT3  5423 TIP3 H1   HT     0.417000        1.0080           0
   58147 WT3  5423 TIP3 H2   HT     0.417000        1.0080           0
   58148 WT3  5424 TIP3 OH2  OT    -0.834000       15.9994           0
   58149 WT3  5424 TIP3 H1   HT     0.417000        1.0080           0
   58150 WT3  5424 TIP3 H2   HT     0.417000        1.0080           0
   58151 WT3  5425 TIP3 OH2  OT    -0.834000       15.9994           0
   58152 WT3  5425 TIP3 H1   HT     0.417000        1.0080           0
   58153 WT3  5425 TIP3 H2   HT     0.417000        1.0080           0
   58154 WT3  5426 TIP3 OH2  OT    -0.834000       15.9994           0
   58155 WT3  5426 TIP3 H1   HT     0.417000        1.0080           0
   58156 WT3  5426 TIP3 H2   HT     0.417000        1.0080           0
   58157 WT3  5427 TIP3 OH2  OT    -0.834000       15.9994           0
   58158 WT3  5427 TIP3 H1   HT     0.417000        1.0080           0
   58159 WT3  5427 TIP3 H2   HT     0.417000        1.0080           0
   58160 WT3  5428 TIP3 OH2  OT    -0.834000       15.9994           0
   58161 WT3  5428 TIP3 H1   HT     0.417000        1.0080           0
   58162 WT3  5428 TIP3 H2   HT     0.417000        1.0080           0
   58163 WT3  5429 TIP3 OH2  OT    -0.834000       15.9994           0
   58164 WT3  5429 TIP3 H1   HT     0.417000        1.0080           0
   58165 WT3  5429 TIP3 H2   HT     0.417000        1.0080           0
   58166 WT3  5430 TIP3 OH2  OT    -0.834000       15.9994           0
   58167 WT3  5430 TIP3 H1   HT     0.417000        1.0080           0
   58168 WT3  5430 TIP3 H2   HT     0.417000        1.0080           0
   58169 WT3  5431 TIP3 OH2  OT    -0.834000       15.9994           0
   58170 WT3  5431 TIP3 H1   HT     0.417000        1.0080           0
   58171 WT3  5431 TIP3 H2   HT     0.417000        1.0080           0
   58172 WT3  5433 TIP3 OH2  OT    -0.834000       15.9994           0
   58173 WT3  5433 TIP3 H1   HT     0.417000        1.0080           0
   58174 WT3  5433 TIP3 H2   HT     0.417000        1.0080           0
   58175 WT3  5434 TIP3 OH2  OT    -0.834000       15.9994           0
   58176 WT3  5434 TIP3 H1   HT     0.417000        1.0080           0
   58177 WT3  5434 TIP3 H2   HT     0.417000        1.0080           0
   58178 WT3  5440 TIP3 OH2  OT    -0.834000       15.9994           0
   58179 WT3  5440 TIP3 H1   HT     0.417000        1.0080           0
   58180 WT3  5440 TIP3 H2   HT     0.417000        1.0080           0
   58181 WT3  5442 TIP3 OH2  OT    -0.834000       15.9994           0
   58182 WT3  5442 TIP3 H1   HT     0.417000        1.0080           0
   58183 WT3  5442 TIP3 H2   HT     0.417000        1.0080           0
   58184 WT3  5443 TIP3 OH2  OT    -0.834000       15.9994           0
   58185 WT3  5443 TIP3 H1   HT     0.417000        1.0080           0
   58186 WT3  5443 TIP3 H2   HT     0.417000        1.0080           0
   58187 WT3  5444 TIP3 OH2  OT    -0.834000       15.9994           0
   58188 WT3  5444 TIP3 H1   HT     0.417000        1.0080           0
   58189 WT3  5444 TIP3 H2   HT     0.417000        1.0080           0
   58190 WT3  5446 TIP3 OH2  OT    -0.834000       15.9994           0
   58191 WT3  5446 TIP3 H1   HT     0.417000        1.0080           0
   58192 WT3  5446 TIP3 H2   HT     0.417000        1.0080           0
   58193 WT3  5447 TIP3 OH2  OT    -0.834000       15.9994           0
   58194 WT3  5447 TIP3 H1   HT     0.417000        1.0080           0
   58195 WT3  5447 TIP3 H2   HT     0.417000        1.0080           0
   58196 WT3  5448 TIP3 OH2  OT    -0.834000       15.9994           0
   58197 WT3  5448 TIP3 H1   HT     0.417000        1.0080           0
   58198 WT3  5448 TIP3 H2   HT     0.417000        1.0080           0
   58199 WT3  5449 TIP3 OH2  OT    -0.834000       15.9994           0
   58200 WT3  5449 TIP3 H1   HT     0.417000        1.0080           0
   58201 WT3  5449 TIP3 H2   HT     0.417000        1.0080           0
   58202 WT3  5450 TIP3 OH2  OT    -0.834000       15.9994           0
   58203 WT3  5450 TIP3 H1   HT     0.417000        1.0080           0
   58204 WT3  5450 TIP3 H2   HT     0.417000        1.0080           0
   58205 WT3  5452 TIP3 OH2  OT    -0.834000       15.9994           0
   58206 WT3  5452 TIP3 H1   HT     0.417000        1.0080           0
   58207 WT3  5452 TIP3 H2   HT     0.417000        1.0080           0
   58208 WT3  5453 TIP3 OH2  OT    -0.834000       15.9994           0
   58209 WT3  5453 TIP3 H1   HT     0.417000        1.0080           0
   58210 WT3  5453 TIP3 H2   HT     0.417000        1.0080           0
   58211 WT3  5454 TIP3 OH2  OT    -0.834000       15.9994           0
   58212 WT3  5454 TIP3 H1   HT     0.417000        1.0080           0
   58213 WT3  5454 TIP3 H2   HT     0.417000        1.0080           0
   58214 WT3  5455 TIP3 OH2  OT    -0.834000       15.9994           0
   58215 WT3  5455 TIP3 H1   HT     0.417000        1.0080           0
   58216 WT3  5455 TIP3 H2   HT     0.417000        1.0080           0
   58217 WT3  5456 TIP3 OH2  OT    -0.834000       15.9994           0
   58218 WT3  5456 TIP3 H1   HT     0.417000        1.0080           0
   58219 WT3  5456 TIP3 H2   HT     0.417000        1.0080           0
   58220 WT3  5457 TIP3 OH2  OT    -0.834000       15.9994           0
   58221 WT3  5457 TIP3 H1   HT     0.417000        1.0080           0
   58222 WT3  5457 TIP3 H2   HT     0.417000        1.0080           0
   58223 WT3  5460 TIP3 OH2  OT    -0.834000       15.9994           0
   58224 WT3  5460 TIP3 H1   HT     0.417000        1.0080           0
   58225 WT3  5460 TIP3 H2   HT     0.417000        1.0080           0
   58226 WT3  5461 TIP3 OH2  OT    -0.834000       15.9994           0
   58227 WT3  5461 TIP3 H1   HT     0.417000        1.0080           0
   58228 WT3  5461 TIP3 H2   HT     0.417000        1.0080           0
   58229 WT3  5462 TIP3 OH2  OT    -0.834000       15.9994           0
   58230 WT3  5462 TIP3 H1   HT     0.417000        1.0080           0
   58231 WT3  5462 TIP3 H2   HT     0.417000        1.0080           0
   58232 WT3  5463 TIP3 OH2  OT    -0.834000       15.9994           0
   58233 WT3  5463 TIP3 H1   HT     0.417000        1.0080           0
   58234 WT3  5463 TIP3 H2   HT     0.417000        1.0080           0
   58235 WT3  5464 TIP3 OH2  OT    -0.834000       15.9994           0
   58236 WT3  5464 TIP3 H1   HT     0.417000        1.0080           0
   58237 WT3  5464 TIP3 H2   HT     0.417000        1.0080           0
   58238 WT3  5465 TIP3 OH2  OT    -0.834000       15.9994           0
   58239 WT3  5465 TIP3 H1   HT     0.417000        1.0080           0
   58240 WT3  5465 TIP3 H2   HT     0.417000        1.0080           0
   58241 WT3  5466 TIP3 OH2  OT    -0.834000       15.9994           0
   58242 WT3  5466 TIP3 H1   HT     0.417000        1.0080           0
   58243 WT3  5466 TIP3 H2   HT     0.417000        1.0080           0
   58244 WT3  5467 TIP3 OH2  OT    -0.834000       15.9994           0
   58245 WT3  5467 TIP3 H1   HT     0.417000        1.0080           0
   58246 WT3  5467 TIP3 H2   HT     0.417000        1.0080           0
   58247 WT3  5468 TIP3 OH2  OT    -0.834000       15.9994           0
   58248 WT3  5468 TIP3 H1   HT     0.417000        1.0080           0
   58249 WT3  5468 TIP3 H2   HT     0.417000        1.0080           0
   58250 WT3  5469 TIP3 OH2  OT    -0.834000       15.9994           0
   58251 WT3  5469 TIP3 H1   HT     0.417000        1.0080           0
   58252 WT3  5469 TIP3 H2   HT     0.417000        1.0080           0
   58253 WT3  5471 TIP3 OH2  OT    -0.834000       15.9994           0
   58254 WT3  5471 TIP3 H1   HT     0.417000        1.0080           0
   58255 WT3  5471 TIP3 H2   HT     0.417000        1.0080           0
   58256 WT3  5472 TIP3 OH2  OT    -0.834000       15.9994           0
   58257 WT3  5472 TIP3 H1   HT     0.417000        1.0080           0
   58258 WT3  5472 TIP3 H2   HT     0.417000        1.0080           0
   58259 WT3  5473 TIP3 OH2  OT    -0.834000       15.9994           0
   58260 WT3  5473 TIP3 H1   HT     0.417000        1.0080           0
   58261 WT3  5473 TIP3 H2   HT     0.417000        1.0080           0
   58262 WT3  5476 TIP3 OH2  OT    -0.834000       15.9994           0
   58263 WT3  5476 TIP3 H1   HT     0.417000        1.0080           0
   58264 WT3  5476 TIP3 H2   HT     0.417000        1.0080           0
   58265 WT3  5481 TIP3 OH2  OT    -0.834000       15.9994           0
   58266 WT3  5481 TIP3 H1   HT     0.417000        1.0080           0
   58267 WT3  5481 TIP3 H2   HT     0.417000        1.0080           0
   58268 WT3  5483 TIP3 OH2  OT    -0.834000       15.9994           0
   58269 WT3  5483 TIP3 H1   HT     0.417000        1.0080           0
   58270 WT3  5483 TIP3 H2   HT     0.417000        1.0080           0
   58271 WT3  5484 TIP3 OH2  OT    -0.834000       15.9994           0
   58272 WT3  5484 TIP3 H1   HT     0.417000        1.0080           0
   58273 WT3  5484 TIP3 H2   HT     0.417000        1.0080           0
   58274 WT3  5486 TIP3 OH2  OT    -0.834000       15.9994           0
   58275 WT3  5486 TIP3 H1   HT     0.417000        1.0080           0
   58276 WT3  5486 TIP3 H2   HT     0.417000        1.0080           0
   58277 WT3  5487 TIP3 OH2  OT    -0.834000       15.9994           0
   58278 WT3  5487 TIP3 H1   HT     0.417000        1.0080           0
   58279 WT3  5487 TIP3 H2   HT     0.417000        1.0080           0
   58280 WT3  5488 TIP3 OH2  OT    -0.834000       15.9994           0
   58281 WT3  5488 TIP3 H1   HT     0.417000        1.0080           0
   58282 WT3  5488 TIP3 H2   HT     0.417000        1.0080           0
   58283 WT3  5489 TIP3 OH2  OT    -0.834000       15.9994           0
   58284 WT3  5489 TIP3 H1   HT     0.417000        1.0080           0
   58285 WT3  5489 TIP3 H2   HT     0.417000        1.0080           0
   58286 WT3  5490 TIP3 OH2  OT    -0.834000       15.9994           0
   58287 WT3  5490 TIP3 H1   HT     0.417000        1.0080           0
   58288 WT3  5490 TIP3 H2   HT     0.417000        1.0080           0
   58289 WT3  5491 TIP3 OH2  OT    -0.834000       15.9994           0
   58290 WT3  5491 TIP3 H1   HT     0.417000        1.0080           0
   58291 WT3  5491 TIP3 H2   HT     0.417000        1.0080           0
   58292 WT3  5492 TIP3 OH2  OT    -0.834000       15.9994           0
   58293 WT3  5492 TIP3 H1   HT     0.417000        1.0080           0
   58294 WT3  5492 TIP3 H2   HT     0.417000        1.0080           0
   58295 WT3  5493 TIP3 OH2  OT    -0.834000       15.9994           0
   58296 WT3  5493 TIP3 H1   HT     0.417000        1.0080           0
   58297 WT3  5493 TIP3 H2   HT     0.417000        1.0080           0
   58298 WT3  5497 TIP3 OH2  OT    -0.834000       15.9994           0
   58299 WT3  5497 TIP3 H1   HT     0.417000        1.0080           0
   58300 WT3  5497 TIP3 H2   HT     0.417000        1.0080           0
   58301 WT3  5501 TIP3 OH2  OT    -0.834000       15.9994           0
   58302 WT3  5501 TIP3 H1   HT     0.417000        1.0080           0
   58303 WT3  5501 TIP3 H2   HT     0.417000        1.0080           0
   58304 WT3  5504 TIP3 OH2  OT    -0.834000       15.9994           0
   58305 WT3  5504 TIP3 H1   HT     0.417000        1.0080           0
   58306 WT3  5504 TIP3 H2   HT     0.417000        1.0080           0
   58307 WT3  5506 TIP3 OH2  OT    -0.834000       15.9994           0
   58308 WT3  5506 TIP3 H1   HT     0.417000        1.0080           0
   58309 WT3  5506 TIP3 H2   HT     0.417000        1.0080           0
   58310 WT3  5507 TIP3 OH2  OT    -0.834000       15.9994           0
   58311 WT3  5507 TIP3 H1   HT     0.417000        1.0080           0
   58312 WT3  5507 TIP3 H2   HT     0.417000        1.0080           0
   58313 WT3  5508 TIP3 OH2  OT    -0.834000       15.9994           0
   58314 WT3  5508 TIP3 H1   HT     0.417000        1.0080           0
   58315 WT3  5508 TIP3 H2   HT     0.417000        1.0080           0
   58316 WT3  5509 TIP3 OH2  OT    -0.834000       15.9994           0
   58317 WT3  5509 TIP3 H1   HT     0.417000        1.0080           0
   58318 WT3  5509 TIP3 H2   HT     0.417000        1.0080           0
   58319 WT3  5510 TIP3 OH2  OT    -0.834000       15.9994           0
   58320 WT3  5510 TIP3 H1   HT     0.417000        1.0080           0
   58321 WT3  5510 TIP3 H2   HT     0.417000        1.0080           0
   58322 WT3  5511 TIP3 OH2  OT    -0.834000       15.9994           0
   58323 WT3  5511 TIP3 H1   HT     0.417000        1.0080           0
   58324 WT3  5511 TIP3 H2   HT     0.417000        1.0080           0
   58325 WT3  5512 TIP3 OH2  OT    -0.834000       15.9994           0
   58326 WT3  5512 TIP3 H1   HT     0.417000        1.0080           0
   58327 WT3  5512 TIP3 H2   HT     0.417000        1.0080           0
   58328 WT3  5513 TIP3 OH2  OT    -0.834000       15.9994           0
   58329 WT3  5513 TIP3 H1   HT     0.417000        1.0080           0
   58330 WT3  5513 TIP3 H2   HT     0.417000        1.0080           0
   58331 WT3  5514 TIP3 OH2  OT    -0.834000       15.9994           0
   58332 WT3  5514 TIP3 H1   HT     0.417000        1.0080           0
   58333 WT3  5514 TIP3 H2   HT     0.417000        1.0080           0
   58334 WT3  5516 TIP3 OH2  OT    -0.834000       15.9994           0
   58335 WT3  5516 TIP3 H1   HT     0.417000        1.0080           0
   58336 WT3  5516 TIP3 H2   HT     0.417000        1.0080           0
   58337 WT3  5526 TIP3 OH2  OT    -0.834000       15.9994           0
   58338 WT3  5526 TIP3 H1   HT     0.417000        1.0080           0
   58339 WT3  5526 TIP3 H2   HT     0.417000        1.0080           0
   58340 WT3  5527 TIP3 OH2  OT    -0.834000       15.9994           0
   58341 WT3  5527 TIP3 H1   HT     0.417000        1.0080           0
   58342 WT3  5527 TIP3 H2   HT     0.417000        1.0080           0
   58343 WT3  5528 TIP3 OH2  OT    -0.834000       15.9994           0
   58344 WT3  5528 TIP3 H1   HT     0.417000        1.0080           0
   58345 WT3  5528 TIP3 H2   HT     0.417000        1.0080           0
   58346 WT3  5529 TIP3 OH2  OT    -0.834000       15.9994           0
   58347 WT3  5529 TIP3 H1   HT     0.417000        1.0080           0
   58348 WT3  5529 TIP3 H2   HT     0.417000        1.0080           0
   58349 WT3  5530 TIP3 OH2  OT    -0.834000       15.9994           0
   58350 WT3  5530 TIP3 H1   HT     0.417000        1.0080           0
   58351 WT3  5530 TIP3 H2   HT     0.417000        1.0080           0
   58352 WT3  5531 TIP3 OH2  OT    -0.834000       15.9994           0
   58353 WT3  5531 TIP3 H1   HT     0.417000        1.0080           0
   58354 WT3  5531 TIP3 H2   HT     0.417000        1.0080           0
   58355 WT3  5532 TIP3 OH2  OT    -0.834000       15.9994           0
   58356 WT3  5532 TIP3 H1   HT     0.417000        1.0080           0
   58357 WT3  5532 TIP3 H2   HT     0.417000        1.0080           0
   58358 WT3  5533 TIP3 OH2  OT    -0.834000       15.9994           0
   58359 WT3  5533 TIP3 H1   HT     0.417000        1.0080           0
   58360 WT3  5533 TIP3 H2   HT     0.417000        1.0080           0
   58361 WT3  5534 TIP3 OH2  OT    -0.834000       15.9994           0
   58362 WT3  5534 TIP3 H1   HT     0.417000        1.0080           0
   58363 WT3  5534 TIP3 H2   HT     0.417000        1.0080           0
   58364 WT3  5535 TIP3 OH2  OT    -0.834000       15.9994           0
   58365 WT3  5535 TIP3 H1   HT     0.417000        1.0080           0
   58366 WT3  5535 TIP3 H2   HT     0.417000        1.0080           0
   58367 WT3  5537 TIP3 OH2  OT    -0.834000       15.9994           0
   58368 WT3  5537 TIP3 H1   HT     0.417000        1.0080           0
   58369 WT3  5537 TIP3 H2   HT     0.417000        1.0080           0
   58370 WT3  5539 TIP3 OH2  OT    -0.834000       15.9994           0
   58371 WT3  5539 TIP3 H1   HT     0.417000        1.0080           0
   58372 WT3  5539 TIP3 H2   HT     0.417000        1.0080           0
   58373 WT3  5541 TIP3 OH2  OT    -0.834000       15.9994           0
   58374 WT3  5541 TIP3 H1   HT     0.417000        1.0080           0
   58375 WT3  5541 TIP3 H2   HT     0.417000        1.0080           0
   58376 WT3  5543 TIP3 OH2  OT    -0.834000       15.9994           0
   58377 WT3  5543 TIP3 H1   HT     0.417000        1.0080           0
   58378 WT3  5543 TIP3 H2   HT     0.417000        1.0080           0
   58379 WT3  5545 TIP3 OH2  OT    -0.834000       15.9994           0
   58380 WT3  5545 TIP3 H1   HT     0.417000        1.0080           0
   58381 WT3  5545 TIP3 H2   HT     0.417000        1.0080           0
   58382 WT3  5547 TIP3 OH2  OT    -0.834000       15.9994           0
   58383 WT3  5547 TIP3 H1   HT     0.417000        1.0080           0
   58384 WT3  5547 TIP3 H2   HT     0.417000        1.0080           0
   58385 WT3  5548 TIP3 OH2  OT    -0.834000       15.9994           0
   58386 WT3  5548 TIP3 H1   HT     0.417000        1.0080           0
   58387 WT3  5548 TIP3 H2   HT     0.417000        1.0080           0
   58388 WT3  5549 TIP3 OH2  OT    -0.834000       15.9994           0
   58389 WT3  5549 TIP3 H1   HT     0.417000        1.0080           0
   58390 WT3  5549 TIP3 H2   HT     0.417000        1.0080           0
   58391 WT3  5550 TIP3 OH2  OT    -0.834000       15.9994           0
   58392 WT3  5550 TIP3 H1   HT     0.417000        1.0080           0
   58393 WT3  5550 TIP3 H2   HT     0.417000        1.0080           0
   58394 WT3  5552 TIP3 OH2  OT    -0.834000       15.9994           0
   58395 WT3  5552 TIP3 H1   HT     0.417000        1.0080           0
   58396 WT3  5552 TIP3 H2   HT     0.417000        1.0080           0
   58397 WT3  5553 TIP3 OH2  OT    -0.834000       15.9994           0
   58398 WT3  5553 TIP3 H1   HT     0.417000        1.0080           0
   58399 WT3  5553 TIP3 H2   HT     0.417000        1.0080           0
   58400 WT3  5554 TIP3 OH2  OT    -0.834000       15.9994           0
   58401 WT3  5554 TIP3 H1   HT     0.417000        1.0080           0
   58402 WT3  5554 TIP3 H2   HT     0.417000        1.0080           0
   58403 WT3  5557 TIP3 OH2  OT    -0.834000       15.9994           0
   58404 WT3  5557 TIP3 H1   HT     0.417000        1.0080           0
   58405 WT3  5557 TIP3 H2   HT     0.417000        1.0080           0
   58406 WT3  5558 TIP3 OH2  OT    -0.834000       15.9994           0
   58407 WT3  5558 TIP3 H1   HT     0.417000        1.0080           0
   58408 WT3  5558 TIP3 H2   HT     0.417000        1.0080           0
   58409 WT3  5560 TIP3 OH2  OT    -0.834000       15.9994           0
   58410 WT3  5560 TIP3 H1   HT     0.417000        1.0080           0
   58411 WT3  5560 TIP3 H2   HT     0.417000        1.0080           0
   58412 WT3  5564 TIP3 OH2  OT    -0.834000       15.9994           0
   58413 WT3  5564 TIP3 H1   HT     0.417000        1.0080           0
   58414 WT3  5564 TIP3 H2   HT     0.417000        1.0080           0
   58415 WT3  5567 TIP3 OH2  OT    -0.834000       15.9994           0
   58416 WT3  5567 TIP3 H1   HT     0.417000        1.0080           0
   58417 WT3  5567 TIP3 H2   HT     0.417000        1.0080           0
   58418 WT3  5568 TIP3 OH2  OT    -0.834000       15.9994           0
   58419 WT3  5568 TIP3 H1   HT     0.417000        1.0080           0
   58420 WT3  5568 TIP3 H2   HT     0.417000        1.0080           0
   58421 WT3  5569 TIP3 OH2  OT    -0.834000       15.9994           0
   58422 WT3  5569 TIP3 H1   HT     0.417000        1.0080           0
   58423 WT3  5569 TIP3 H2   HT     0.417000        1.0080           0
   58424 WT3  5570 TIP3 OH2  OT    -0.834000       15.9994           0
   58425 WT3  5570 TIP3 H1   HT     0.417000        1.0080           0
   58426 WT3  5570 TIP3 H2   HT     0.417000        1.0080           0
   58427 WT3  5571 TIP3 OH2  OT    -0.834000       15.9994           0
   58428 WT3  5571 TIP3 H1   HT     0.417000        1.0080           0
   58429 WT3  5571 TIP3 H2   HT     0.417000        1.0080           0
   58430 WT3  5572 TIP3 OH2  OT    -0.834000       15.9994           0
   58431 WT3  5572 TIP3 H1   HT     0.417000        1.0080           0
   58432 WT3  5572 TIP3 H2   HT     0.417000        1.0080           0
   58433 WT3  5573 TIP3 OH2  OT    -0.834000       15.9994           0
   58434 WT3  5573 TIP3 H1   HT     0.417000        1.0080           0
   58435 WT3  5573 TIP3 H2   HT     0.417000        1.0080           0
   58436 WT3  5574 TIP3 OH2  OT    -0.834000       15.9994           0
   58437 WT3  5574 TIP3 H1   HT     0.417000        1.0080           0
   58438 WT3  5574 TIP3 H2   HT     0.417000        1.0080           0
   58439 WT3  5575 TIP3 OH2  OT    -0.834000       15.9994           0
   58440 WT3  5575 TIP3 H1   HT     0.417000        1.0080           0
   58441 WT3  5575 TIP3 H2   HT     0.417000        1.0080           0
   58442 WT3  5577 TIP3 OH2  OT    -0.834000       15.9994           0
   58443 WT3  5577 TIP3 H1   HT     0.417000        1.0080           0
   58444 WT3  5577 TIP3 H2   HT     0.417000        1.0080           0
   58445 WT3  5579 TIP3 OH2  OT    -0.834000       15.9994           0
   58446 WT3  5579 TIP3 H1   HT     0.417000        1.0080           0
   58447 WT3  5579 TIP3 H2   HT     0.417000        1.0080           0
   58448 WT3  5585 TIP3 OH2  OT    -0.834000       15.9994           0
   58449 WT3  5585 TIP3 H1   HT     0.417000        1.0080           0
   58450 WT3  5585 TIP3 H2   HT     0.417000        1.0080           0
   58451 WT3  5589 TIP3 OH2  OT    -0.834000       15.9994           0
   58452 WT3  5589 TIP3 H1   HT     0.417000        1.0080           0
   58453 WT3  5589 TIP3 H2   HT     0.417000        1.0080           0
   58454 WT3  5590 TIP3 OH2  OT    -0.834000       15.9994           0
   58455 WT3  5590 TIP3 H1   HT     0.417000        1.0080           0
   58456 WT3  5590 TIP3 H2   HT     0.417000        1.0080           0
   58457 WT3  5591 TIP3 OH2  OT    -0.834000       15.9994           0
   58458 WT3  5591 TIP3 H1   HT     0.417000        1.0080           0
   58459 WT3  5591 TIP3 H2   HT     0.417000        1.0080           0
   58460 WT3  5592 TIP3 OH2  OT    -0.834000       15.9994           0
   58461 WT3  5592 TIP3 H1   HT     0.417000        1.0080           0
   58462 WT3  5592 TIP3 H2   HT     0.417000        1.0080           0
   58463 WT3  5593 TIP3 OH2  OT    -0.834000       15.9994           0
   58464 WT3  5593 TIP3 H1   HT     0.417000        1.0080           0
   58465 WT3  5593 TIP3 H2   HT     0.417000        1.0080           0
   58466 WT3  5594 TIP3 OH2  OT    -0.834000       15.9994           0
   58467 WT3  5594 TIP3 H1   HT     0.417000        1.0080           0
   58468 WT3  5594 TIP3 H2   HT     0.417000        1.0080           0
   58469 WT3  5595 TIP3 OH2  OT    -0.834000       15.9994           0
   58470 WT3  5595 TIP3 H1   HT     0.417000        1.0080           0
   58471 WT3  5595 TIP3 H2   HT     0.417000        1.0080           0
   58472 WT3  5596 TIP3 OH2  OT    -0.834000       15.9994           0
   58473 WT3  5596 TIP3 H1   HT     0.417000        1.0080           0
   58474 WT3  5596 TIP3 H2   HT     0.417000        1.0080           0
   58475 WT3  5597 TIP3 OH2  OT    -0.834000       15.9994           0
   58476 WT3  5597 TIP3 H1   HT     0.417000        1.0080           0
   58477 WT3  5597 TIP3 H2   HT     0.417000        1.0080           0
   58478 WT3  5600 TIP3 OH2  OT    -0.834000       15.9994           0
   58479 WT3  5600 TIP3 H1   HT     0.417000        1.0080           0
   58480 WT3  5600 TIP3 H2   HT     0.417000        1.0080           0
   58481 WT3  5601 TIP3 OH2  OT    -0.834000       15.9994           0
   58482 WT3  5601 TIP3 H1   HT     0.417000        1.0080           0
   58483 WT3  5601 TIP3 H2   HT     0.417000        1.0080           0
   58484 WT3  5602 TIP3 OH2  OT    -0.834000       15.9994           0
   58485 WT3  5602 TIP3 H1   HT     0.417000        1.0080           0
   58486 WT3  5602 TIP3 H2   HT     0.417000        1.0080           0
   58487 WT3  5604 TIP3 OH2  OT    -0.834000       15.9994           0
   58488 WT3  5604 TIP3 H1   HT     0.417000        1.0080           0
   58489 WT3  5604 TIP3 H2   HT     0.417000        1.0080           0
   58490 WT3  5605 TIP3 OH2  OT    -0.834000       15.9994           0
   58491 WT3  5605 TIP3 H1   HT     0.417000        1.0080           0
   58492 WT3  5605 TIP3 H2   HT     0.417000        1.0080           0
   58493 WT3  5607 TIP3 OH2  OT    -0.834000       15.9994           0
   58494 WT3  5607 TIP3 H1   HT     0.417000        1.0080           0
   58495 WT3  5607 TIP3 H2   HT     0.417000        1.0080           0
   58496 WT3  5609 TIP3 OH2  OT    -0.834000       15.9994           0
   58497 WT3  5609 TIP3 H1   HT     0.417000        1.0080           0
   58498 WT3  5609 TIP3 H2   HT     0.417000        1.0080           0
   58499 WT3  5611 TIP3 OH2  OT    -0.834000       15.9994           0
   58500 WT3  5611 TIP3 H1   HT     0.417000        1.0080           0
   58501 WT3  5611 TIP3 H2   HT     0.417000        1.0080           0
   58502 WT3  5612 TIP3 OH2  OT    -0.834000       15.9994           0
   58503 WT3  5612 TIP3 H1   HT     0.417000        1.0080           0
   58504 WT3  5612 TIP3 H2   HT     0.417000        1.0080           0
   58505 WT3  5613 TIP3 OH2  OT    -0.834000       15.9994           0
   58506 WT3  5613 TIP3 H1   HT     0.417000        1.0080           0
   58507 WT3  5613 TIP3 H2   HT     0.417000        1.0080           0
   58508 WT3  5614 TIP3 OH2  OT    -0.834000       15.9994           0
   58509 WT3  5614 TIP3 H1   HT     0.417000        1.0080           0
   58510 WT3  5614 TIP3 H2   HT     0.417000        1.0080           0
   58511 WT3  5615 TIP3 OH2  OT    -0.834000       15.9994           0
   58512 WT3  5615 TIP3 H1   HT     0.417000        1.0080           0
   58513 WT3  5615 TIP3 H2   HT     0.417000        1.0080           0
   58514 WT3  5616 TIP3 OH2  OT    -0.834000       15.9994           0
   58515 WT3  5616 TIP3 H1   HT     0.417000        1.0080           0
   58516 WT3  5616 TIP3 H2   HT     0.417000        1.0080           0
   58517 WT3  5617 TIP3 OH2  OT    -0.834000       15.9994           0
   58518 WT3  5617 TIP3 H1   HT     0.417000        1.0080           0
   58519 WT3  5617 TIP3 H2   HT     0.417000        1.0080           0
   58520 WT3  5619 TIP3 OH2  OT    -0.834000       15.9994           0
   58521 WT3  5619 TIP3 H1   HT     0.417000        1.0080           0
   58522 WT3  5619 TIP3 H2   HT     0.417000        1.0080           0
   58523 WT3  5620 TIP3 OH2  OT    -0.834000       15.9994           0
   58524 WT3  5620 TIP3 H1   HT     0.417000        1.0080           0
   58525 WT3  5620 TIP3 H2   HT     0.417000        1.0080           0
   58526 WT3  5621 TIP3 OH2  OT    -0.834000       15.9994           0
   58527 WT3  5621 TIP3 H1   HT     0.417000        1.0080           0
   58528 WT3  5621 TIP3 H2   HT     0.417000        1.0080           0
   58529 WT3  5623 TIP3 OH2  OT    -0.834000       15.9994           0
   58530 WT3  5623 TIP3 H1   HT     0.417000        1.0080           0
   58531 WT3  5623 TIP3 H2   HT     0.417000        1.0080           0
   58532 WT3  5628 TIP3 OH2  OT    -0.834000       15.9994           0
   58533 WT3  5628 TIP3 H1   HT     0.417000        1.0080           0
   58534 WT3  5628 TIP3 H2   HT     0.417000        1.0080           0
   58535 WT3  5630 TIP3 OH2  OT    -0.834000       15.9994           0
   58536 WT3  5630 TIP3 H1   HT     0.417000        1.0080           0
   58537 WT3  5630 TIP3 H2   HT     0.417000        1.0080           0
   58538 WT3  5631 TIP3 OH2  OT    -0.834000       15.9994           0
   58539 WT3  5631 TIP3 H1   HT     0.417000        1.0080           0
   58540 WT3  5631 TIP3 H2   HT     0.417000        1.0080           0
   58541 WT3  5632 TIP3 OH2  OT    -0.834000       15.9994           0
   58542 WT3  5632 TIP3 H1   HT     0.417000        1.0080           0
   58543 WT3  5632 TIP3 H2   HT     0.417000        1.0080           0
   58544 WT3  5634 TIP3 OH2  OT    -0.834000       15.9994           0
   58545 WT3  5634 TIP3 H1   HT     0.417000        1.0080           0
   58546 WT3  5634 TIP3 H2   HT     0.417000        1.0080           0
   58547 WT3  5636 TIP3 OH2  OT    -0.834000       15.9994           0
   58548 WT3  5636 TIP3 H1   HT     0.417000        1.0080           0
   58549 WT3  5636 TIP3 H2   HT     0.417000        1.0080           0
   58550 WT3  5637 TIP3 OH2  OT    -0.834000       15.9994           0
   58551 WT3  5637 TIP3 H1   HT     0.417000        1.0080           0
   58552 WT3  5637 TIP3 H2   HT     0.417000        1.0080           0
   58553 WT3  5638 TIP3 OH2  OT    -0.834000       15.9994           0
   58554 WT3  5638 TIP3 H1   HT     0.417000        1.0080           0
   58555 WT3  5638 TIP3 H2   HT     0.417000        1.0080           0
   58556 WT3  5639 TIP3 OH2  OT    -0.834000       15.9994           0
   58557 WT3  5639 TIP3 H1   HT     0.417000        1.0080           0
   58558 WT3  5639 TIP3 H2   HT     0.417000        1.0080           0
   58559 WT3  5641 TIP3 OH2  OT    -0.834000       15.9994           0
   58560 WT3  5641 TIP3 H1   HT     0.417000        1.0080           0
   58561 WT3  5641 TIP3 H2   HT     0.417000        1.0080           0
   58562 WT3  5643 TIP3 OH2  OT    -0.834000       15.9994           0
   58563 WT3  5643 TIP3 H1   HT     0.417000        1.0080           0
   58564 WT3  5643 TIP3 H2   HT     0.417000        1.0080           0
   58565 WT3  5647 TIP3 OH2  OT    -0.834000       15.9994           0
   58566 WT3  5647 TIP3 H1   HT     0.417000        1.0080           0
   58567 WT3  5647 TIP3 H2   HT     0.417000        1.0080           0
   58568 WT3  5648 TIP3 OH2  OT    -0.834000       15.9994           0
   58569 WT3  5648 TIP3 H1   HT     0.417000        1.0080           0
   58570 WT3  5648 TIP3 H2   HT     0.417000        1.0080           0
   58571 WT3  5650 TIP3 OH2  OT    -0.834000       15.9994           0
   58572 WT3  5650 TIP3 H1   HT     0.417000        1.0080           0
   58573 WT3  5650 TIP3 H2   HT     0.417000        1.0080           0
   58574 WT3  5651 TIP3 OH2  OT    -0.834000       15.9994           0
   58575 WT3  5651 TIP3 H1   HT     0.417000        1.0080           0
   58576 WT3  5651 TIP3 H2   HT     0.417000        1.0080           0
   58577 WT3  5653 TIP3 OH2  OT    -0.834000       15.9994           0
   58578 WT3  5653 TIP3 H1   HT     0.417000        1.0080           0
   58579 WT3  5653 TIP3 H2   HT     0.417000        1.0080           0
   58580 WT3  5654 TIP3 OH2  OT    -0.834000       15.9994           0
   58581 WT3  5654 TIP3 H1   HT     0.417000        1.0080           0
   58582 WT3  5654 TIP3 H2   HT     0.417000        1.0080           0
   58583 WT3  5655 TIP3 OH2  OT    -0.834000       15.9994           0
   58584 WT3  5655 TIP3 H1   HT     0.417000        1.0080           0
   58585 WT3  5655 TIP3 H2   HT     0.417000        1.0080           0
   58586 WT3  5656 TIP3 OH2  OT    -0.834000       15.9994           0
   58587 WT3  5656 TIP3 H1   HT     0.417000        1.0080           0
   58588 WT3  5656 TIP3 H2   HT     0.417000        1.0080           0
   58589 WT3  5658 TIP3 OH2  OT    -0.834000       15.9994           0
   58590 WT3  5658 TIP3 H1   HT     0.417000        1.0080           0
   58591 WT3  5658 TIP3 H2   HT     0.417000        1.0080           0
   58592 WT3  5659 TIP3 OH2  OT    -0.834000       15.9994           0
   58593 WT3  5659 TIP3 H1   HT     0.417000        1.0080           0
   58594 WT3  5659 TIP3 H2   HT     0.417000        1.0080           0
   58595 WT3  5660 TIP3 OH2  OT    -0.834000       15.9994           0
   58596 WT3  5660 TIP3 H1   HT     0.417000        1.0080           0
   58597 WT3  5660 TIP3 H2   HT     0.417000        1.0080           0
   58598 WT3  5662 TIP3 OH2  OT    -0.834000       15.9994           0
   58599 WT3  5662 TIP3 H1   HT     0.417000        1.0080           0
   58600 WT3  5662 TIP3 H2   HT     0.417000        1.0080           0
   58601 WT3  5663 TIP3 OH2  OT    -0.834000       15.9994           0
   58602 WT3  5663 TIP3 H1   HT     0.417000        1.0080           0
   58603 WT3  5663 TIP3 H2   HT     0.417000        1.0080           0
   58604 WT3  5665 TIP3 OH2  OT    -0.834000       15.9994           0
   58605 WT3  5665 TIP3 H1   HT     0.417000        1.0080           0
   58606 WT3  5665 TIP3 H2   HT     0.417000        1.0080           0
   58607 WT3  5667 TIP3 OH2  OT    -0.834000       15.9994           0
   58608 WT3  5667 TIP3 H1   HT     0.417000        1.0080           0
   58609 WT3  5667 TIP3 H2   HT     0.417000        1.0080           0
   58610 WT3  5669 TIP3 OH2  OT    -0.834000       15.9994           0
   58611 WT3  5669 TIP3 H1   HT     0.417000        1.0080           0
   58612 WT3  5669 TIP3 H2   HT     0.417000        1.0080           0
   58613 WT3  5671 TIP3 OH2  OT    -0.834000       15.9994           0
   58614 WT3  5671 TIP3 H1   HT     0.417000        1.0080           0
   58615 WT3  5671 TIP3 H2   HT     0.417000        1.0080           0
   58616 WT3  5673 TIP3 OH2  OT    -0.834000       15.9994           0
   58617 WT3  5673 TIP3 H1   HT     0.417000        1.0080           0
   58618 WT3  5673 TIP3 H2   HT     0.417000        1.0080           0
   58619 WT3  5674 TIP3 OH2  OT    -0.834000       15.9994           0
   58620 WT3  5674 TIP3 H1   HT     0.417000        1.0080           0
   58621 WT3  5674 TIP3 H2   HT     0.417000        1.0080           0
   58622 WT3  5676 TIP3 OH2  OT    -0.834000       15.9994           0
   58623 WT3  5676 TIP3 H1   HT     0.417000        1.0080           0
   58624 WT3  5676 TIP3 H2   HT     0.417000        1.0080           0
   58625 WT3  5677 TIP3 OH2  OT    -0.834000       15.9994           0
   58626 WT3  5677 TIP3 H1   HT     0.417000        1.0080           0
   58627 WT3  5677 TIP3 H2   HT     0.417000        1.0080           0
   58628 WT3  5678 TIP3 OH2  OT    -0.834000       15.9994           0
   58629 WT3  5678 TIP3 H1   HT     0.417000        1.0080           0
   58630 WT3  5678 TIP3 H2   HT     0.417000        1.0080           0
   58631 WT3  5679 TIP3 OH2  OT    -0.834000       15.9994           0
   58632 WT3  5679 TIP3 H1   HT     0.417000        1.0080           0
   58633 WT3  5679 TIP3 H2   HT     0.417000        1.0080           0
   58634 WT3  5680 TIP3 OH2  OT    -0.834000       15.9994           0
   58635 WT3  5680 TIP3 H1   HT     0.417000        1.0080           0
   58636 WT3  5680 TIP3 H2   HT     0.417000        1.0080           0
   58637 WT3  5681 TIP3 OH2  OT    -0.834000       15.9994           0
   58638 WT3  5681 TIP3 H1   HT     0.417000        1.0080           0
   58639 WT3  5681 TIP3 H2   HT     0.417000        1.0080           0
   58640 WT3  5682 TIP3 OH2  OT    -0.834000       15.9994           0
   58641 WT3  5682 TIP3 H1   HT     0.417000        1.0080           0
   58642 WT3  5682 TIP3 H2   HT     0.417000        1.0080           0
   58643 WT3  5683 TIP3 OH2  OT    -0.834000       15.9994           0
   58644 WT3  5683 TIP3 H1   HT     0.417000        1.0080           0
   58645 WT3  5683 TIP3 H2   HT     0.417000        1.0080           0
   58646 WT3  5684 TIP3 OH2  OT    -0.834000       15.9994           0
   58647 WT3  5684 TIP3 H1   HT     0.417000        1.0080           0
   58648 WT3  5684 TIP3 H2   HT     0.417000        1.0080           0
   58649 WT3  5685 TIP3 OH2  OT    -0.834000       15.9994           0
   58650 WT3  5685 TIP3 H1   HT     0.417000        1.0080           0
   58651 WT3  5685 TIP3 H2   HT     0.417000        1.0080           0
   58652 WT3  5686 TIP3 OH2  OT    -0.834000       15.9994           0
   58653 WT3  5686 TIP3 H1   HT     0.417000        1.0080           0
   58654 WT3  5686 TIP3 H2   HT     0.417000        1.0080           0
   58655 WT3  5687 TIP3 OH2  OT    -0.834000       15.9994           0
   58656 WT3  5687 TIP3 H1   HT     0.417000        1.0080           0
   58657 WT3  5687 TIP3 H2   HT     0.417000        1.0080           0
   58658 WT3  5690 TIP3 OH2  OT    -0.834000       15.9994           0
   58659 WT3  5690 TIP3 H1   HT     0.417000        1.0080           0
   58660 WT3  5690 TIP3 H2   HT     0.417000        1.0080           0
   58661 WT3  5692 TIP3 OH2  OT    -0.834000       15.9994           0
   58662 WT3  5692 TIP3 H1   HT     0.417000        1.0080           0
   58663 WT3  5692 TIP3 H2   HT     0.417000        1.0080           0
   58664 WT3  5694 TIP3 OH2  OT    -0.834000       15.9994           0
   58665 WT3  5694 TIP3 H1   HT     0.417000        1.0080           0
   58666 WT3  5694 TIP3 H2   HT     0.417000        1.0080           0
   58667 WT3  5695 TIP3 OH2  OT    -0.834000       15.9994           0
   58668 WT3  5695 TIP3 H1   HT     0.417000        1.0080           0
   58669 WT3  5695 TIP3 H2   HT     0.417000        1.0080           0
   58670 WT3  5696 TIP3 OH2  OT    -0.834000       15.9994           0
   58671 WT3  5696 TIP3 H1   HT     0.417000        1.0080           0
   58672 WT3  5696 TIP3 H2   HT     0.417000        1.0080           0
   58673 WT3  5697 TIP3 OH2  OT    -0.834000       15.9994           0
   58674 WT3  5697 TIP3 H1   HT     0.417000        1.0080           0
   58675 WT3  5697 TIP3 H2   HT     0.417000        1.0080           0
   58676 WT3  5698 TIP3 OH2  OT    -0.834000       15.9994           0
   58677 WT3  5698 TIP3 H1   HT     0.417000        1.0080           0
   58678 WT3  5698 TIP3 H2   HT     0.417000        1.0080           0
   58679 WT3  5699 TIP3 OH2  OT    -0.834000       15.9994           0
   58680 WT3  5699 TIP3 H1   HT     0.417000        1.0080           0
   58681 WT3  5699 TIP3 H2   HT     0.417000        1.0080           0
   58682 WT3  5700 TIP3 OH2  OT    -0.834000       15.9994           0
   58683 WT3  5700 TIP3 H1   HT     0.417000        1.0080           0
   58684 WT3  5700 TIP3 H2   HT     0.417000        1.0080           0
   58685 WT3  5701 TIP3 OH2  OT    -0.834000       15.9994           0
   58686 WT3  5701 TIP3 H1   HT     0.417000        1.0080           0
   58687 WT3  5701 TIP3 H2   HT     0.417000        1.0080           0
   58688 WT3  5703 TIP3 OH2  OT    -0.834000       15.9994           0
   58689 WT3  5703 TIP3 H1   HT     0.417000        1.0080           0
   58690 WT3  5703 TIP3 H2   HT     0.417000        1.0080           0
   58691 WT3  5704 TIP3 OH2  OT    -0.834000       15.9994           0
   58692 WT3  5704 TIP3 H1   HT     0.417000        1.0080           0
   58693 WT3  5704 TIP3 H2   HT     0.417000        1.0080           0
   58694 WT3  5705 TIP3 OH2  OT    -0.834000       15.9994           0
   58695 WT3  5705 TIP3 H1   HT     0.417000        1.0080           0
   58696 WT3  5705 TIP3 H2   HT     0.417000        1.0080           0
   58697 WT3  5711 TIP3 OH2  OT    -0.834000       15.9994           0
   58698 WT3  5711 TIP3 H1   HT     0.417000        1.0080           0
   58699 WT3  5711 TIP3 H2   HT     0.417000        1.0080           0
   58700 WT3  5714 TIP3 OH2  OT    -0.834000       15.9994           0
   58701 WT3  5714 TIP3 H1   HT     0.417000        1.0080           0
   58702 WT3  5714 TIP3 H2   HT     0.417000        1.0080           0
   58703 WT3  5716 TIP3 OH2  OT    -0.834000       15.9994           0
   58704 WT3  5716 TIP3 H1   HT     0.417000        1.0080           0
   58705 WT3  5716 TIP3 H2   HT     0.417000        1.0080           0
   58706 WT3  5717 TIP3 OH2  OT    -0.834000       15.9994           0
   58707 WT3  5717 TIP3 H1   HT     0.417000        1.0080           0
   58708 WT3  5717 TIP3 H2   HT     0.417000        1.0080           0
   58709 WT3  5718 TIP3 OH2  OT    -0.834000       15.9994           0
   58710 WT3  5718 TIP3 H1   HT     0.417000        1.0080           0
   58711 WT3  5718 TIP3 H2   HT     0.417000        1.0080           0
   58712 WT3  5719 TIP3 OH2  OT    -0.834000       15.9994           0
   58713 WT3  5719 TIP3 H1   HT     0.417000        1.0080           0
   58714 WT3  5719 TIP3 H2   HT     0.417000        1.0080           0
   58715 WT3  5721 TIP3 OH2  OT    -0.834000       15.9994           0
   58716 WT3  5721 TIP3 H1   HT     0.417000        1.0080           0
   58717 WT3  5721 TIP3 H2   HT     0.417000        1.0080           0
   58718 WT3  5722 TIP3 OH2  OT    -0.834000       15.9994           0
   58719 WT3  5722 TIP3 H1   HT     0.417000        1.0080           0
   58720 WT3  5722 TIP3 H2   HT     0.417000        1.0080           0
   58721 WT3  5723 TIP3 OH2  OT    -0.834000       15.9994           0
   58722 WT3  5723 TIP3 H1   HT     0.417000        1.0080           0
   58723 WT3  5723 TIP3 H2   HT     0.417000        1.0080           0
   58724 WT3  5724 TIP3 OH2  OT    -0.834000       15.9994           0
   58725 WT3  5724 TIP3 H1   HT     0.417000        1.0080           0
   58726 WT3  5724 TIP3 H2   HT     0.417000        1.0080           0
   58727 WT3  5725 TIP3 OH2  OT    -0.834000       15.9994           0
   58728 WT3  5725 TIP3 H1   HT     0.417000        1.0080           0
   58729 WT3  5725 TIP3 H2   HT     0.417000        1.0080           0
   58730 WT3  5727 TIP3 OH2  OT    -0.834000       15.9994           0
   58731 WT3  5727 TIP3 H1   HT     0.417000        1.0080           0
   58732 WT3  5727 TIP3 H2   HT     0.417000        1.0080           0
   58733 WT3  5729 TIP3 OH2  OT    -0.834000       15.9994           0
   58734 WT3  5729 TIP3 H1   HT     0.417000        1.0080           0
   58735 WT3  5729 TIP3 H2   HT     0.417000        1.0080           0
   58736 WT3  5730 TIP3 OH2  OT    -0.834000       15.9994           0
   58737 WT3  5730 TIP3 H1   HT     0.417000        1.0080           0
   58738 WT3  5730 TIP3 H2   HT     0.417000        1.0080           0
   58739 WT3  5732 TIP3 OH2  OT    -0.834000       15.9994           0
   58740 WT3  5732 TIP3 H1   HT     0.417000        1.0080           0
   58741 WT3  5732 TIP3 H2   HT     0.417000        1.0080           0
   58742 WT3  5734 TIP3 OH2  OT    -0.834000       15.9994           0
   58743 WT3  5734 TIP3 H1   HT     0.417000        1.0080           0
   58744 WT3  5734 TIP3 H2   HT     0.417000        1.0080           0
   58745 WT3  5735 TIP3 OH2  OT    -0.834000       15.9994           0
   58746 WT3  5735 TIP3 H1   HT     0.417000        1.0080           0
   58747 WT3  5735 TIP3 H2   HT     0.417000        1.0080           0
   58748 WT3  5736 TIP3 OH2  OT    -0.834000       15.9994           0
   58749 WT3  5736 TIP3 H1   HT     0.417000        1.0080           0
   58750 WT3  5736 TIP3 H2   HT     0.417000        1.0080           0
   58751 WT3  5738 TIP3 OH2  OT    -0.834000       15.9994           0
   58752 WT3  5738 TIP3 H1   HT     0.417000        1.0080           0
   58753 WT3  5738 TIP3 H2   HT     0.417000        1.0080           0
   58754 WT3  5740 TIP3 OH2  OT    -0.834000       15.9994           0
   58755 WT3  5740 TIP3 H1   HT     0.417000        1.0080           0
   58756 WT3  5740 TIP3 H2   HT     0.417000        1.0080           0
   58757 WT3  5741 TIP3 OH2  OT    -0.834000       15.9994           0
   58758 WT3  5741 TIP3 H1   HT     0.417000        1.0080           0
   58759 WT3  5741 TIP3 H2   HT     0.417000        1.0080           0
   58760 WT3  5742 TIP3 OH2  OT    -0.834000       15.9994           0
   58761 WT3  5742 TIP3 H1   HT     0.417000        1.0080           0
   58762 WT3  5742 TIP3 H2   HT     0.417000        1.0080           0
   58763 WT3  5743 TIP3 OH2  OT    -0.834000       15.9994           0
   58764 WT3  5743 TIP3 H1   HT     0.417000        1.0080           0
   58765 WT3  5743 TIP3 H2   HT     0.417000        1.0080           0
   58766 WT3  5744 TIP3 OH2  OT    -0.834000       15.9994           0
   58767 WT3  5744 TIP3 H1   HT     0.417000        1.0080           0
   58768 WT3  5744 TIP3 H2   HT     0.417000        1.0080           0
   58769 WT3  5745 TIP3 OH2  OT    -0.834000       15.9994           0
   58770 WT3  5745 TIP3 H1   HT     0.417000        1.0080           0
   58771 WT3  5745 TIP3 H2   HT     0.417000        1.0080           0
   58772 WT3  5747 TIP3 OH2  OT    -0.834000       15.9994           0
   58773 WT3  5747 TIP3 H1   HT     0.417000        1.0080           0
   58774 WT3  5747 TIP3 H2   HT     0.417000        1.0080           0
   58775 WT3  5755 TIP3 OH2  OT    -0.834000       15.9994           0
   58776 WT3  5755 TIP3 H1   HT     0.417000        1.0080           0
   58777 WT3  5755 TIP3 H2   HT     0.417000        1.0080           0
   58778 WT3  5756 TIP3 OH2  OT    -0.834000       15.9994           0
   58779 WT3  5756 TIP3 H1   HT     0.417000        1.0080           0
   58780 WT3  5756 TIP3 H2   HT     0.417000        1.0080           0
   58781 WT3  5758 TIP3 OH2  OT    -0.834000       15.9994           0
   58782 WT3  5758 TIP3 H1   HT     0.417000        1.0080           0
   58783 WT3  5758 TIP3 H2   HT     0.417000        1.0080           0
   58784 WT3  5759 TIP3 OH2  OT    -0.834000       15.9994           0
   58785 WT3  5759 TIP3 H1   HT     0.417000        1.0080           0
   58786 WT3  5759 TIP3 H2   HT     0.417000        1.0080           0
   58787 WT3  5761 TIP3 OH2  OT    -0.834000       15.9994           0
   58788 WT3  5761 TIP3 H1   HT     0.417000        1.0080           0
   58789 WT3  5761 TIP3 H2   HT     0.417000        1.0080           0
   58790 WT3  5762 TIP3 OH2  OT    -0.834000       15.9994           0
   58791 WT3  5762 TIP3 H1   HT     0.417000        1.0080           0
   58792 WT3  5762 TIP3 H2   HT     0.417000        1.0080           0
   58793 WT3  5763 TIP3 OH2  OT    -0.834000       15.9994           0
   58794 WT3  5763 TIP3 H1   HT     0.417000        1.0080           0
   58795 WT3  5763 TIP3 H2   HT     0.417000        1.0080           0
   58796 WT3  5765 TIP3 OH2  OT    -0.834000       15.9994           0
   58797 WT3  5765 TIP3 H1   HT     0.417000        1.0080           0
   58798 WT3  5765 TIP3 H2   HT     0.417000        1.0080           0
   58799 WT3  5766 TIP3 OH2  OT    -0.834000       15.9994           0
   58800 WT3  5766 TIP3 H1   HT     0.417000        1.0080           0
   58801 WT3  5766 TIP3 H2   HT     0.417000        1.0080           0
   58802 WT3  5767 TIP3 OH2  OT    -0.834000       15.9994           0
   58803 WT3  5767 TIP3 H1   HT     0.417000        1.0080           0
   58804 WT3  5767 TIP3 H2   HT     0.417000        1.0080           0
   58805 WT3  5768 TIP3 OH2  OT    -0.834000       15.9994           0
   58806 WT3  5768 TIP3 H1   HT     0.417000        1.0080           0
   58807 WT3  5768 TIP3 H2   HT     0.417000        1.0080           0
   58808 WT3  5775 TIP3 OH2  OT    -0.834000       15.9994           0
   58809 WT3  5775 TIP3 H1   HT     0.417000        1.0080           0
   58810 WT3  5775 TIP3 H2   HT     0.417000        1.0080           0
   58811 WT3  5777 TIP3 OH2  OT    -0.834000       15.9994           0
   58812 WT3  5777 TIP3 H1   HT     0.417000        1.0080           0
   58813 WT3  5777 TIP3 H2   HT     0.417000        1.0080           0
   58814 WT3  5779 TIP3 OH2  OT    -0.834000       15.9994           0
   58815 WT3  5779 TIP3 H1   HT     0.417000        1.0080           0
   58816 WT3  5779 TIP3 H2   HT     0.417000        1.0080           0
   58817 WT3  5780 TIP3 OH2  OT    -0.834000       15.9994           0
   58818 WT3  5780 TIP3 H1   HT     0.417000        1.0080           0
   58819 WT3  5780 TIP3 H2   HT     0.417000        1.0080           0
   58820 WT3  5781 TIP3 OH2  OT    -0.834000       15.9994           0
   58821 WT3  5781 TIP3 H1   HT     0.417000        1.0080           0
   58822 WT3  5781 TIP3 H2   HT     0.417000        1.0080           0
   58823 WT3  5782 TIP3 OH2  OT    -0.834000       15.9994           0
   58824 WT3  5782 TIP3 H1   HT     0.417000        1.0080           0
   58825 WT3  5782 TIP3 H2   HT     0.417000        1.0080           0
   58826 WT3  5783 TIP3 OH2  OT    -0.834000       15.9994           0
   58827 WT3  5783 TIP3 H1   HT     0.417000        1.0080           0
   58828 WT3  5783 TIP3 H2   HT     0.417000        1.0080           0
   58829 WT3  5784 TIP3 OH2  OT    -0.834000       15.9994           0
   58830 WT3  5784 TIP3 H1   HT     0.417000        1.0080           0
   58831 WT3  5784 TIP3 H2   HT     0.417000        1.0080           0
   58832 WT3  5785 TIP3 OH2  OT    -0.834000       15.9994           0
   58833 WT3  5785 TIP3 H1   HT     0.417000        1.0080           0
   58834 WT3  5785 TIP3 H2   HT     0.417000        1.0080           0
   58835 WT3  5786 TIP3 OH2  OT    -0.834000       15.9994           0
   58836 WT3  5786 TIP3 H1   HT     0.417000        1.0080           0
   58837 WT3  5786 TIP3 H2   HT     0.417000        1.0080           0
   58838 WT3  5787 TIP3 OH2  OT    -0.834000       15.9994           0
   58839 WT3  5787 TIP3 H1   HT     0.417000        1.0080           0
   58840 WT3  5787 TIP3 H2   HT     0.417000        1.0080           0
   58841 WT3  5788 TIP3 OH2  OT    -0.834000       15.9994           0
   58842 WT3  5788 TIP3 H1   HT     0.417000        1.0080           0
   58843 WT3  5788 TIP3 H2   HT     0.417000        1.0080           0
   58844 WT3  5789 TIP3 OH2  OT    -0.834000       15.9994           0
   58845 WT3  5789 TIP3 H1   HT     0.417000        1.0080           0
   58846 WT3  5789 TIP3 H2   HT     0.417000        1.0080           0
   58847 WT3  5791 TIP3 OH2  OT    -0.834000       15.9994           0
   58848 WT3  5791 TIP3 H1   HT     0.417000        1.0080           0
   58849 WT3  5791 TIP3 H2   HT     0.417000        1.0080           0
   58850 WT3  5796 TIP3 OH2  OT    -0.834000       15.9994           0
   58851 WT3  5796 TIP3 H1   HT     0.417000        1.0080           0
   58852 WT3  5796 TIP3 H2   HT     0.417000        1.0080           0
   58853 WT3  5797 TIP3 OH2  OT    -0.834000       15.9994           0
   58854 WT3  5797 TIP3 H1   HT     0.417000        1.0080           0
   58855 WT3  5797 TIP3 H2   HT     0.417000        1.0080           0
   58856 WT3  5799 TIP3 OH2  OT    -0.834000       15.9994           0
   58857 WT3  5799 TIP3 H1   HT     0.417000        1.0080           0
   58858 WT3  5799 TIP3 H2   HT     0.417000        1.0080           0
   58859 WT3  5801 TIP3 OH2  OT    -0.834000       15.9994           0
   58860 WT3  5801 TIP3 H1   HT     0.417000        1.0080           0
   58861 WT3  5801 TIP3 H2   HT     0.417000        1.0080           0
   58862 WT3  5802 TIP3 OH2  OT    -0.834000       15.9994           0
   58863 WT3  5802 TIP3 H1   HT     0.417000        1.0080           0
   58864 WT3  5802 TIP3 H2   HT     0.417000        1.0080           0
   58865 WT3  5803 TIP3 OH2  OT    -0.834000       15.9994           0
   58866 WT3  5803 TIP3 H1   HT     0.417000        1.0080           0
   58867 WT3  5803 TIP3 H2   HT     0.417000        1.0080           0
   58868 WT3  5804 TIP3 OH2  OT    -0.834000       15.9994           0
   58869 WT3  5804 TIP3 H1   HT     0.417000        1.0080           0
   58870 WT3  5804 TIP3 H2   HT     0.417000        1.0080           0
   58871 WT3  5805 TIP3 OH2  OT    -0.834000       15.9994           0
   58872 WT3  5805 TIP3 H1   HT     0.417000        1.0080           0
   58873 WT3  5805 TIP3 H2   HT     0.417000        1.0080           0
   58874 WT3  5806 TIP3 OH2  OT    -0.834000       15.9994           0
   58875 WT3  5806 TIP3 H1   HT     0.417000        1.0080           0
   58876 WT3  5806 TIP3 H2   HT     0.417000        1.0080           0
   58877 WT3  5807 TIP3 OH2  OT    -0.834000       15.9994           0
   58878 WT3  5807 TIP3 H1   HT     0.417000        1.0080           0
   58879 WT3  5807 TIP3 H2   HT     0.417000        1.0080           0
   58880 WT3  5808 TIP3 OH2  OT    -0.834000       15.9994           0
   58881 WT3  5808 TIP3 H1   HT     0.417000        1.0080           0
   58882 WT3  5808 TIP3 H2   HT     0.417000        1.0080           0
   58883 WT3  5809 TIP3 OH2  OT    -0.834000       15.9994           0
   58884 WT3  5809 TIP3 H1   HT     0.417000        1.0080           0
   58885 WT3  5809 TIP3 H2   HT     0.417000        1.0080           0
   58886 WT3  5812 TIP3 OH2  OT    -0.834000       15.9994           0
   58887 WT3  5812 TIP3 H1   HT     0.417000        1.0080           0
   58888 WT3  5812 TIP3 H2   HT     0.417000        1.0080           0
   58889 WT3  5819 TIP3 OH2  OT    -0.834000       15.9994           0
   58890 WT3  5819 TIP3 H1   HT     0.417000        1.0080           0
   58891 WT3  5819 TIP3 H2   HT     0.417000        1.0080           0
   58892 WT3  5820 TIP3 OH2  OT    -0.834000       15.9994           0
   58893 WT3  5820 TIP3 H1   HT     0.417000        1.0080           0
   58894 WT3  5820 TIP3 H2   HT     0.417000        1.0080           0
   58895 WT3  5821 TIP3 OH2  OT    -0.834000       15.9994           0
   58896 WT3  5821 TIP3 H1   HT     0.417000        1.0080           0
   58897 WT3  5821 TIP3 H2   HT     0.417000        1.0080           0
   58898 WT3  5822 TIP3 OH2  OT    -0.834000       15.9994           0
   58899 WT3  5822 TIP3 H1   HT     0.417000        1.0080           0
   58900 WT3  5822 TIP3 H2   HT     0.417000        1.0080           0
   58901 WT3  5823 TIP3 OH2  OT    -0.834000       15.9994           0
   58902 WT3  5823 TIP3 H1   HT     0.417000        1.0080           0
   58903 WT3  5823 TIP3 H2   HT     0.417000        1.0080           0
   58904 WT3  5824 TIP3 OH2  OT    -0.834000       15.9994           0
   58905 WT3  5824 TIP3 H1   HT     0.417000        1.0080           0
   58906 WT3  5824 TIP3 H2   HT     0.417000        1.0080           0
   58907 WT3  5825 TIP3 OH2  OT    -0.834000       15.9994           0
   58908 WT3  5825 TIP3 H1   HT     0.417000        1.0080           0
   58909 WT3  5825 TIP3 H2   HT     0.417000        1.0080           0
   58910 WT3  5826 TIP3 OH2  OT    -0.834000       15.9994           0
   58911 WT3  5826 TIP3 H1   HT     0.417000        1.0080           0
   58912 WT3  5826 TIP3 H2   HT     0.417000        1.0080           0
   58913 WT3  5827 TIP3 OH2  OT    -0.834000       15.9994           0
   58914 WT3  5827 TIP3 H1   HT     0.417000        1.0080           0
   58915 WT3  5827 TIP3 H2   HT     0.417000        1.0080           0
   58916 WT3  5828 TIP3 OH2  OT    -0.834000       15.9994           0
   58917 WT3  5828 TIP3 H1   HT     0.417000        1.0080           0
   58918 WT3  5828 TIP3 H2   HT     0.417000        1.0080           0
   58919 WT3  5829 TIP3 OH2  OT    -0.834000       15.9994           0
   58920 WT3  5829 TIP3 H1   HT     0.417000        1.0080           0
   58921 WT3  5829 TIP3 H2   HT     0.417000        1.0080           0
   58922 WT3  5831 TIP3 OH2  OT    -0.834000       15.9994           0
   58923 WT3  5831 TIP3 H1   HT     0.417000        1.0080           0
   58924 WT3  5831 TIP3 H2   HT     0.417000        1.0080           0
   58925 WT3  5832 TIP3 OH2  OT    -0.834000       15.9994           0
   58926 WT3  5832 TIP3 H1   HT     0.417000        1.0080           0
   58927 WT3  5832 TIP3 H2   HT     0.417000        1.0080           0
   58928 WT3  5834 TIP3 OH2  OT    -0.834000       15.9994           0
   58929 WT3  5834 TIP3 H1   HT     0.417000        1.0080           0
   58930 WT3  5834 TIP3 H2   HT     0.417000        1.0080           0
   58931 WT3  5835 TIP3 OH2  OT    -0.834000       15.9994           0
   58932 WT3  5835 TIP3 H1   HT     0.417000        1.0080           0
   58933 WT3  5835 TIP3 H2   HT     0.417000        1.0080           0
   58934 WT3  5836 TIP3 OH2  OT    -0.834000       15.9994           0
   58935 WT3  5836 TIP3 H1   HT     0.417000        1.0080           0
   58936 WT3  5836 TIP3 H2   HT     0.417000        1.0080           0
   58937 WT3  5837 TIP3 OH2  OT    -0.834000       15.9994           0
   58938 WT3  5837 TIP3 H1   HT     0.417000        1.0080           0
   58939 WT3  5837 TIP3 H2   HT     0.417000        1.0080           0
   58940 WT3  5839 TIP3 OH2  OT    -0.834000       15.9994           0
   58941 WT3  5839 TIP3 H1   HT     0.417000        1.0080           0
   58942 WT3  5839 TIP3 H2   HT     0.417000        1.0080           0
   58943 WT3  5841 TIP3 OH2  OT    -0.834000       15.9994           0
   58944 WT3  5841 TIP3 H1   HT     0.417000        1.0080           0
   58945 WT3  5841 TIP3 H2   HT     0.417000        1.0080           0
   58946 WT3  5842 TIP3 OH2  OT    -0.834000       15.9994           0
   58947 WT3  5842 TIP3 H1   HT     0.417000        1.0080           0
   58948 WT3  5842 TIP3 H2   HT     0.417000        1.0080           0
   58949 WT3  5843 TIP3 OH2  OT    -0.834000       15.9994           0
   58950 WT3  5843 TIP3 H1   HT     0.417000        1.0080           0
   58951 WT3  5843 TIP3 H2   HT     0.417000        1.0080           0
   58952 WT3  5844 TIP3 OH2  OT    -0.834000       15.9994           0
   58953 WT3  5844 TIP3 H1   HT     0.417000        1.0080           0
   58954 WT3  5844 TIP3 H2   HT     0.417000        1.0080           0
   58955 WT3  5846 TIP3 OH2  OT    -0.834000       15.9994           0
   58956 WT3  5846 TIP3 H1   HT     0.417000        1.0080           0
   58957 WT3  5846 TIP3 H2   HT     0.417000        1.0080           0
   58958 WT3  5847 TIP3 OH2  OT    -0.834000       15.9994           0
   58959 WT3  5847 TIP3 H1   HT     0.417000        1.0080           0
   58960 WT3  5847 TIP3 H2   HT     0.417000        1.0080           0
   58961 WT3  5848 TIP3 OH2  OT    -0.834000       15.9994           0
   58962 WT3  5848 TIP3 H1   HT     0.417000        1.0080           0
   58963 WT3  5848 TIP3 H2   HT     0.417000        1.0080           0
   58964 WT3  5849 TIP3 OH2  OT    -0.834000       15.9994           0
   58965 WT3  5849 TIP3 H1   HT     0.417000        1.0080           0
   58966 WT3  5849 TIP3 H2   HT     0.417000        1.0080           0
   58967 WT3  5850 TIP3 OH2  OT    -0.834000       15.9994           0
   58968 WT3  5850 TIP3 H1   HT     0.417000        1.0080           0
   58969 WT3  5850 TIP3 H2   HT     0.417000        1.0080           0
   58970 WT3  5859 TIP3 OH2  OT    -0.834000       15.9994           0
   58971 WT3  5859 TIP3 H1   HT     0.417000        1.0080           0
   58972 WT3  5859 TIP3 H2   HT     0.417000        1.0080           0
   58973 WT3  5861 TIP3 OH2  OT    -0.834000       15.9994           0
   58974 WT3  5861 TIP3 H1   HT     0.417000        1.0080           0
   58975 WT3  5861 TIP3 H2   HT     0.417000        1.0080           0
   58976 WT3  5862 TIP3 OH2  OT    -0.834000       15.9994           0
   58977 WT3  5862 TIP3 H1   HT     0.417000        1.0080           0
   58978 WT3  5862 TIP3 H2   HT     0.417000        1.0080           0
   58979 WT3  5863 TIP3 OH2  OT    -0.834000       15.9994           0
   58980 WT3  5863 TIP3 H1   HT     0.417000        1.0080           0
   58981 WT3  5863 TIP3 H2   HT     0.417000        1.0080           0
   58982 WT3  5864 TIP3 OH2  OT    -0.834000       15.9994           0
   58983 WT3  5864 TIP3 H1   HT     0.417000        1.0080           0
   58984 WT3  5864 TIP3 H2   HT     0.417000        1.0080           0
   58985 WT3  5865 TIP3 OH2  OT    -0.834000       15.9994           0
   58986 WT3  5865 TIP3 H1   HT     0.417000        1.0080           0
   58987 WT3  5865 TIP3 H2   HT     0.417000        1.0080           0
   58988 WT3  5866 TIP3 OH2  OT    -0.834000       15.9994           0
   58989 WT3  5866 TIP3 H1   HT     0.417000        1.0080           0
   58990 WT3  5866 TIP3 H2   HT     0.417000        1.0080           0
   58991 WT3  5867 TIP3 OH2  OT    -0.834000       15.9994           0
   58992 WT3  5867 TIP3 H1   HT     0.417000        1.0080           0
   58993 WT3  5867 TIP3 H2   HT     0.417000        1.0080           0
   58994 WT3  5868 TIP3 OH2  OT    -0.834000       15.9994           0
   58995 WT3  5868 TIP3 H1   HT     0.417000        1.0080           0
   58996 WT3  5868 TIP3 H2   HT     0.417000        1.0080           0
   58997 WT3  5870 TIP3 OH2  OT    -0.834000       15.9994           0
   58998 WT3  5870 TIP3 H1   HT     0.417000        1.0080           0
   58999 WT3  5870 TIP3 H2   HT     0.417000        1.0080           0
   59000 WT3  5871 TIP3 OH2  OT    -0.834000       15.9994           0
   59001 WT3  5871 TIP3 H1   HT     0.417000        1.0080           0
   59002 WT3  5871 TIP3 H2   HT     0.417000        1.0080           0
   59003 WT3  5873 TIP3 OH2  OT    -0.834000       15.9994           0
   59004 WT3  5873 TIP3 H1   HT     0.417000        1.0080           0
   59005 WT3  5873 TIP3 H2   HT     0.417000        1.0080           0
   59006 WT3  5874 TIP3 OH2  OT    -0.834000       15.9994           0
   59007 WT3  5874 TIP3 H1   HT     0.417000        1.0080           0
   59008 WT3  5874 TIP3 H2   HT     0.417000        1.0080           0
   59009 WT3  5881 TIP3 OH2  OT    -0.834000       15.9994           0
   59010 WT3  5881 TIP3 H1   HT     0.417000        1.0080           0
   59011 WT3  5881 TIP3 H2   HT     0.417000        1.0080           0
   59012 WT3  5883 TIP3 OH2  OT    -0.834000       15.9994           0
   59013 WT3  5883 TIP3 H1   HT     0.417000        1.0080           0
   59014 WT3  5883 TIP3 H2   HT     0.417000        1.0080           0
   59015 WT3  5884 TIP3 OH2  OT    -0.834000       15.9994           0
   59016 WT3  5884 TIP3 H1   HT     0.417000        1.0080           0
   59017 WT3  5884 TIP3 H2   HT     0.417000        1.0080           0
   59018 WT3  5885 TIP3 OH2  OT    -0.834000       15.9994           0
   59019 WT3  5885 TIP3 H1   HT     0.417000        1.0080           0
   59020 WT3  5885 TIP3 H2   HT     0.417000        1.0080           0
   59021 WT3  5886 TIP3 OH2  OT    -0.834000       15.9994           0
   59022 WT3  5886 TIP3 H1   HT     0.417000        1.0080           0
   59023 WT3  5886 TIP3 H2   HT     0.417000        1.0080           0
   59024 WT3  5888 TIP3 OH2  OT    -0.834000       15.9994           0
   59025 WT3  5888 TIP3 H1   HT     0.417000        1.0080           0
   59026 WT3  5888 TIP3 H2   HT     0.417000        1.0080           0
   59027 WT3  5889 TIP3 OH2  OT    -0.834000       15.9994           0
   59028 WT3  5889 TIP3 H1   HT     0.417000        1.0080           0
   59029 WT3  5889 TIP3 H2   HT     0.417000        1.0080           0
   59030 WT3  5890 TIP3 OH2  OT    -0.834000       15.9994           0
   59031 WT3  5890 TIP3 H1   HT     0.417000        1.0080           0
   59032 WT3  5890 TIP3 H2   HT     0.417000        1.0080           0
   59033 WT3  5891 TIP3 OH2  OT    -0.834000       15.9994           0
   59034 WT3  5891 TIP3 H1   HT     0.417000        1.0080           0
   59035 WT3  5891 TIP3 H2   HT     0.417000        1.0080           0
   59036 WT3  5893 TIP3 OH2  OT    -0.834000       15.9994           0
   59037 WT3  5893 TIP3 H1   HT     0.417000        1.0080           0
   59038 WT3  5893 TIP3 H2   HT     0.417000        1.0080           0
   59039 WT3  5895 TIP3 OH2  OT    -0.834000       15.9994           0
   59040 WT3  5895 TIP3 H1   HT     0.417000        1.0080           0
   59041 WT3  5895 TIP3 H2   HT     0.417000        1.0080           0
   59042 WT3  5896 TIP3 OH2  OT    -0.834000       15.9994           0
   59043 WT3  5896 TIP3 H1   HT     0.417000        1.0080           0
   59044 WT3  5896 TIP3 H2   HT     0.417000        1.0080           0
   59045 WT3  5897 TIP3 OH2  OT    -0.834000       15.9994           0
   59046 WT3  5897 TIP3 H1   HT     0.417000        1.0080           0
   59047 WT3  5897 TIP3 H2   HT     0.417000        1.0080           0
   59048 WT3  5899 TIP3 OH2  OT    -0.834000       15.9994           0
   59049 WT3  5899 TIP3 H1   HT     0.417000        1.0080           0
   59050 WT3  5899 TIP3 H2   HT     0.417000        1.0080           0
   59051 WT3  5904 TIP3 OH2  OT    -0.834000       15.9994           0
   59052 WT3  5904 TIP3 H1   HT     0.417000        1.0080           0
   59053 WT3  5904 TIP3 H2   HT     0.417000        1.0080           0
   59054 WT3  5907 TIP3 OH2  OT    -0.834000       15.9994           0
   59055 WT3  5907 TIP3 H1   HT     0.417000        1.0080           0
   59056 WT3  5907 TIP3 H2   HT     0.417000        1.0080           0
   59057 WT3  5908 TIP3 OH2  OT    -0.834000       15.9994           0
   59058 WT3  5908 TIP3 H1   HT     0.417000        1.0080           0
   59059 WT3  5908 TIP3 H2   HT     0.417000        1.0080           0
   59060 WT3  5909 TIP3 OH2  OT    -0.834000       15.9994           0
   59061 WT3  5909 TIP3 H1   HT     0.417000        1.0080           0
   59062 WT3  5909 TIP3 H2   HT     0.417000        1.0080           0
   59063 WT3  5910 TIP3 OH2  OT    -0.834000       15.9994           0
   59064 WT3  5910 TIP3 H1   HT     0.417000        1.0080           0
   59065 WT3  5910 TIP3 H2   HT     0.417000        1.0080           0
   59066 WT3  5911 TIP3 OH2  OT    -0.834000       15.9994           0
   59067 WT3  5911 TIP3 H1   HT     0.417000        1.0080           0
   59068 WT3  5911 TIP3 H2   HT     0.417000        1.0080           0
   59069 WT3  5912 TIP3 OH2  OT    -0.834000       15.9994           0
   59070 WT3  5912 TIP3 H1   HT     0.417000        1.0080           0
   59071 WT3  5912 TIP3 H2   HT     0.417000        1.0080           0
   59072 WT3  5913 TIP3 OH2  OT    -0.834000       15.9994           0
   59073 WT3  5913 TIP3 H1   HT     0.417000        1.0080           0
   59074 WT3  5913 TIP3 H2   HT     0.417000        1.0080           0
   59075 WT3  5916 TIP3 OH2  OT    -0.834000       15.9994           0
   59076 WT3  5916 TIP3 H1   HT     0.417000        1.0080           0
   59077 WT3  5916 TIP3 H2   HT     0.417000        1.0080           0
   59078 WT3  5919 TIP3 OH2  OT    -0.834000       15.9994           0
   59079 WT3  5919 TIP3 H1   HT     0.417000        1.0080           0
   59080 WT3  5919 TIP3 H2   HT     0.417000        1.0080           0
   59081 WT3  5920 TIP3 OH2  OT    -0.834000       15.9994           0
   59082 WT3  5920 TIP3 H1   HT     0.417000        1.0080           0
   59083 WT3  5920 TIP3 H2   HT     0.417000        1.0080           0
   59084 WT3  5924 TIP3 OH2  OT    -0.834000       15.9994           0
   59085 WT3  5924 TIP3 H1   HT     0.417000        1.0080           0
   59086 WT3  5924 TIP3 H2   HT     0.417000        1.0080           0
   59087 WT3  5925 TIP3 OH2  OT    -0.834000       15.9994           0
   59088 WT3  5925 TIP3 H1   HT     0.417000        1.0080           0
   59089 WT3  5925 TIP3 H2   HT     0.417000        1.0080           0
   59090 WT3  5927 TIP3 OH2  OT    -0.834000       15.9994           0
   59091 WT3  5927 TIP3 H1   HT     0.417000        1.0080           0
   59092 WT3  5927 TIP3 H2   HT     0.417000        1.0080           0
   59093 WT3  5928 TIP3 OH2  OT    -0.834000       15.9994           0
   59094 WT3  5928 TIP3 H1   HT     0.417000        1.0080           0
   59095 WT3  5928 TIP3 H2   HT     0.417000        1.0080           0
   59096 WT3  5929 TIP3 OH2  OT    -0.834000       15.9994           0
   59097 WT3  5929 TIP3 H1   HT     0.417000        1.0080           0
   59098 WT3  5929 TIP3 H2   HT     0.417000        1.0080           0
   59099 WT3  5930 TIP3 OH2  OT    -0.834000       15.9994           0
   59100 WT3  5930 TIP3 H1   HT     0.417000        1.0080           0
   59101 WT3  5930 TIP3 H2   HT     0.417000        1.0080           0
   59102 WT3  5931 TIP3 OH2  OT    -0.834000       15.9994           0
   59103 WT3  5931 TIP3 H1   HT     0.417000        1.0080           0
   59104 WT3  5931 TIP3 H2   HT     0.417000        1.0080           0
   59105 WT3  5932 TIP3 OH2  OT    -0.834000       15.9994           0
   59106 WT3  5932 TIP3 H1   HT     0.417000        1.0080           0
   59107 WT3  5932 TIP3 H2   HT     0.417000        1.0080           0
   59108 WT3  5933 TIP3 OH2  OT    -0.834000       15.9994           0
   59109 WT3  5933 TIP3 H1   HT     0.417000        1.0080           0
   59110 WT3  5933 TIP3 H2   HT     0.417000        1.0080           0
   59111 WT3  5934 TIP3 OH2  OT    -0.834000       15.9994           0
   59112 WT3  5934 TIP3 H1   HT     0.417000        1.0080           0
   59113 WT3  5934 TIP3 H2   HT     0.417000        1.0080           0
   59114 WT3  5935 TIP3 OH2  OT    -0.834000       15.9994           0
   59115 WT3  5935 TIP3 H1   HT     0.417000        1.0080           0
   59116 WT3  5935 TIP3 H2   HT     0.417000        1.0080           0
   59117 WT3  5936 TIP3 OH2  OT    -0.834000       15.9994           0
   59118 WT3  5936 TIP3 H1   HT     0.417000        1.0080           0
   59119 WT3  5936 TIP3 H2   HT     0.417000        1.0080           0
   59120 WT3  5937 TIP3 OH2  OT    -0.834000       15.9994           0
   59121 WT3  5937 TIP3 H1   HT     0.417000        1.0080           0
   59122 WT3  5937 TIP3 H2   HT     0.417000        1.0080           0
   59123 WT3  5941 TIP3 OH2  OT    -0.834000       15.9994           0
   59124 WT3  5941 TIP3 H1   HT     0.417000        1.0080           0
   59125 WT3  5941 TIP3 H2   HT     0.417000        1.0080           0
   59126 WT3  5946 TIP3 OH2  OT    -0.834000       15.9994           0
   59127 WT3  5946 TIP3 H1   HT     0.417000        1.0080           0
   59128 WT3  5946 TIP3 H2   HT     0.417000        1.0080           0
   59129 WT3  5947 TIP3 OH2  OT    -0.834000       15.9994           0
   59130 WT3  5947 TIP3 H1   HT     0.417000        1.0080           0
   59131 WT3  5947 TIP3 H2   HT     0.417000        1.0080           0
   59132 WT3  5948 TIP3 OH2  OT    -0.834000       15.9994           0
   59133 WT3  5948 TIP3 H1   HT     0.417000        1.0080           0
   59134 WT3  5948 TIP3 H2   HT     0.417000        1.0080           0
   59135 WT3  5949 TIP3 OH2  OT    -0.834000       15.9994           0
   59136 WT3  5949 TIP3 H1   HT     0.417000        1.0080           0
   59137 WT3  5949 TIP3 H2   HT     0.417000        1.0080           0
   59138 WT3  5950 TIP3 OH2  OT    -0.834000       15.9994           0
   59139 WT3  5950 TIP3 H1   HT     0.417000        1.0080           0
   59140 WT3  5950 TIP3 H2   HT     0.417000        1.0080           0
   59141 WT3  5951 TIP3 OH2  OT    -0.834000       15.9994           0
   59142 WT3  5951 TIP3 H1   HT     0.417000        1.0080           0
   59143 WT3  5951 TIP3 H2   HT     0.417000        1.0080           0
   59144 WT3  5952 TIP3 OH2  OT    -0.834000       15.9994           0
   59145 WT3  5952 TIP3 H1   HT     0.417000        1.0080           0
   59146 WT3  5952 TIP3 H2   HT     0.417000        1.0080           0
   59147 WT3  5953 TIP3 OH2  OT    -0.834000       15.9994           0
   59148 WT3  5953 TIP3 H1   HT     0.417000        1.0080           0
   59149 WT3  5953 TIP3 H2   HT     0.417000        1.0080           0
   59150 WT3  5954 TIP3 OH2  OT    -0.834000       15.9994           0
   59151 WT3  5954 TIP3 H1   HT     0.417000        1.0080           0
   59152 WT3  5954 TIP3 H2   HT     0.417000        1.0080           0
   59153 WT3  5955 TIP3 OH2  OT    -0.834000       15.9994           0
   59154 WT3  5955 TIP3 H1   HT     0.417000        1.0080           0
   59155 WT3  5955 TIP3 H2   HT     0.417000        1.0080           0
   59156 WT3  5956 TIP3 OH2  OT    -0.834000       15.9994           0
   59157 WT3  5956 TIP3 H1   HT     0.417000        1.0080           0
   59158 WT3  5956 TIP3 H2   HT     0.417000        1.0080           0
   59159 WT3  5966 TIP3 OH2  OT    -0.834000       15.9994           0
   59160 WT3  5966 TIP3 H1   HT     0.417000        1.0080           0
   59161 WT3  5966 TIP3 H2   HT     0.417000        1.0080           0
   59162 WT3  5967 TIP3 OH2  OT    -0.834000       15.9994           0
   59163 WT3  5967 TIP3 H1   HT     0.417000        1.0080           0
   59164 WT3  5967 TIP3 H2   HT     0.417000        1.0080           0
   59165 WT3  5968 TIP3 OH2  OT    -0.834000       15.9994           0
   59166 WT3  5968 TIP3 H1   HT     0.417000        1.0080           0
   59167 WT3  5968 TIP3 H2   HT     0.417000        1.0080           0
   59168 WT3  5969 TIP3 OH2  OT    -0.834000       15.9994           0
   59169 WT3  5969 TIP3 H1   HT     0.417000        1.0080           0
   59170 WT3  5969 TIP3 H2   HT     0.417000        1.0080           0
   59171 WT3  5970 TIP3 OH2  OT    -0.834000       15.9994           0
   59172 WT3  5970 TIP3 H1   HT     0.417000        1.0080           0
   59173 WT3  5970 TIP3 H2   HT     0.417000        1.0080           0
   59174 WT3  5971 TIP3 OH2  OT    -0.834000       15.9994           0
   59175 WT3  5971 TIP3 H1   HT     0.417000        1.0080           0
   59176 WT3  5971 TIP3 H2   HT     0.417000        1.0080           0
   59177 WT3  5972 TIP3 OH2  OT    -0.834000       15.9994           0
   59178 WT3  5972 TIP3 H1   HT     0.417000        1.0080           0
   59179 WT3  5972 TIP3 H2   HT     0.417000        1.0080           0
   59180 WT3  5974 TIP3 OH2  OT    -0.834000       15.9994           0
   59181 WT3  5974 TIP3 H1   HT     0.417000        1.0080           0
   59182 WT3  5974 TIP3 H2   HT     0.417000        1.0080           0
   59183 WT3  5975 TIP3 OH2  OT    -0.834000       15.9994           0
   59184 WT3  5975 TIP3 H1   HT     0.417000        1.0080           0
   59185 WT3  5975 TIP3 H2   HT     0.417000        1.0080           0
   59186 WT3  5976 TIP3 OH2  OT    -0.834000       15.9994           0
   59187 WT3  5976 TIP3 H1   HT     0.417000        1.0080           0
   59188 WT3  5976 TIP3 H2   HT     0.417000        1.0080           0
   59189 WT3  5977 TIP3 OH2  OT    -0.834000       15.9994           0
   59190 WT3  5977 TIP3 H1   HT     0.417000        1.0080           0
   59191 WT3  5977 TIP3 H2   HT     0.417000        1.0080           0
   59192 WT3  5978 TIP3 OH2  OT    -0.834000       15.9994           0
   59193 WT3  5978 TIP3 H1   HT     0.417000        1.0080           0
   59194 WT3  5978 TIP3 H2   HT     0.417000        1.0080           0
   59195 WT3  5984 TIP3 OH2  OT    -0.834000       15.9994           0
   59196 WT3  5984 TIP3 H1   HT     0.417000        1.0080           0
   59197 WT3  5984 TIP3 H2   HT     0.417000        1.0080           0
   59198 WT3  5987 TIP3 OH2  OT    -0.834000       15.9994           0
   59199 WT3  5987 TIP3 H1   HT     0.417000        1.0080           0
   59200 WT3  5987 TIP3 H2   HT     0.417000        1.0080           0
   59201 WT3  5988 TIP3 OH2  OT    -0.834000       15.9994           0
   59202 WT3  5988 TIP3 H1   HT     0.417000        1.0080           0
   59203 WT3  5988 TIP3 H2   HT     0.417000        1.0080           0
   59204 WT3  5989 TIP3 OH2  OT    -0.834000       15.9994           0
   59205 WT3  5989 TIP3 H1   HT     0.417000        1.0080           0
   59206 WT3  5989 TIP3 H2   HT     0.417000        1.0080           0
   59207 WT3  5991 TIP3 OH2  OT    -0.834000       15.9994           0
   59208 WT3  5991 TIP3 H1   HT     0.417000        1.0080           0
   59209 WT3  5991 TIP3 H2   HT     0.417000        1.0080           0
   59210 WT3  5993 TIP3 OH2  OT    -0.834000       15.9994           0
   59211 WT3  5993 TIP3 H1   HT     0.417000        1.0080           0
   59212 WT3  5993 TIP3 H2   HT     0.417000        1.0080           0
   59213 WT3  5996 TIP3 OH2  OT    -0.834000       15.9994           0
   59214 WT3  5996 TIP3 H1   HT     0.417000        1.0080           0
   59215 WT3  5996 TIP3 H2   HT     0.417000        1.0080           0
   59216 WT3  5997 TIP3 OH2  OT    -0.834000       15.9994           0
   59217 WT3  5997 TIP3 H1   HT     0.417000        1.0080           0
   59218 WT3  5997 TIP3 H2   HT     0.417000        1.0080           0
   59219 WT3  6001 TIP3 OH2  OT    -0.834000       15.9994           0
   59220 WT3  6001 TIP3 H1   HT     0.417000        1.0080           0
   59221 WT3  6001 TIP3 H2   HT     0.417000        1.0080           0
   59222 WT3  6004 TIP3 OH2  OT    -0.834000       15.9994           0
   59223 WT3  6004 TIP3 H1   HT     0.417000        1.0080           0
   59224 WT3  6004 TIP3 H2   HT     0.417000        1.0080           0
   59225 WT3  6008 TIP3 OH2  OT    -0.834000       15.9994           0
   59226 WT3  6008 TIP3 H1   HT     0.417000        1.0080           0
   59227 WT3  6008 TIP3 H2   HT     0.417000        1.0080           0
   59228 WT3  6009 TIP3 OH2  OT    -0.834000       15.9994           0
   59229 WT3  6009 TIP3 H1   HT     0.417000        1.0080           0
   59230 WT3  6009 TIP3 H2   HT     0.417000        1.0080           0
   59231 WT3  6011 TIP3 OH2  OT    -0.834000       15.9994           0
   59232 WT3  6011 TIP3 H1   HT     0.417000        1.0080           0
   59233 WT3  6011 TIP3 H2   HT     0.417000        1.0080           0
   59234 WT3  6012 TIP3 OH2  OT    -0.834000       15.9994           0
   59235 WT3  6012 TIP3 H1   HT     0.417000        1.0080           0
   59236 WT3  6012 TIP3 H2   HT     0.417000        1.0080           0
   59237 WT3  6013 TIP3 OH2  OT    -0.834000       15.9994           0
   59238 WT3  6013 TIP3 H1   HT     0.417000        1.0080           0
   59239 WT3  6013 TIP3 H2   HT     0.417000        1.0080           0
   59240 WT3  6014 TIP3 OH2  OT    -0.834000       15.9994           0
   59241 WT3  6014 TIP3 H1   HT     0.417000        1.0080           0
   59242 WT3  6014 TIP3 H2   HT     0.417000        1.0080           0
   59243 WT3  6015 TIP3 OH2  OT    -0.834000       15.9994           0
   59244 WT3  6015 TIP3 H1   HT     0.417000        1.0080           0
   59245 WT3  6015 TIP3 H2   HT     0.417000        1.0080           0
   59246 WT3  6016 TIP3 OH2  OT    -0.834000       15.9994           0
   59247 WT3  6016 TIP3 H1   HT     0.417000        1.0080           0
   59248 WT3  6016 TIP3 H2   HT     0.417000        1.0080           0
   59249 WT3  6017 TIP3 OH2  OT    -0.834000       15.9994           0
   59250 WT3  6017 TIP3 H1   HT     0.417000        1.0080           0
   59251 WT3  6017 TIP3 H2   HT     0.417000        1.0080           0
   59252 WT3  6020 TIP3 OH2  OT    -0.834000       15.9994           0
   59253 WT3  6020 TIP3 H1   HT     0.417000        1.0080           0
   59254 WT3  6020 TIP3 H2   HT     0.417000        1.0080           0
   59255 WT3  6021 TIP3 OH2  OT    -0.834000       15.9994           0
   59256 WT3  6021 TIP3 H1   HT     0.417000        1.0080           0
   59257 WT3  6021 TIP3 H2   HT     0.417000        1.0080           0
   59258 WT3  6022 TIP3 OH2  OT    -0.834000       15.9994           0
   59259 WT3  6022 TIP3 H1   HT     0.417000        1.0080           0
   59260 WT3  6022 TIP3 H2   HT     0.417000        1.0080           0
   59261 WT3  6024 TIP3 OH2  OT    -0.834000       15.9994           0
   59262 WT3  6024 TIP3 H1   HT     0.417000        1.0080           0
   59263 WT3  6024 TIP3 H2   HT     0.417000        1.0080           0
   59264 WT3  6026 TIP3 OH2  OT    -0.834000       15.9994           0
   59265 WT3  6026 TIP3 H1   HT     0.417000        1.0080           0
   59266 WT3  6026 TIP3 H2   HT     0.417000        1.0080           0
   59267 WT3  6027 TIP3 OH2  OT    -0.834000       15.9994           0
   59268 WT3  6027 TIP3 H1   HT     0.417000        1.0080           0
   59269 WT3  6027 TIP3 H2   HT     0.417000        1.0080           0
   59270 WT3  6028 TIP3 OH2  OT    -0.834000       15.9994           0
   59271 WT3  6028 TIP3 H1   HT     0.417000        1.0080           0
   59272 WT3  6028 TIP3 H2   HT     0.417000        1.0080           0
   59273 WT3  6029 TIP3 OH2  OT    -0.834000       15.9994           0
   59274 WT3  6029 TIP3 H1   HT     0.417000        1.0080           0
   59275 WT3  6029 TIP3 H2   HT     0.417000        1.0080           0
   59276 WT3  6030 TIP3 OH2  OT    -0.834000       15.9994           0
   59277 WT3  6030 TIP3 H1   HT     0.417000        1.0080           0
   59278 WT3  6030 TIP3 H2   HT     0.417000        1.0080           0
   59279 WT3  6031 TIP3 OH2  OT    -0.834000       15.9994           0
   59280 WT3  6031 TIP3 H1   HT     0.417000        1.0080           0
   59281 WT3  6031 TIP3 H2   HT     0.417000        1.0080           0
   59282 WT3  6033 TIP3 OH2  OT    -0.834000       15.9994           0
   59283 WT3  6033 TIP3 H1   HT     0.417000        1.0080           0
   59284 WT3  6033 TIP3 H2   HT     0.417000        1.0080           0
   59285 WT3  6034 TIP3 OH2  OT    -0.834000       15.9994           0
   59286 WT3  6034 TIP3 H1   HT     0.417000        1.0080           0
   59287 WT3  6034 TIP3 H2   HT     0.417000        1.0080           0
   59288 WT3  6035 TIP3 OH2  OT    -0.834000       15.9994           0
   59289 WT3  6035 TIP3 H1   HT     0.417000        1.0080           0
   59290 WT3  6035 TIP3 H2   HT     0.417000        1.0080           0
   59291 WT3  6037 TIP3 OH2  OT    -0.834000       15.9994           0
   59292 WT3  6037 TIP3 H1   HT     0.417000        1.0080           0
   59293 WT3  6037 TIP3 H2   HT     0.417000        1.0080           0
   59294 WT3  6038 TIP3 OH2  OT    -0.834000       15.9994           0
   59295 WT3  6038 TIP3 H1   HT     0.417000        1.0080           0
   59296 WT3  6038 TIP3 H2   HT     0.417000        1.0080           0
   59297 WT3  6039 TIP3 OH2  OT    -0.834000       15.9994           0
   59298 WT3  6039 TIP3 H1   HT     0.417000        1.0080           0
   59299 WT3  6039 TIP3 H2   HT     0.417000        1.0080           0
   59300 WT3  6041 TIP3 OH2  OT    -0.834000       15.9994           0
   59301 WT3  6041 TIP3 H1   HT     0.417000        1.0080           0
   59302 WT3  6041 TIP3 H2   HT     0.417000        1.0080           0
   59303 WT3  6042 TIP3 OH2  OT    -0.834000       15.9994           0
   59304 WT3  6042 TIP3 H1   HT     0.417000        1.0080           0
   59305 WT3  6042 TIP3 H2   HT     0.417000        1.0080           0
   59306 WT3  6044 TIP3 OH2  OT    -0.834000       15.9994           0
   59307 WT3  6044 TIP3 H1   HT     0.417000        1.0080           0
   59308 WT3  6044 TIP3 H2   HT     0.417000        1.0080           0
   59309 WT3  6046 TIP3 OH2  OT    -0.834000       15.9994           0
   59310 WT3  6046 TIP3 H1   HT     0.417000        1.0080           0
   59311 WT3  6046 TIP3 H2   HT     0.417000        1.0080           0
   59312 WT3  6047 TIP3 OH2  OT    -0.834000       15.9994           0
   59313 WT3  6047 TIP3 H1   HT     0.417000        1.0080           0
   59314 WT3  6047 TIP3 H2   HT     0.417000        1.0080           0
   59315 WT3  6050 TIP3 OH2  OT    -0.834000       15.9994           0
   59316 WT3  6050 TIP3 H1   HT     0.417000        1.0080           0
   59317 WT3  6050 TIP3 H2   HT     0.417000        1.0080           0
   59318 WT3  6051 TIP3 OH2  OT    -0.834000       15.9994           0
   59319 WT3  6051 TIP3 H1   HT     0.417000        1.0080           0
   59320 WT3  6051 TIP3 H2   HT     0.417000        1.0080           0
   59321 WT3  6054 TIP3 OH2  OT    -0.834000       15.9994           0
   59322 WT3  6054 TIP3 H1   HT     0.417000        1.0080           0
   59323 WT3  6054 TIP3 H2   HT     0.417000        1.0080           0
   59324 WT3  6055 TIP3 OH2  OT    -0.834000       15.9994           0
   59325 WT3  6055 TIP3 H1   HT     0.417000        1.0080           0
   59326 WT3  6055 TIP3 H2   HT     0.417000        1.0080           0
   59327 WT3  6057 TIP3 OH2  OT    -0.834000       15.9994           0
   59328 WT3  6057 TIP3 H1   HT     0.417000        1.0080           0
   59329 WT3  6057 TIP3 H2   HT     0.417000        1.0080           0
   59330 WT3  6058 TIP3 OH2  OT    -0.834000       15.9994           0
   59331 WT3  6058 TIP3 H1   HT     0.417000        1.0080           0
   59332 WT3  6058 TIP3 H2   HT     0.417000        1.0080           0
   59333 WT3  6059 TIP3 OH2  OT    -0.834000       15.9994           0
   59334 WT3  6059 TIP3 H1   HT     0.417000        1.0080           0
   59335 WT3  6059 TIP3 H2   HT     0.417000        1.0080           0
   59336 WT3  6060 TIP3 OH2  OT    -0.834000       15.9994           0
   59337 WT3  6060 TIP3 H1   HT     0.417000        1.0080           0
   59338 WT3  6060 TIP3 H2   HT     0.417000        1.0080           0
   59339 WT3  6068 TIP3 OH2  OT    -0.834000       15.9994           0
   59340 WT3  6068 TIP3 H1   HT     0.417000        1.0080           0
   59341 WT3  6068 TIP3 H2   HT     0.417000        1.0080           0
   59342 WT3  6072 TIP3 OH2  OT    -0.834000       15.9994           0
   59343 WT3  6072 TIP3 H1   HT     0.417000        1.0080           0
   59344 WT3  6072 TIP3 H2   HT     0.417000        1.0080           0
   59345 WT3  6073 TIP3 OH2  OT    -0.834000       15.9994           0
   59346 WT3  6073 TIP3 H1   HT     0.417000        1.0080           0
   59347 WT3  6073 TIP3 H2   HT     0.417000        1.0080           0
   59348 WT3  6074 TIP3 OH2  OT    -0.834000       15.9994           0
   59349 WT3  6074 TIP3 H1   HT     0.417000        1.0080           0
   59350 WT3  6074 TIP3 H2   HT     0.417000        1.0080           0
   59351 WT3  6075 TIP3 OH2  OT    -0.834000       15.9994           0
   59352 WT3  6075 TIP3 H1   HT     0.417000        1.0080           0
   59353 WT3  6075 TIP3 H2   HT     0.417000        1.0080           0
   59354 WT3  6077 TIP3 OH2  OT    -0.834000       15.9994           0
   59355 WT3  6077 TIP3 H1   HT     0.417000        1.0080           0
   59356 WT3  6077 TIP3 H2   HT     0.417000        1.0080           0
   59357 WT3  6078 TIP3 OH2  OT    -0.834000       15.9994           0
   59358 WT3  6078 TIP3 H1   HT     0.417000        1.0080           0
   59359 WT3  6078 TIP3 H2   HT     0.417000        1.0080           0
   59360 WT3  6079 TIP3 OH2  OT    -0.834000       15.9994           0
   59361 WT3  6079 TIP3 H1   HT     0.417000        1.0080           0
   59362 WT3  6079 TIP3 H2   HT     0.417000        1.0080           0
   59363 WT3  6080 TIP3 OH2  OT    -0.834000       15.9994           0
   59364 WT3  6080 TIP3 H1   HT     0.417000        1.0080           0
   59365 WT3  6080 TIP3 H2   HT     0.417000        1.0080           0
   59366 WT3  6084 TIP3 OH2  OT    -0.834000       15.9994           0
   59367 WT3  6084 TIP3 H1   HT     0.417000        1.0080           0
   59368 WT3  6084 TIP3 H2   HT     0.417000        1.0080           0
   59369 WT3  6085 TIP3 OH2  OT    -0.834000       15.9994           0
   59370 WT3  6085 TIP3 H1   HT     0.417000        1.0080           0
   59371 WT3  6085 TIP3 H2   HT     0.417000        1.0080           0
   59372 WT3  6089 TIP3 OH2  OT    -0.834000       15.9994           0
   59373 WT3  6089 TIP3 H1   HT     0.417000        1.0080           0
   59374 WT3  6089 TIP3 H2   HT     0.417000        1.0080           0
   59375 WT3  6091 TIP3 OH2  OT    -0.834000       15.9994           0
   59376 WT3  6091 TIP3 H1   HT     0.417000        1.0080           0
   59377 WT3  6091 TIP3 H2   HT     0.417000        1.0080           0
   59378 WT3  6092 TIP3 OH2  OT    -0.834000       15.9994           0
   59379 WT3  6092 TIP3 H1   HT     0.417000        1.0080           0
   59380 WT3  6092 TIP3 H2   HT     0.417000        1.0080           0
   59381 WT3  6093 TIP3 OH2  OT    -0.834000       15.9994           0
   59382 WT3  6093 TIP3 H1   HT     0.417000        1.0080           0
   59383 WT3  6093 TIP3 H2   HT     0.417000        1.0080           0
   59384 WT3  6095 TIP3 OH2  OT    -0.834000       15.9994           0
   59385 WT3  6095 TIP3 H1   HT     0.417000        1.0080           0
   59386 WT3  6095 TIP3 H2   HT     0.417000        1.0080           0
   59387 WT3  6096 TIP3 OH2  OT    -0.834000       15.9994           0
   59388 WT3  6096 TIP3 H1   HT     0.417000        1.0080           0
   59389 WT3  6096 TIP3 H2   HT     0.417000        1.0080           0
   59390 WT3  6097 TIP3 OH2  OT    -0.834000       15.9994           0
   59391 WT3  6097 TIP3 H1   HT     0.417000        1.0080           0
   59392 WT3  6097 TIP3 H2   HT     0.417000        1.0080           0
   59393 WT3  6098 TIP3 OH2  OT    -0.834000       15.9994           0
   59394 WT3  6098 TIP3 H1   HT     0.417000        1.0080           0
   59395 WT3  6098 TIP3 H2   HT     0.417000        1.0080           0
   59396 WT3  6100 TIP3 OH2  OT    -0.834000       15.9994           0
   59397 WT3  6100 TIP3 H1   HT     0.417000        1.0080           0
   59398 WT3  6100 TIP3 H2   HT     0.417000        1.0080           0
   59399 WT3  6101 TIP3 OH2  OT    -0.834000       15.9994           0
   59400 WT3  6101 TIP3 H1   HT     0.417000        1.0080           0
   59401 WT3  6101 TIP3 H2   HT     0.417000        1.0080           0
   59402 WT3  6102 TIP3 OH2  OT    -0.834000       15.9994           0
   59403 WT3  6102 TIP3 H1   HT     0.417000        1.0080           0
   59404 WT3  6102 TIP3 H2   HT     0.417000        1.0080           0
   59405 WT3  6103 TIP3 OH2  OT    -0.834000       15.9994           0
   59406 WT3  6103 TIP3 H1   HT     0.417000        1.0080           0
   59407 WT3  6103 TIP3 H2   HT     0.417000        1.0080           0
   59408 WT3  6104 TIP3 OH2  OT    -0.834000       15.9994           0
   59409 WT3  6104 TIP3 H1   HT     0.417000        1.0080           0
   59410 WT3  6104 TIP3 H2   HT     0.417000        1.0080           0
   59411 WT3  6108 TIP3 OH2  OT    -0.834000       15.9994           0
   59412 WT3  6108 TIP3 H1   HT     0.417000        1.0080           0
   59413 WT3  6108 TIP3 H2   HT     0.417000        1.0080           0
   59414 WT3  6110 TIP3 OH2  OT    -0.834000       15.9994           0
   59415 WT3  6110 TIP3 H1   HT     0.417000        1.0080           0
   59416 WT3  6110 TIP3 H2   HT     0.417000        1.0080           0
   59417 WT3  6112 TIP3 OH2  OT    -0.834000       15.9994           0
   59418 WT3  6112 TIP3 H1   HT     0.417000        1.0080           0
   59419 WT3  6112 TIP3 H2   HT     0.417000        1.0080           0
   59420 WT3  6113 TIP3 OH2  OT    -0.834000       15.9994           0
   59421 WT3  6113 TIP3 H1   HT     0.417000        1.0080           0
   59422 WT3  6113 TIP3 H2   HT     0.417000        1.0080           0
   59423 WT3  6114 TIP3 OH2  OT    -0.834000       15.9994           0
   59424 WT3  6114 TIP3 H1   HT     0.417000        1.0080           0
   59425 WT3  6114 TIP3 H2   HT     0.417000        1.0080           0
   59426 WT3  6115 TIP3 OH2  OT    -0.834000       15.9994           0
   59427 WT3  6115 TIP3 H1   HT     0.417000        1.0080           0
   59428 WT3  6115 TIP3 H2   HT     0.417000        1.0080           0
   59429 WT3  6116 TIP3 OH2  OT    -0.834000       15.9994           0
   59430 WT3  6116 TIP3 H1   HT     0.417000        1.0080           0
   59431 WT3  6116 TIP3 H2   HT     0.417000        1.0080           0
   59432 WT3  6118 TIP3 OH2  OT    -0.834000       15.9994           0
   59433 WT3  6118 TIP3 H1   HT     0.417000        1.0080           0
   59434 WT3  6118 TIP3 H2   HT     0.417000        1.0080           0
   59435 WT3  6119 TIP3 OH2  OT    -0.834000       15.9994           0
   59436 WT3  6119 TIP3 H1   HT     0.417000        1.0080           0
   59437 WT3  6119 TIP3 H2   HT     0.417000        1.0080           0
   59438 WT3  6120 TIP3 OH2  OT    -0.834000       15.9994           0
   59439 WT3  6120 TIP3 H1   HT     0.417000        1.0080           0
   59440 WT3  6120 TIP3 H2   HT     0.417000        1.0080           0
   59441 WT3  6121 TIP3 OH2  OT    -0.834000       15.9994           0
   59442 WT3  6121 TIP3 H1   HT     0.417000        1.0080           0
   59443 WT3  6121 TIP3 H2   HT     0.417000        1.0080           0
   59444 WT3  6122 TIP3 OH2  OT    -0.834000       15.9994           0
   59445 WT3  6122 TIP3 H1   HT     0.417000        1.0080           0
   59446 WT3  6122 TIP3 H2   HT     0.417000        1.0080           0
   59447 WT3  6123 TIP3 OH2  OT    -0.834000       15.9994           0
   59448 WT3  6123 TIP3 H1   HT     0.417000        1.0080           0
   59449 WT3  6123 TIP3 H2   HT     0.417000        1.0080           0
   59450 WT3  6124 TIP3 OH2  OT    -0.834000       15.9994           0
   59451 WT3  6124 TIP3 H1   HT     0.417000        1.0080           0
   59452 WT3  6124 TIP3 H2   HT     0.417000        1.0080           0
   59453 WT3  6127 TIP3 OH2  OT    -0.834000       15.9994           0
   59454 WT3  6127 TIP3 H1   HT     0.417000        1.0080           0
   59455 WT3  6127 TIP3 H2   HT     0.417000        1.0080           0
   59456 WT3  6128 TIP3 OH2  OT    -0.834000       15.9994           0
   59457 WT3  6128 TIP3 H1   HT     0.417000        1.0080           0
   59458 WT3  6128 TIP3 H2   HT     0.417000        1.0080           0
   59459 WT3  6132 TIP3 OH2  OT    -0.834000       15.9994           0
   59460 WT3  6132 TIP3 H1   HT     0.417000        1.0080           0
   59461 WT3  6132 TIP3 H2   HT     0.417000        1.0080           0
   59462 WT3  6133 TIP3 OH2  OT    -0.834000       15.9994           0
   59463 WT3  6133 TIP3 H1   HT     0.417000        1.0080           0
   59464 WT3  6133 TIP3 H2   HT     0.417000        1.0080           0
   59465 WT3  6135 TIP3 OH2  OT    -0.834000       15.9994           0
   59466 WT3  6135 TIP3 H1   HT     0.417000        1.0080           0
   59467 WT3  6135 TIP3 H2   HT     0.417000        1.0080           0
   59468 WT3  6136 TIP3 OH2  OT    -0.834000       15.9994           0
   59469 WT3  6136 TIP3 H1   HT     0.417000        1.0080           0
   59470 WT3  6136 TIP3 H2   HT     0.417000        1.0080           0
   59471 WT3  6137 TIP3 OH2  OT    -0.834000       15.9994           0
   59472 WT3  6137 TIP3 H1   HT     0.417000        1.0080           0
   59473 WT3  6137 TIP3 H2   HT     0.417000        1.0080           0
   59474 WT3  6138 TIP3 OH2  OT    -0.834000       15.9994           0
   59475 WT3  6138 TIP3 H1   HT     0.417000        1.0080           0
   59476 WT3  6138 TIP3 H2   HT     0.417000        1.0080           0
   59477 WT3  6139 TIP3 OH2  OT    -0.834000       15.9994           0
   59478 WT3  6139 TIP3 H1   HT     0.417000        1.0080           0
   59479 WT3  6139 TIP3 H2   HT     0.417000        1.0080           0
   59480 WT3  6140 TIP3 OH2  OT    -0.834000       15.9994           0
   59481 WT3  6140 TIP3 H1   HT     0.417000        1.0080           0
   59482 WT3  6140 TIP3 H2   HT     0.417000        1.0080           0
   59483 WT3  6141 TIP3 OH2  OT    -0.834000       15.9994           0
   59484 WT3  6141 TIP3 H1   HT     0.417000        1.0080           0
   59485 WT3  6141 TIP3 H2   HT     0.417000        1.0080           0
   59486 WT3  6142 TIP3 OH2  OT    -0.834000       15.9994           0
   59487 WT3  6142 TIP3 H1   HT     0.417000        1.0080           0
   59488 WT3  6142 TIP3 H2   HT     0.417000        1.0080           0
   59489 WT3  6143 TIP3 OH2  OT    -0.834000       15.9994           0
   59490 WT3  6143 TIP3 H1   HT     0.417000        1.0080           0
   59491 WT3  6143 TIP3 H2   HT     0.417000        1.0080           0
   59492 WT3  6144 TIP3 OH2  OT    -0.834000       15.9994           0
   59493 WT3  6144 TIP3 H1   HT     0.417000        1.0080           0
   59494 WT3  6144 TIP3 H2   HT     0.417000        1.0080           0
   59495 WT3  6145 TIP3 OH2  OT    -0.834000       15.9994           0
   59496 WT3  6145 TIP3 H1   HT     0.417000        1.0080           0
   59497 WT3  6145 TIP3 H2   HT     0.417000        1.0080           0
   59498 WT3  6155 TIP3 OH2  OT    -0.834000       15.9994           0
   59499 WT3  6155 TIP3 H1   HT     0.417000        1.0080           0
   59500 WT3  6155 TIP3 H2   HT     0.417000        1.0080           0
   59501 WT3  6157 TIP3 OH2  OT    -0.834000       15.9994           0
   59502 WT3  6157 TIP3 H1   HT     0.417000        1.0080           0
   59503 WT3  6157 TIP3 H2   HT     0.417000        1.0080           0
   59504 WT3  6160 TIP3 OH2  OT    -0.834000       15.9994           0
   59505 WT3  6160 TIP3 H1   HT     0.417000        1.0080           0
   59506 WT3  6160 TIP3 H2   HT     0.417000        1.0080           0
   59507 WT3  6161 TIP3 OH2  OT    -0.834000       15.9994           0
   59508 WT3  6161 TIP3 H1   HT     0.417000        1.0080           0
   59509 WT3  6161 TIP3 H2   HT     0.417000        1.0080           0
   59510 WT3  6163 TIP3 OH2  OT    -0.834000       15.9994           0
   59511 WT3  6163 TIP3 H1   HT     0.417000        1.0080           0
   59512 WT3  6163 TIP3 H2   HT     0.417000        1.0080           0
   59513 WT3  6165 TIP3 OH2  OT    -0.834000       15.9994           0
   59514 WT3  6165 TIP3 H1   HT     0.417000        1.0080           0
   59515 WT3  6165 TIP3 H2   HT     0.417000        1.0080           0
   59516 WT3  6166 TIP3 OH2  OT    -0.834000       15.9994           0
   59517 WT3  6166 TIP3 H1   HT     0.417000        1.0080           0
   59518 WT3  6166 TIP3 H2   HT     0.417000        1.0080           0
   59519 WT3  6168 TIP3 OH2  OT    -0.834000       15.9994           0
   59520 WT3  6168 TIP3 H1   HT     0.417000        1.0080           0
   59521 WT3  6168 TIP3 H2   HT     0.417000        1.0080           0
   59522 WT3  6169 TIP3 OH2  OT    -0.834000       15.9994           0
   59523 WT3  6169 TIP3 H1   HT     0.417000        1.0080           0
   59524 WT3  6169 TIP3 H2   HT     0.417000        1.0080           0
   59525 WT3  6176 TIP3 OH2  OT    -0.834000       15.9994           0
   59526 WT3  6176 TIP3 H1   HT     0.417000        1.0080           0
   59527 WT3  6176 TIP3 H2   HT     0.417000        1.0080           0
   59528 WT3  6177 TIP3 OH2  OT    -0.834000       15.9994           0
   59529 WT3  6177 TIP3 H1   HT     0.417000        1.0080           0
   59530 WT3  6177 TIP3 H2   HT     0.417000        1.0080           0
   59531 WT3  6178 TIP3 OH2  OT    -0.834000       15.9994           0
   59532 WT3  6178 TIP3 H1   HT     0.417000        1.0080           0
   59533 WT3  6178 TIP3 H2   HT     0.417000        1.0080           0
   59534 WT3  6180 TIP3 OH2  OT    -0.834000       15.9994           0
   59535 WT3  6180 TIP3 H1   HT     0.417000        1.0080           0
   59536 WT3  6180 TIP3 H2   HT     0.417000        1.0080           0
   59537 WT3  6181 TIP3 OH2  OT    -0.834000       15.9994           0
   59538 WT3  6181 TIP3 H1   HT     0.417000        1.0080           0
   59539 WT3  6181 TIP3 H2   HT     0.417000        1.0080           0
   59540 WT3  6182 TIP3 OH2  OT    -0.834000       15.9994           0
   59541 WT3  6182 TIP3 H1   HT     0.417000        1.0080           0
   59542 WT3  6182 TIP3 H2   HT     0.417000        1.0080           0
   59543 WT3  6183 TIP3 OH2  OT    -0.834000       15.9994           0
   59544 WT3  6183 TIP3 H1   HT     0.417000        1.0080           0
   59545 WT3  6183 TIP3 H2   HT     0.417000        1.0080           0
   59546 WT3  6184 TIP3 OH2  OT    -0.834000       15.9994           0
   59547 WT3  6184 TIP3 H1   HT     0.417000        1.0080           0
   59548 WT3  6184 TIP3 H2   HT     0.417000        1.0080           0
   59549 WT3  6185 TIP3 OH2  OT    -0.834000       15.9994           0
   59550 WT3  6185 TIP3 H1   HT     0.417000        1.0080           0
   59551 WT3  6185 TIP3 H2   HT     0.417000        1.0080           0
   59552 WT3  6186 TIP3 OH2  OT    -0.834000       15.9994           0
   59553 WT3  6186 TIP3 H1   HT     0.417000        1.0080           0
   59554 WT3  6186 TIP3 H2   HT     0.417000        1.0080           0
   59555 WT3  6187 TIP3 OH2  OT    -0.834000       15.9994           0
   59556 WT3  6187 TIP3 H1   HT     0.417000        1.0080           0
   59557 WT3  6187 TIP3 H2   HT     0.417000        1.0080           0
   59558 WT3  6188 TIP3 OH2  OT    -0.834000       15.9994           0
   59559 WT3  6188 TIP3 H1   HT     0.417000        1.0080           0
   59560 WT3  6188 TIP3 H2   HT     0.417000        1.0080           0
   59561 WT3  6190 TIP3 OH2  OT    -0.834000       15.9994           0
   59562 WT3  6190 TIP3 H1   HT     0.417000        1.0080           0
   59563 WT3  6190 TIP3 H2   HT     0.417000        1.0080           0
   59564 WT3  6192 TIP3 OH2  OT    -0.834000       15.9994           0
   59565 WT3  6192 TIP3 H1   HT     0.417000        1.0080           0
   59566 WT3  6192 TIP3 H2   HT     0.417000        1.0080           0
   59567 WT3  6193 TIP3 OH2  OT    -0.834000       15.9994           0
   59568 WT3  6193 TIP3 H1   HT     0.417000        1.0080           0
   59569 WT3  6193 TIP3 H2   HT     0.417000        1.0080           0
   59570 WT3  6195 TIP3 OH2  OT    -0.834000       15.9994           0
   59571 WT3  6195 TIP3 H1   HT     0.417000        1.0080           0
   59572 WT3  6195 TIP3 H2   HT     0.417000        1.0080           0
   59573 WT3  6197 TIP3 OH2  OT    -0.834000       15.9994           0
   59574 WT3  6197 TIP3 H1   HT     0.417000        1.0080           0
   59575 WT3  6197 TIP3 H2   HT     0.417000        1.0080           0
   59576 WT3  6200 TIP3 OH2  OT    -0.834000       15.9994           0
   59577 WT3  6200 TIP3 H1   HT     0.417000        1.0080           0
   59578 WT3  6200 TIP3 H2   HT     0.417000        1.0080           0
   59579 WT3  6201 TIP3 OH2  OT    -0.834000       15.9994           0
   59580 WT3  6201 TIP3 H1   HT     0.417000        1.0080           0
   59581 WT3  6201 TIP3 H2   HT     0.417000        1.0080           0
   59582 WT3  6202 TIP3 OH2  OT    -0.834000       15.9994           0
   59583 WT3  6202 TIP3 H1   HT     0.417000        1.0080           0
   59584 WT3  6202 TIP3 H2   HT     0.417000        1.0080           0
   59585 WT3  6203 TIP3 OH2  OT    -0.834000       15.9994           0
   59586 WT3  6203 TIP3 H1   HT     0.417000        1.0080           0
   59587 WT3  6203 TIP3 H2   HT     0.417000        1.0080           0
   59588 WT3  6204 TIP3 OH2  OT    -0.834000       15.9994           0
   59589 WT3  6204 TIP3 H1   HT     0.417000        1.0080           0
   59590 WT3  6204 TIP3 H2   HT     0.417000        1.0080           0
   59591 WT3  6205 TIP3 OH2  OT    -0.834000       15.9994           0
   59592 WT3  6205 TIP3 H1   HT     0.417000        1.0080           0
   59593 WT3  6205 TIP3 H2   HT     0.417000        1.0080           0
   59594 WT3  6206 TIP3 OH2  OT    -0.834000       15.9994           0
   59595 WT3  6206 TIP3 H1   HT     0.417000        1.0080           0
   59596 WT3  6206 TIP3 H2   HT     0.417000        1.0080           0
   59597 WT3  6207 TIP3 OH2  OT    -0.834000       15.9994           0
   59598 WT3  6207 TIP3 H1   HT     0.417000        1.0080           0
   59599 WT3  6207 TIP3 H2   HT     0.417000        1.0080           0
   59600 WT3  6208 TIP3 OH2  OT    -0.834000       15.9994           0
   59601 WT3  6208 TIP3 H1   HT     0.417000        1.0080           0
   59602 WT3  6208 TIP3 H2   HT     0.417000        1.0080           0
   59603 WT3  6209 TIP3 OH2  OT    -0.834000       15.9994           0
   59604 WT3  6209 TIP3 H1   HT     0.417000        1.0080           0
   59605 WT3  6209 TIP3 H2   HT     0.417000        1.0080           0
   59606 WT3  6212 TIP3 OH2  OT    -0.834000       15.9994           0
   59607 WT3  6212 TIP3 H1   HT     0.417000        1.0080           0
   59608 WT3  6212 TIP3 H2   HT     0.417000        1.0080           0
   59609 WT3  6216 TIP3 OH2  OT    -0.834000       15.9994           0
   59610 WT3  6216 TIP3 H1   HT     0.417000        1.0080           0
   59611 WT3  6216 TIP3 H2   HT     0.417000        1.0080           0
   59612 WT3  6218 TIP3 OH2  OT    -0.834000       15.9994           0
   59613 WT3  6218 TIP3 H1   HT     0.417000        1.0080           0
   59614 WT3  6218 TIP3 H2   HT     0.417000        1.0080           0
   59615 WT3  6220 TIP3 OH2  OT    -0.834000       15.9994           0
   59616 WT3  6220 TIP3 H1   HT     0.417000        1.0080           0
   59617 WT3  6220 TIP3 H2   HT     0.417000        1.0080           0
   59618 WT3  6221 TIP3 OH2  OT    -0.834000       15.9994           0
   59619 WT3  6221 TIP3 H1   HT     0.417000        1.0080           0
   59620 WT3  6221 TIP3 H2   HT     0.417000        1.0080           0
   59621 WT3  6222 TIP3 OH2  OT    -0.834000       15.9994           0
   59622 WT3  6222 TIP3 H1   HT     0.417000        1.0080           0
   59623 WT3  6222 TIP3 H2   HT     0.417000        1.0080           0
   59624 WT3  6224 TIP3 OH2  OT    -0.834000       15.9994           0
   59625 WT3  6224 TIP3 H1   HT     0.417000        1.0080           0
   59626 WT3  6224 TIP3 H2   HT     0.417000        1.0080           0
   59627 WT3  6225 TIP3 OH2  OT    -0.834000       15.9994           0
   59628 WT3  6225 TIP3 H1   HT     0.417000        1.0080           0
   59629 WT3  6225 TIP3 H2   HT     0.417000        1.0080           0
   59630 WT3  6226 TIP3 OH2  OT    -0.834000       15.9994           0
   59631 WT3  6226 TIP3 H1   HT     0.417000        1.0080           0
   59632 WT3  6226 TIP3 H2   HT     0.417000        1.0080           0
   59633 WT3  6227 TIP3 OH2  OT    -0.834000       15.9994           0
   59634 WT3  6227 TIP3 H1   HT     0.417000        1.0080           0
   59635 WT3  6227 TIP3 H2   HT     0.417000        1.0080           0
   59636 WT3  6229 TIP3 OH2  OT    -0.834000       15.9994           0
   59637 WT3  6229 TIP3 H1   HT     0.417000        1.0080           0
   59638 WT3  6229 TIP3 H2   HT     0.417000        1.0080           0
   59639 WT3  6230 TIP3 OH2  OT    -0.834000       15.9994           0
   59640 WT3  6230 TIP3 H1   HT     0.417000        1.0080           0
   59641 WT3  6230 TIP3 H2   HT     0.417000        1.0080           0
   59642 WT3  6231 TIP3 OH2  OT    -0.834000       15.9994           0
   59643 WT3  6231 TIP3 H1   HT     0.417000        1.0080           0
   59644 WT3  6231 TIP3 H2   HT     0.417000        1.0080           0
   59645 WT3  6233 TIP3 OH2  OT    -0.834000       15.9994           0
   59646 WT3  6233 TIP3 H1   HT     0.417000        1.0080           0
   59647 WT3  6233 TIP3 H2   HT     0.417000        1.0080           0
   59648 WT3  6238 TIP3 OH2  OT    -0.834000       15.9994           0
   59649 WT3  6238 TIP3 H1   HT     0.417000        1.0080           0
   59650 WT3  6238 TIP3 H2   HT     0.417000        1.0080           0
   59651 WT3  6239 TIP3 OH2  OT    -0.834000       15.9994           0
   59652 WT3  6239 TIP3 H1   HT     0.417000        1.0080           0
   59653 WT3  6239 TIP3 H2   HT     0.417000        1.0080           0
   59654 WT3  6240 TIP3 OH2  OT    -0.834000       15.9994           0
   59655 WT3  6240 TIP3 H1   HT     0.417000        1.0080           0
   59656 WT3  6240 TIP3 H2   HT     0.417000        1.0080           0
   59657 WT3  6241 TIP3 OH2  OT    -0.834000       15.9994           0
   59658 WT3  6241 TIP3 H1   HT     0.417000        1.0080           0
   59659 WT3  6241 TIP3 H2   HT     0.417000        1.0080           0
   59660 WT3  6242 TIP3 OH2  OT    -0.834000       15.9994           0
   59661 WT3  6242 TIP3 H1   HT     0.417000        1.0080           0
   59662 WT3  6242 TIP3 H2   HT     0.417000        1.0080           0
   59663 WT3  6243 TIP3 OH2  OT    -0.834000       15.9994           0
   59664 WT3  6243 TIP3 H1   HT     0.417000        1.0080           0
   59665 WT3  6243 TIP3 H2   HT     0.417000        1.0080           0
   59666 WT3  6244 TIP3 OH2  OT    -0.834000       15.9994           0
   59667 WT3  6244 TIP3 H1   HT     0.417000        1.0080           0
   59668 WT3  6244 TIP3 H2   HT     0.417000        1.0080           0
   59669 WT3  6245 TIP3 OH2  OT    -0.834000       15.9994           0
   59670 WT3  6245 TIP3 H1   HT     0.417000        1.0080           0
   59671 WT3  6245 TIP3 H2   HT     0.417000        1.0080           0
   59672 WT3  6246 TIP3 OH2  OT    -0.834000       15.9994           0
   59673 WT3  6246 TIP3 H1   HT     0.417000        1.0080           0
   59674 WT3  6246 TIP3 H2   HT     0.417000        1.0080           0
   59675 WT3  6247 TIP3 OH2  OT    -0.834000       15.9994           0
   59676 WT3  6247 TIP3 H1   HT     0.417000        1.0080           0
   59677 WT3  6247 TIP3 H2   HT     0.417000        1.0080           0
   59678 WT3  6248 TIP3 OH2  OT    -0.834000       15.9994           0
   59679 WT3  6248 TIP3 H1   HT     0.417000        1.0080           0
   59680 WT3  6248 TIP3 H2   HT     0.417000        1.0080           0
   59681 WT3  6249 TIP3 OH2  OT    -0.834000       15.9994           0
   59682 WT3  6249 TIP3 H1   HT     0.417000        1.0080           0
   59683 WT3  6249 TIP3 H2   HT     0.417000        1.0080           0
   59684 WT3  6250 TIP3 OH2  OT    -0.834000       15.9994           0
   59685 WT3  6250 TIP3 H1   HT     0.417000        1.0080           0
   59686 WT3  6250 TIP3 H2   HT     0.417000        1.0080           0
   59687 WT3  6252 TIP3 OH2  OT    -0.834000       15.9994           0
   59688 WT3  6252 TIP3 H1   HT     0.417000        1.0080           0
   59689 WT3  6252 TIP3 H2   HT     0.417000        1.0080           0
   59690 WT3  6254 TIP3 OH2  OT    -0.834000       15.9994           0
   59691 WT3  6254 TIP3 H1   HT     0.417000        1.0080           0
   59692 WT3  6254 TIP3 H2   HT     0.417000        1.0080           0
   59693 WT3  6256 TIP3 OH2  OT    -0.834000       15.9994           0
   59694 WT3  6256 TIP3 H1   HT     0.417000        1.0080           0
   59695 WT3  6256 TIP3 H2   HT     0.417000        1.0080           0
   59696 WT3  6258 TIP3 OH2  OT    -0.834000       15.9994           0
   59697 WT3  6258 TIP3 H1   HT     0.417000        1.0080           0
   59698 WT3  6258 TIP3 H2   HT     0.417000        1.0080           0
   59699 WT3  6261 TIP3 OH2  OT    -0.834000       15.9994           0
   59700 WT3  6261 TIP3 H1   HT     0.417000        1.0080           0
   59701 WT3  6261 TIP3 H2   HT     0.417000        1.0080           0
   59702 WT3  6262 TIP3 OH2  OT    -0.834000       15.9994           0
   59703 WT3  6262 TIP3 H1   HT     0.417000        1.0080           0
   59704 WT3  6262 TIP3 H2   HT     0.417000        1.0080           0
   59705 WT3  6263 TIP3 OH2  OT    -0.834000       15.9994           0
   59706 WT3  6263 TIP3 H1   HT     0.417000        1.0080           0
   59707 WT3  6263 TIP3 H2   HT     0.417000        1.0080           0
   59708 WT3  6264 TIP3 OH2  OT    -0.834000       15.9994           0
   59709 WT3  6264 TIP3 H1   HT     0.417000        1.0080           0
   59710 WT3  6264 TIP3 H2   HT     0.417000        1.0080           0
   59711 WT3  6265 TIP3 OH2  OT    -0.834000       15.9994           0
   59712 WT3  6265 TIP3 H1   HT     0.417000        1.0080           0
   59713 WT3  6265 TIP3 H2   HT     0.417000        1.0080           0
   59714 WT3  6266 TIP3 OH2  OT    -0.834000       15.9994           0
   59715 WT3  6266 TIP3 H1   HT     0.417000        1.0080           0
   59716 WT3  6266 TIP3 H2   HT     0.417000        1.0080           0
   59717 WT3  6267 TIP3 OH2  OT    -0.834000       15.9994           0
   59718 WT3  6267 TIP3 H1   HT     0.417000        1.0080           0
   59719 WT3  6267 TIP3 H2   HT     0.417000        1.0080           0
   59720 WT3  6268 TIP3 OH2  OT    -0.834000       15.9994           0
   59721 WT3  6268 TIP3 H1   HT     0.417000        1.0080           0
   59722 WT3  6268 TIP3 H2   HT     0.417000        1.0080           0
   59723 WT3  6269 TIP3 OH2  OT    -0.834000       15.9994           0
   59724 WT3  6269 TIP3 H1   HT     0.417000        1.0080           0
   59725 WT3  6269 TIP3 H2   HT     0.417000        1.0080           0
   59726 WT3  6270 TIP3 OH2  OT    -0.834000       15.9994           0
   59727 WT3  6270 TIP3 H1   HT     0.417000        1.0080           0
   59728 WT3  6270 TIP3 H2   HT     0.417000        1.0080           0
   59729 WT3  6271 TIP3 OH2  OT    -0.834000       15.9994           0
   59730 WT3  6271 TIP3 H1   HT     0.417000        1.0080           0
   59731 WT3  6271 TIP3 H2   HT     0.417000        1.0080           0
   59732 WT3  6272 TIP3 OH2  OT    -0.834000       15.9994           0
   59733 WT3  6272 TIP3 H1   HT     0.417000        1.0080           0
   59734 WT3  6272 TIP3 H2   HT     0.417000        1.0080           0
   59735 WT3  6273 TIP3 OH2  OT    -0.834000       15.9994           0
   59736 WT3  6273 TIP3 H1   HT     0.417000        1.0080           0
   59737 WT3  6273 TIP3 H2   HT     0.417000        1.0080           0
   59738 WT3  6277 TIP3 OH2  OT    -0.834000       15.9994           0
   59739 WT3  6277 TIP3 H1   HT     0.417000        1.0080           0
   59740 WT3  6277 TIP3 H2   HT     0.417000        1.0080           0
   59741 WT3  6281 TIP3 OH2  OT    -0.834000       15.9994           0
   59742 WT3  6281 TIP3 H1   HT     0.417000        1.0080           0
   59743 WT3  6281 TIP3 H2   HT     0.417000        1.0080           0
   59744 WT3  6283 TIP3 OH2  OT    -0.834000       15.9994           0
   59745 WT3  6283 TIP3 H1   HT     0.417000        1.0080           0
   59746 WT3  6283 TIP3 H2   HT     0.417000        1.0080           0
   59747 WT3  6285 TIP3 OH2  OT    -0.834000       15.9994           0
   59748 WT3  6285 TIP3 H1   HT     0.417000        1.0080           0
   59749 WT3  6285 TIP3 H2   HT     0.417000        1.0080           0
   59750 WT3  6286 TIP3 OH2  OT    -0.834000       15.9994           0
   59751 WT3  6286 TIP3 H1   HT     0.417000        1.0080           0
   59752 WT3  6286 TIP3 H2   HT     0.417000        1.0080           0
   59753 WT3  6288 TIP3 OH2  OT    -0.834000       15.9994           0
   59754 WT3  6288 TIP3 H1   HT     0.417000        1.0080           0
   59755 WT3  6288 TIP3 H2   HT     0.417000        1.0080           0
   59756 WT3  6289 TIP3 OH2  OT    -0.834000       15.9994           0
   59757 WT3  6289 TIP3 H1   HT     0.417000        1.0080           0
   59758 WT3  6289 TIP3 H2   HT     0.417000        1.0080           0
   59759 WT3  6290 TIP3 OH2  OT    -0.834000       15.9994           0
   59760 WT3  6290 TIP3 H1   HT     0.417000        1.0080           0
   59761 WT3  6290 TIP3 H2   HT     0.417000        1.0080           0
   59762 WT3  6291 TIP3 OH2  OT    -0.834000       15.9994           0
   59763 WT3  6291 TIP3 H1   HT     0.417000        1.0080           0
   59764 WT3  6291 TIP3 H2   HT     0.417000        1.0080           0
   59765 WT3  6297 TIP3 OH2  OT    -0.834000       15.9994           0
   59766 WT3  6297 TIP3 H1   HT     0.417000        1.0080           0
   59767 WT3  6297 TIP3 H2   HT     0.417000        1.0080           0
   59768 WT3  6298 TIP3 OH2  OT    -0.834000       15.9994           0
   59769 WT3  6298 TIP3 H1   HT     0.417000        1.0080           0
   59770 WT3  6298 TIP3 H2   HT     0.417000        1.0080           0
   59771 WT3  6300 TIP3 OH2  OT    -0.834000       15.9994           0
   59772 WT3  6300 TIP3 H1   HT     0.417000        1.0080           0
   59773 WT3  6300 TIP3 H2   HT     0.417000        1.0080           0
   59774 WT3  6302 TIP3 OH2  OT    -0.834000       15.9994           0
   59775 WT3  6302 TIP3 H1   HT     0.417000        1.0080           0
   59776 WT3  6302 TIP3 H2   HT     0.417000        1.0080           0
   59777 WT3  6303 TIP3 OH2  OT    -0.834000       15.9994           0
   59778 WT3  6303 TIP3 H1   HT     0.417000        1.0080           0
   59779 WT3  6303 TIP3 H2   HT     0.417000        1.0080           0
   59780 WT3  6304 TIP3 OH2  OT    -0.834000       15.9994           0
   59781 WT3  6304 TIP3 H1   HT     0.417000        1.0080           0
   59782 WT3  6304 TIP3 H2   HT     0.417000        1.0080           0
   59783 WT3  6305 TIP3 OH2  OT    -0.834000       15.9994           0
   59784 WT3  6305 TIP3 H1   HT     0.417000        1.0080           0
   59785 WT3  6305 TIP3 H2   HT     0.417000        1.0080           0
   59786 WT3  6306 TIP3 OH2  OT    -0.834000       15.9994           0
   59787 WT3  6306 TIP3 H1   HT     0.417000        1.0080           0
   59788 WT3  6306 TIP3 H2   HT     0.417000        1.0080           0
   59789 WT3  6307 TIP3 OH2  OT    -0.834000       15.9994           0
   59790 WT3  6307 TIP3 H1   HT     0.417000        1.0080           0
   59791 WT3  6307 TIP3 H2   HT     0.417000        1.0080           0
   59792 WT3  6308 TIP3 OH2  OT    -0.834000       15.9994           0
   59793 WT3  6308 TIP3 H1   HT     0.417000        1.0080           0
   59794 WT3  6308 TIP3 H2   HT     0.417000        1.0080           0
   59795 WT3  6309 TIP3 OH2  OT    -0.834000       15.9994           0
   59796 WT3  6309 TIP3 H1   HT     0.417000        1.0080           0
   59797 WT3  6309 TIP3 H2   HT     0.417000        1.0080           0
   59798 WT3  6310 TIP3 OH2  OT    -0.834000       15.9994           0
   59799 WT3  6310 TIP3 H1   HT     0.417000        1.0080           0
   59800 WT3  6310 TIP3 H2   HT     0.417000        1.0080           0
   59801 WT3  6311 TIP3 OH2  OT    -0.834000       15.9994           0
   59802 WT3  6311 TIP3 H1   HT     0.417000        1.0080           0
   59803 WT3  6311 TIP3 H2   HT     0.417000        1.0080           0
   59804 WT3  6312 TIP3 OH2  OT    -0.834000       15.9994           0
   59805 WT3  6312 TIP3 H1   HT     0.417000        1.0080           0
   59806 WT3  6312 TIP3 H2   HT     0.417000        1.0080           0
   59807 WT3  6314 TIP3 OH2  OT    -0.834000       15.9994           0
   59808 WT3  6314 TIP3 H1   HT     0.417000        1.0080           0
   59809 WT3  6314 TIP3 H2   HT     0.417000        1.0080           0
   59810 WT3  6315 TIP3 OH2  OT    -0.834000       15.9994           0
   59811 WT3  6315 TIP3 H1   HT     0.417000        1.0080           0
   59812 WT3  6315 TIP3 H2   HT     0.417000        1.0080           0
   59813 WT3  6316 TIP3 OH2  OT    -0.834000       15.9994           0
   59814 WT3  6316 TIP3 H1   HT     0.417000        1.0080           0
   59815 WT3  6316 TIP3 H2   HT     0.417000        1.0080           0
   59816 WT3  6318 TIP3 OH2  OT    -0.834000       15.9994           0
   59817 WT3  6318 TIP3 H1   HT     0.417000        1.0080           0
   59818 WT3  6318 TIP3 H2   HT     0.417000        1.0080           0
   59819 WT3  6319 TIP3 OH2  OT    -0.834000       15.9994           0
   59820 WT3  6319 TIP3 H1   HT     0.417000        1.0080           0
   59821 WT3  6319 TIP3 H2   HT     0.417000        1.0080           0
   59822 WT3  6321 TIP3 OH2  OT    -0.834000       15.9994           0
   59823 WT3  6321 TIP3 H1   HT     0.417000        1.0080           0
   59824 WT3  6321 TIP3 H2   HT     0.417000        1.0080           0
   59825 WT3  6322 TIP3 OH2  OT    -0.834000       15.9994           0
   59826 WT3  6322 TIP3 H1   HT     0.417000        1.0080           0
   59827 WT3  6322 TIP3 H2   HT     0.417000        1.0080           0
   59828 WT3  6324 TIP3 OH2  OT    -0.834000       15.9994           0
   59829 WT3  6324 TIP3 H1   HT     0.417000        1.0080           0
   59830 WT3  6324 TIP3 H2   HT     0.417000        1.0080           0
   59831 WT3  6325 TIP3 OH2  OT    -0.834000       15.9994           0
   59832 WT3  6325 TIP3 H1   HT     0.417000        1.0080           0
   59833 WT3  6325 TIP3 H2   HT     0.417000        1.0080           0
   59834 WT3  6326 TIP3 OH2  OT    -0.834000       15.9994           0
   59835 WT3  6326 TIP3 H1   HT     0.417000        1.0080           0
   59836 WT3  6326 TIP3 H2   HT     0.417000        1.0080           0
   59837 WT3  6327 TIP3 OH2  OT    -0.834000       15.9994           0
   59838 WT3  6327 TIP3 H1   HT     0.417000        1.0080           0
   59839 WT3  6327 TIP3 H2   HT     0.417000        1.0080           0
   59840 WT3  6328 TIP3 OH2  OT    -0.834000       15.9994           0
   59841 WT3  6328 TIP3 H1   HT     0.417000        1.0080           0
   59842 WT3  6328 TIP3 H2   HT     0.417000        1.0080           0
   59843 WT3  6330 TIP3 OH2  OT    -0.834000       15.9994           0
   59844 WT3  6330 TIP3 H1   HT     0.417000        1.0080           0
   59845 WT3  6330 TIP3 H2   HT     0.417000        1.0080           0
   59846 WT3  6331 TIP3 OH2  OT    -0.834000       15.9994           0
   59847 WT3  6331 TIP3 H1   HT     0.417000        1.0080           0
   59848 WT3  6331 TIP3 H2   HT     0.417000        1.0080           0
   59849 WT3  6332 TIP3 OH2  OT    -0.834000       15.9994           0
   59850 WT3  6332 TIP3 H1   HT     0.417000        1.0080           0
   59851 WT3  6332 TIP3 H2   HT     0.417000        1.0080           0
   59852 WT3  6333 TIP3 OH2  OT    -0.834000       15.9994           0
   59853 WT3  6333 TIP3 H1   HT     0.417000        1.0080           0
   59854 WT3  6333 TIP3 H2   HT     0.417000        1.0080           0
   59855 WT3  6334 TIP3 OH2  OT    -0.834000       15.9994           0
   59856 WT3  6334 TIP3 H1   HT     0.417000        1.0080           0
   59857 WT3  6334 TIP3 H2   HT     0.417000        1.0080           0
   59858 WT3  6336 TIP3 OH2  OT    -0.834000       15.9994           0
   59859 WT3  6336 TIP3 H1   HT     0.417000        1.0080           0
   59860 WT3  6336 TIP3 H2   HT     0.417000        1.0080           0
   59861 WT3  6339 TIP3 OH2  OT    -0.834000       15.9994           0
   59862 WT3  6339 TIP3 H1   HT     0.417000        1.0080           0
   59863 WT3  6339 TIP3 H2   HT     0.417000        1.0080           0
   59864 WT3  6341 TIP3 OH2  OT    -0.834000       15.9994           0
   59865 WT3  6341 TIP3 H1   HT     0.417000        1.0080           0
   59866 WT3  6341 TIP3 H2   HT     0.417000        1.0080           0
   59867 WT3  6345 TIP3 OH2  OT    -0.834000       15.9994           0
   59868 WT3  6345 TIP3 H1   HT     0.417000        1.0080           0
   59869 WT3  6345 TIP3 H2   HT     0.417000        1.0080           0
   59870 WT3  6347 TIP3 OH2  OT    -0.834000       15.9994           0
   59871 WT3  6347 TIP3 H1   HT     0.417000        1.0080           0
   59872 WT3  6347 TIP3 H2   HT     0.417000        1.0080           0
   59873 WT3  6348 TIP3 OH2  OT    -0.834000       15.9994           0
   59874 WT3  6348 TIP3 H1   HT     0.417000        1.0080           0
   59875 WT3  6348 TIP3 H2   HT     0.417000        1.0080           0
   59876 WT3  6349 TIP3 OH2  OT    -0.834000       15.9994           0
   59877 WT3  6349 TIP3 H1   HT     0.417000        1.0080           0
   59878 WT3  6349 TIP3 H2   HT     0.417000        1.0080           0
   59879 WT3  6354 TIP3 OH2  OT    -0.834000       15.9994           0
   59880 WT3  6354 TIP3 H1   HT     0.417000        1.0080           0
   59881 WT3  6354 TIP3 H2   HT     0.417000        1.0080           0
   59882 WT3  6356 TIP3 OH2  OT    -0.834000       15.9994           0
   59883 WT3  6356 TIP3 H1   HT     0.417000        1.0080           0
   59884 WT3  6356 TIP3 H2   HT     0.417000        1.0080           0
   59885 WT3  6357 TIP3 OH2  OT    -0.834000       15.9994           0
   59886 WT3  6357 TIP3 H1   HT     0.417000        1.0080           0
   59887 WT3  6357 TIP3 H2   HT     0.417000        1.0080           0
   59888 WT3  6358 TIP3 OH2  OT    -0.834000       15.9994           0
   59889 WT3  6358 TIP3 H1   HT     0.417000        1.0080           0
   59890 WT3  6358 TIP3 H2   HT     0.417000        1.0080           0
   59891 WT3  6359 TIP3 OH2  OT    -0.834000       15.9994           0
   59892 WT3  6359 TIP3 H1   HT     0.417000        1.0080           0
   59893 WT3  6359 TIP3 H2   HT     0.417000        1.0080           0
   59894 WT3  6366 TIP3 OH2  OT    -0.834000       15.9994           0
   59895 WT3  6366 TIP3 H1   HT     0.417000        1.0080           0
   59896 WT3  6366 TIP3 H2   HT     0.417000        1.0080           0
   59897 WT3  6367 TIP3 OH2  OT    -0.834000       15.9994           0
   59898 WT3  6367 TIP3 H1   HT     0.417000        1.0080           0
   59899 WT3  6367 TIP3 H2   HT     0.417000        1.0080           0
   59900 WT3  6368 TIP3 OH2  OT    -0.834000       15.9994           0
   59901 WT3  6368 TIP3 H1   HT     0.417000        1.0080           0
   59902 WT3  6368 TIP3 H2   HT     0.417000        1.0080           0
   59903 WT3  6369 TIP3 OH2  OT    -0.834000       15.9994           0
   59904 WT3  6369 TIP3 H1   HT     0.417000        1.0080           0
   59905 WT3  6369 TIP3 H2   HT     0.417000        1.0080           0
   59906 WT3  6372 TIP3 OH2  OT    -0.834000       15.9994           0
   59907 WT3  6372 TIP3 H1   HT     0.417000        1.0080           0
   59908 WT3  6372 TIP3 H2   HT     0.417000        1.0080           0
   59909 WT3  6373 TIP3 OH2  OT    -0.834000       15.9994           0
   59910 WT3  6373 TIP3 H1   HT     0.417000        1.0080           0
   59911 WT3  6373 TIP3 H2   HT     0.417000        1.0080           0
   59912 WT3  6374 TIP3 OH2  OT    -0.834000       15.9994           0
   59913 WT3  6374 TIP3 H1   HT     0.417000        1.0080           0
   59914 WT3  6374 TIP3 H2   HT     0.417000        1.0080           0
   59915 WT3  6375 TIP3 OH2  OT    -0.834000       15.9994           0
   59916 WT3  6375 TIP3 H1   HT     0.417000        1.0080           0
   59917 WT3  6375 TIP3 H2   HT     0.417000        1.0080           0
   59918 WT3  6376 TIP3 OH2  OT    -0.834000       15.9994           0
   59919 WT3  6376 TIP3 H1   HT     0.417000        1.0080           0
   59920 WT3  6376 TIP3 H2   HT     0.417000        1.0080           0
   59921 WT3  6380 TIP3 OH2  OT    -0.834000       15.9994           0
   59922 WT3  6380 TIP3 H1   HT     0.417000        1.0080           0
   59923 WT3  6380 TIP3 H2   HT     0.417000        1.0080           0
   59924 WT3  6381 TIP3 OH2  OT    -0.834000       15.9994           0
   59925 WT3  6381 TIP3 H1   HT     0.417000        1.0080           0
   59926 WT3  6381 TIP3 H2   HT     0.417000        1.0080           0
   59927 WT3  6385 TIP3 OH2  OT    -0.834000       15.9994           0
   59928 WT3  6385 TIP3 H1   HT     0.417000        1.0080           0
   59929 WT3  6385 TIP3 H2   HT     0.417000        1.0080           0
   59930 WT3  6388 TIP3 OH2  OT    -0.834000       15.9994           0
   59931 WT3  6388 TIP3 H1   HT     0.417000        1.0080           0
   59932 WT3  6388 TIP3 H2   HT     0.417000        1.0080           0
   59933 WT3  6389 TIP3 OH2  OT    -0.834000       15.9994           0
   59934 WT3  6389 TIP3 H1   HT     0.417000        1.0080           0
   59935 WT3  6389 TIP3 H2   HT     0.417000        1.0080           0
   59936 WT3  6390 TIP3 OH2  OT    -0.834000       15.9994           0
   59937 WT3  6390 TIP3 H1   HT     0.417000        1.0080           0
   59938 WT3  6390 TIP3 H2   HT     0.417000        1.0080           0
   59939 WT3  6391 TIP3 OH2  OT    -0.834000       15.9994           0
   59940 WT3  6391 TIP3 H1   HT     0.417000        1.0080           0
   59941 WT3  6391 TIP3 H2   HT     0.417000        1.0080           0
   59942 WT3  6392 TIP3 OH2  OT    -0.834000       15.9994           0
   59943 WT3  6392 TIP3 H1   HT     0.417000        1.0080           0
   59944 WT3  6392 TIP3 H2   HT     0.417000        1.0080           0
   59945 WT3  6393 TIP3 OH2  OT    -0.834000       15.9994           0
   59946 WT3  6393 TIP3 H1   HT     0.417000        1.0080           0
   59947 WT3  6393 TIP3 H2   HT     0.417000        1.0080           0
   59948 WT3  6394 TIP3 OH2  OT    -0.834000       15.9994           0
   59949 WT3  6394 TIP3 H1   HT     0.417000        1.0080           0
   59950 WT3  6394 TIP3 H2   HT     0.417000        1.0080           0
   59951 WT3  6395 TIP3 OH2  OT    -0.834000       15.9994           0
   59952 WT3  6395 TIP3 H1   HT     0.417000        1.0080           0
   59953 WT3  6395 TIP3 H2   HT     0.417000        1.0080           0
   59954 WT3  6396 TIP3 OH2  OT    -0.834000       15.9994           0
   59955 WT3  6396 TIP3 H1   HT     0.417000        1.0080           0
   59956 WT3  6396 TIP3 H2   HT     0.417000        1.0080           0
   59957 WT3  6397 TIP3 OH2  OT    -0.834000       15.9994           0
   59958 WT3  6397 TIP3 H1   HT     0.417000        1.0080           0
   59959 WT3  6397 TIP3 H2   HT     0.417000        1.0080           0
   59960 WT3  6398 TIP3 OH2  OT    -0.834000       15.9994           0
   59961 WT3  6398 TIP3 H1   HT     0.417000        1.0080           0
   59962 WT3  6398 TIP3 H2   HT     0.417000        1.0080           0
   59963 WT3  6399 TIP3 OH2  OT    -0.834000       15.9994           0
   59964 WT3  6399 TIP3 H1   HT     0.417000        1.0080           0
   59965 WT3  6399 TIP3 H2   HT     0.417000        1.0080           0
   59966 WT3  6402 TIP3 OH2  OT    -0.834000       15.9994           0
   59967 WT3  6402 TIP3 H1   HT     0.417000        1.0080           0
   59968 WT3  6402 TIP3 H2   HT     0.417000        1.0080           0
   59969 WT3  6404 TIP3 OH2  OT    -0.834000       15.9994           0
   59970 WT3  6404 TIP3 H1   HT     0.417000        1.0080           0
   59971 WT3  6404 TIP3 H2   HT     0.417000        1.0080           0
   59972 WT3  6408 TIP3 OH2  OT    -0.834000       15.9994           0
   59973 WT3  6408 TIP3 H1   HT     0.417000        1.0080           0
   59974 WT3  6408 TIP3 H2   HT     0.417000        1.0080           0
   59975 WT3  6409 TIP3 OH2  OT    -0.834000       15.9994           0
   59976 WT3  6409 TIP3 H1   HT     0.417000        1.0080           0
   59977 WT3  6409 TIP3 H2   HT     0.417000        1.0080           0
   59978 WT3  6410 TIP3 OH2  OT    -0.834000       15.9994           0
   59979 WT3  6410 TIP3 H1   HT     0.417000        1.0080           0
   59980 WT3  6410 TIP3 H2   HT     0.417000        1.0080           0
   59981 WT3  6411 TIP3 OH2  OT    -0.834000       15.9994           0
   59982 WT3  6411 TIP3 H1   HT     0.417000        1.0080           0
   59983 WT3  6411 TIP3 H2   HT     0.417000        1.0080           0
   59984 WT3  6412 TIP3 OH2  OT    -0.834000       15.9994           0
   59985 WT3  6412 TIP3 H1   HT     0.417000        1.0080           0
   59986 WT3  6412 TIP3 H2   HT     0.417000        1.0080           0
   59987 WT3  6414 TIP3 OH2  OT    -0.834000       15.9994           0
   59988 WT3  6414 TIP3 H1   HT     0.417000        1.0080           0
   59989 WT3  6414 TIP3 H2   HT     0.417000        1.0080           0
   59990 WT3  6419 TIP3 OH2  OT    -0.834000       15.9994           0
   59991 WT3  6419 TIP3 H1   HT     0.417000        1.0080           0
   59992 WT3  6419 TIP3 H2   HT     0.417000        1.0080           0
   59993 WT3  6424 TIP3 OH2  OT    -0.834000       15.9994           0
   59994 WT3  6424 TIP3 H1   HT     0.417000        1.0080           0
   59995 WT3  6424 TIP3 H2   HT     0.417000        1.0080           0
   59996 WT3  6425 TIP3 OH2  OT    -0.834000       15.9994           0
   59997 WT3  6425 TIP3 H1   HT     0.417000        1.0080           0
   59998 WT3  6425 TIP3 H2   HT     0.417000        1.0080           0
   59999 WT3  6430 TIP3 OH2  OT    -0.834000       15.9994           0
   60000 WT3  6430 TIP3 H1   HT     0.417000        1.0080           0
   60001 WT3  6430 TIP3 H2   HT     0.417000        1.0080           0
   60002 WT3  6431 TIP3 OH2  OT    -0.834000       15.9994           0
   60003 WT3  6431 TIP3 H1   HT     0.417000        1.0080           0
   60004 WT3  6431 TIP3 H2   HT     0.417000        1.0080           0
   60005 WT3  6432 TIP3 OH2  OT    -0.834000       15.9994           0
   60006 WT3  6432 TIP3 H1   HT     0.417000        1.0080           0
   60007 WT3  6432 TIP3 H2   HT     0.417000        1.0080           0
   60008 WT3  6433 TIP3 OH2  OT    -0.834000       15.9994           0
   60009 WT3  6433 TIP3 H1   HT     0.417000        1.0080           0
   60010 WT3  6433 TIP3 H2   HT     0.417000        1.0080           0
   60011 WT3  6434 TIP3 OH2  OT    -0.834000       15.9994           0
   60012 WT3  6434 TIP3 H1   HT     0.417000        1.0080           0
   60013 WT3  6434 TIP3 H2   HT     0.417000        1.0080           0
   60014 WT3  6435 TIP3 OH2  OT    -0.834000       15.9994           0
   60015 WT3  6435 TIP3 H1   HT     0.417000        1.0080           0
   60016 WT3  6435 TIP3 H2   HT     0.417000        1.0080           0
   60017 WT3  6436 TIP3 OH2  OT    -0.834000       15.9994           0
   60018 WT3  6436 TIP3 H1   HT     0.417000        1.0080           0
   60019 WT3  6436 TIP3 H2   HT     0.417000        1.0080           0
   60020 WT3  6437 TIP3 OH2  OT    -0.834000       15.9994           0
   60021 WT3  6437 TIP3 H1   HT     0.417000        1.0080           0
   60022 WT3  6437 TIP3 H2   HT     0.417000        1.0080           0
   60023 WT3  6438 TIP3 OH2  OT    -0.834000       15.9994           0
   60024 WT3  6438 TIP3 H1   HT     0.417000        1.0080           0
   60025 WT3  6438 TIP3 H2   HT     0.417000        1.0080           0
   60026 WT3  6439 TIP3 OH2  OT    -0.834000       15.9994           0
   60027 WT3  6439 TIP3 H1   HT     0.417000        1.0080           0
   60028 WT3  6439 TIP3 H2   HT     0.417000        1.0080           0
   60029 WT3  6440 TIP3 OH2  OT    -0.834000       15.9994           0
   60030 WT3  6440 TIP3 H1   HT     0.417000        1.0080           0
   60031 WT3  6440 TIP3 H2   HT     0.417000        1.0080           0
   60032 WT3  6444 TIP3 OH2  OT    -0.834000       15.9994           0
   60033 WT3  6444 TIP3 H1   HT     0.417000        1.0080           0
   60034 WT3  6444 TIP3 H2   HT     0.417000        1.0080           0
   60035 WT3  6446 TIP3 OH2  OT    -0.834000       15.9994           0
   60036 WT3  6446 TIP3 H1   HT     0.417000        1.0080           0
   60037 WT3  6446 TIP3 H2   HT     0.417000        1.0080           0
   60038 WT3  6448 TIP3 OH2  OT    -0.834000       15.9994           0
   60039 WT3  6448 TIP3 H1   HT     0.417000        1.0080           0
   60040 WT3  6448 TIP3 H2   HT     0.417000        1.0080           0
   60041 WT3  6449 TIP3 OH2  OT    -0.834000       15.9994           0
   60042 WT3  6449 TIP3 H1   HT     0.417000        1.0080           0
   60043 WT3  6449 TIP3 H2   HT     0.417000        1.0080           0
   60044 WT3  6450 TIP3 OH2  OT    -0.834000       15.9994           0
   60045 WT3  6450 TIP3 H1   HT     0.417000        1.0080           0
   60046 WT3  6450 TIP3 H2   HT     0.417000        1.0080           0
   60047 WT3  6451 TIP3 OH2  OT    -0.834000       15.9994           0
   60048 WT3  6451 TIP3 H1   HT     0.417000        1.0080           0
   60049 WT3  6451 TIP3 H2   HT     0.417000        1.0080           0
   60050 WT3  6452 TIP3 OH2  OT    -0.834000       15.9994           0
   60051 WT3  6452 TIP3 H1   HT     0.417000        1.0080           0
   60052 WT3  6452 TIP3 H2   HT     0.417000        1.0080           0
   60053 WT3  6453 TIP3 OH2  OT    -0.834000       15.9994           0
   60054 WT3  6453 TIP3 H1   HT     0.417000        1.0080           0
   60055 WT3  6453 TIP3 H2   HT     0.417000        1.0080           0
   60056 WT3  6454 TIP3 OH2  OT    -0.834000       15.9994           0
   60057 WT3  6454 TIP3 H1   HT     0.417000        1.0080           0
   60058 WT3  6454 TIP3 H2   HT     0.417000        1.0080           0
   60059 WT3  6455 TIP3 OH2  OT    -0.834000       15.9994           0
   60060 WT3  6455 TIP3 H1   HT     0.417000        1.0080           0
   60061 WT3  6455 TIP3 H2   HT     0.417000        1.0080           0
   60062 WT3  6456 TIP3 OH2  OT    -0.834000       15.9994           0
   60063 WT3  6456 TIP3 H1   HT     0.417000        1.0080           0
   60064 WT3  6456 TIP3 H2   HT     0.417000        1.0080           0
   60065 WT3  6457 TIP3 OH2  OT    -0.834000       15.9994           0
   60066 WT3  6457 TIP3 H1   HT     0.417000        1.0080           0
   60067 WT3  6457 TIP3 H2   HT     0.417000        1.0080           0
   60068 WT3  6458 TIP3 OH2  OT    -0.834000       15.9994           0
   60069 WT3  6458 TIP3 H1   HT     0.417000        1.0080           0
   60070 WT3  6458 TIP3 H2   HT     0.417000        1.0080           0
   60071 WT3  6459 TIP3 OH2  OT    -0.834000       15.9994           0
   60072 WT3  6459 TIP3 H1   HT     0.417000        1.0080           0
   60073 WT3  6459 TIP3 H2   HT     0.417000        1.0080           0
   60074 WT3  6460 TIP3 OH2  OT    -0.834000       15.9994           0
   60075 WT3  6460 TIP3 H1   HT     0.417000        1.0080           0
   60076 WT3  6460 TIP3 H2   HT     0.417000        1.0080           0
   60077 WT3  6461 TIP3 OH2  OT    -0.834000       15.9994           0
   60078 WT3  6461 TIP3 H1   HT     0.417000        1.0080           0
   60079 WT3  6461 TIP3 H2   HT     0.417000        1.0080           0
   60080 WT3  6464 TIP3 OH2  OT    -0.834000       15.9994           0
   60081 WT3  6464 TIP3 H1   HT     0.417000        1.0080           0
   60082 WT3  6464 TIP3 H2   HT     0.417000        1.0080           0
   60083 WT3  6469 TIP3 OH2  OT    -0.834000       15.9994           0
   60084 WT3  6469 TIP3 H1   HT     0.417000        1.0080           0
   60085 WT3  6469 TIP3 H2   HT     0.417000        1.0080           0
   60086 WT3  6471 TIP3 OH2  OT    -0.834000       15.9994           0
   60087 WT3  6471 TIP3 H1   HT     0.417000        1.0080           0
   60088 WT3  6471 TIP3 H2   HT     0.417000        1.0080           0
   60089 WT3  6472 TIP3 OH2  OT    -0.834000       15.9994           0
   60090 WT3  6472 TIP3 H1   HT     0.417000        1.0080           0
   60091 WT3  6472 TIP3 H2   HT     0.417000        1.0080           0
   60092 WT3  6474 TIP3 OH2  OT    -0.834000       15.9994           0
   60093 WT3  6474 TIP3 H1   HT     0.417000        1.0080           0
   60094 WT3  6474 TIP3 H2   HT     0.417000        1.0080           0
   60095 WT3  6475 TIP3 OH2  OT    -0.834000       15.9994           0
   60096 WT3  6475 TIP3 H1   HT     0.417000        1.0080           0
   60097 WT3  6475 TIP3 H2   HT     0.417000        1.0080           0
   60098 WT3  6476 TIP3 OH2  OT    -0.834000       15.9994           0
   60099 WT3  6476 TIP3 H1   HT     0.417000        1.0080           0
   60100 WT3  6476 TIP3 H2   HT     0.417000        1.0080           0
   60101 WT3  6478 TIP3 OH2  OT    -0.834000       15.9994           0
   60102 WT3  6478 TIP3 H1   HT     0.417000        1.0080           0
   60103 WT3  6478 TIP3 H2   HT     0.417000        1.0080           0
   60104 WT3  6479 TIP3 OH2  OT    -0.834000       15.9994           0
   60105 WT3  6479 TIP3 H1   HT     0.417000        1.0080           0
   60106 WT3  6479 TIP3 H2   HT     0.417000        1.0080           0
   60107 WT3  6481 TIP3 OH2  OT    -0.834000       15.9994           0
   60108 WT3  6481 TIP3 H1   HT     0.417000        1.0080           0
   60109 WT3  6481 TIP3 H2   HT     0.417000        1.0080           0
   60110 WT3  6483 TIP3 OH2  OT    -0.834000       15.9994           0
   60111 WT3  6483 TIP3 H1   HT     0.417000        1.0080           0
   60112 WT3  6483 TIP3 H2   HT     0.417000        1.0080           0
   60113 WT3  6490 TIP3 OH2  OT    -0.834000       15.9994           0
   60114 WT3  6490 TIP3 H1   HT     0.417000        1.0080           0
   60115 WT3  6490 TIP3 H2   HT     0.417000        1.0080           0
   60116 WT3  6491 TIP3 OH2  OT    -0.834000       15.9994           0
   60117 WT3  6491 TIP3 H1   HT     0.417000        1.0080           0
   60118 WT3  6491 TIP3 H2   HT     0.417000        1.0080           0
   60119 WT3  6493 TIP3 OH2  OT    -0.834000       15.9994           0
   60120 WT3  6493 TIP3 H1   HT     0.417000        1.0080           0
   60121 WT3  6493 TIP3 H2   HT     0.417000        1.0080           0
   60122 WT3  6495 TIP3 OH2  OT    -0.834000       15.9994           0
   60123 WT3  6495 TIP3 H1   HT     0.417000        1.0080           0
   60124 WT3  6495 TIP3 H2   HT     0.417000        1.0080           0
   60125 WT3  6496 TIP3 OH2  OT    -0.834000       15.9994           0
   60126 WT3  6496 TIP3 H1   HT     0.417000        1.0080           0
   60127 WT3  6496 TIP3 H2   HT     0.417000        1.0080           0
   60128 WT3  6497 TIP3 OH2  OT    -0.834000       15.9994           0
   60129 WT3  6497 TIP3 H1   HT     0.417000        1.0080           0
   60130 WT3  6497 TIP3 H2   HT     0.417000        1.0080           0
   60131 WT3  6500 TIP3 OH2  OT    -0.834000       15.9994           0
   60132 WT3  6500 TIP3 H1   HT     0.417000        1.0080           0
   60133 WT3  6500 TIP3 H2   HT     0.417000        1.0080           0
   60134 WT3  6501 TIP3 OH2  OT    -0.834000       15.9994           0
   60135 WT3  6501 TIP3 H1   HT     0.417000        1.0080           0
   60136 WT3  6501 TIP3 H2   HT     0.417000        1.0080           0
   60137 WT3  6502 TIP3 OH2  OT    -0.834000       15.9994           0
   60138 WT3  6502 TIP3 H1   HT     0.417000        1.0080           0
   60139 WT3  6502 TIP3 H2   HT     0.417000        1.0080           0
   60140 WT3  6503 TIP3 OH2  OT    -0.834000       15.9994           0
   60141 WT3  6503 TIP3 H1   HT     0.417000        1.0080           0
   60142 WT3  6503 TIP3 H2   HT     0.417000        1.0080           0
   60143 WT3  6509 TIP3 OH2  OT    -0.834000       15.9994           0
   60144 WT3  6509 TIP3 H1   HT     0.417000        1.0080           0
   60145 WT3  6509 TIP3 H2   HT     0.417000        1.0080           0
   60146 WT3  6511 TIP3 OH2  OT    -0.834000       15.9994           0
   60147 WT3  6511 TIP3 H1   HT     0.417000        1.0080           0
   60148 WT3  6511 TIP3 H2   HT     0.417000        1.0080           0
   60149 WT3  6512 TIP3 OH2  OT    -0.834000       15.9994           0
   60150 WT3  6512 TIP3 H1   HT     0.417000        1.0080           0
   60151 WT3  6512 TIP3 H2   HT     0.417000        1.0080           0
   60152 WT3  6513 TIP3 OH2  OT    -0.834000       15.9994           0
   60153 WT3  6513 TIP3 H1   HT     0.417000        1.0080           0
   60154 WT3  6513 TIP3 H2   HT     0.417000        1.0080           0
   60155 WT3  6514 TIP3 OH2  OT    -0.834000       15.9994           0
   60156 WT3  6514 TIP3 H1   HT     0.417000        1.0080           0
   60157 WT3  6514 TIP3 H2   HT     0.417000        1.0080           0
   60158 WT3  6515 TIP3 OH2  OT    -0.834000       15.9994           0
   60159 WT3  6515 TIP3 H1   HT     0.417000        1.0080           0
   60160 WT3  6515 TIP3 H2   HT     0.417000        1.0080           0
   60161 WT3  6516 TIP3 OH2  OT    -0.834000       15.9994           0
   60162 WT3  6516 TIP3 H1   HT     0.417000        1.0080           0
   60163 WT3  6516 TIP3 H2   HT     0.417000        1.0080           0
   60164 WT3  6517 TIP3 OH2  OT    -0.834000       15.9994           0
   60165 WT3  6517 TIP3 H1   HT     0.417000        1.0080           0
   60166 WT3  6517 TIP3 H2   HT     0.417000        1.0080           0
   60167 WT3  6518 TIP3 OH2  OT    -0.834000       15.9994           0
   60168 WT3  6518 TIP3 H1   HT     0.417000        1.0080           0
   60169 WT3  6518 TIP3 H2   HT     0.417000        1.0080           0
   60170 WT3  6519 TIP3 OH2  OT    -0.834000       15.9994           0
   60171 WT3  6519 TIP3 H1   HT     0.417000        1.0080           0
   60172 WT3  6519 TIP3 H2   HT     0.417000        1.0080           0
   60173 WT3  6520 TIP3 OH2  OT    -0.834000       15.9994           0
   60174 WT3  6520 TIP3 H1   HT     0.417000        1.0080           0
   60175 WT3  6520 TIP3 H2   HT     0.417000        1.0080           0
   60176 WT3  6521 TIP3 OH2  OT    -0.834000       15.9994           0
   60177 WT3  6521 TIP3 H1   HT     0.417000        1.0080           0
   60178 WT3  6521 TIP3 H2   HT     0.417000        1.0080           0
   60179 WT3  6522 TIP3 OH2  OT    -0.834000       15.9994           0
   60180 WT3  6522 TIP3 H1   HT     0.417000        1.0080           0
   60181 WT3  6522 TIP3 H2   HT     0.417000        1.0080           0
   60182 WT3  6524 TIP3 OH2  OT    -0.834000       15.9994           0
   60183 WT3  6524 TIP3 H1   HT     0.417000        1.0080           0
   60184 WT3  6524 TIP3 H2   HT     0.417000        1.0080           0
   60185 WT3  6525 TIP3 OH2  OT    -0.834000       15.9994           0
   60186 WT3  6525 TIP3 H1   HT     0.417000        1.0080           0
   60187 WT3  6525 TIP3 H2   HT     0.417000        1.0080           0
   60188 WT3  6526 TIP3 OH2  OT    -0.834000       15.9994           0
   60189 WT3  6526 TIP3 H1   HT     0.417000        1.0080           0
   60190 WT3  6526 TIP3 H2   HT     0.417000        1.0080           0
   60191 WT3  6528 TIP3 OH2  OT    -0.834000       15.9994           0
   60192 WT3  6528 TIP3 H1   HT     0.417000        1.0080           0
   60193 WT3  6528 TIP3 H2   HT     0.417000        1.0080           0
   60194 WT3  6533 TIP3 OH2  OT    -0.834000       15.9994           0
   60195 WT3  6533 TIP3 H1   HT     0.417000        1.0080           0
   60196 WT3  6533 TIP3 H2   HT     0.417000        1.0080           0
   60197 WT3  6534 TIP3 OH2  OT    -0.834000       15.9994           0
   60198 WT3  6534 TIP3 H1   HT     0.417000        1.0080           0
   60199 WT3  6534 TIP3 H2   HT     0.417000        1.0080           0
   60200 WT3  6535 TIP3 OH2  OT    -0.834000       15.9994           0
   60201 WT3  6535 TIP3 H1   HT     0.417000        1.0080           0
   60202 WT3  6535 TIP3 H2   HT     0.417000        1.0080           0
   60203 WT3  6536 TIP3 OH2  OT    -0.834000       15.9994           0
   60204 WT3  6536 TIP3 H1   HT     0.417000        1.0080           0
   60205 WT3  6536 TIP3 H2   HT     0.417000        1.0080           0
   60206 WT3  6537 TIP3 OH2  OT    -0.834000       15.9994           0
   60207 WT3  6537 TIP3 H1   HT     0.417000        1.0080           0
   60208 WT3  6537 TIP3 H2   HT     0.417000        1.0080           0
   60209 WT3  6539 TIP3 OH2  OT    -0.834000       15.9994           0
   60210 WT3  6539 TIP3 H1   HT     0.417000        1.0080           0
   60211 WT3  6539 TIP3 H2   HT     0.417000        1.0080           0
   60212 WT3  6540 TIP3 OH2  OT    -0.834000       15.9994           0
   60213 WT3  6540 TIP3 H1   HT     0.417000        1.0080           0
   60214 WT3  6540 TIP3 H2   HT     0.417000        1.0080           0
   60215 WT3  6542 TIP3 OH2  OT    -0.834000       15.9994           0
   60216 WT3  6542 TIP3 H1   HT     0.417000        1.0080           0
   60217 WT3  6542 TIP3 H2   HT     0.417000        1.0080           0
   60218 WT3  6544 TIP3 OH2  OT    -0.834000       15.9994           0
   60219 WT3  6544 TIP3 H1   HT     0.417000        1.0080           0
   60220 WT3  6544 TIP3 H2   HT     0.417000        1.0080           0
   60221 WT3  6545 TIP3 OH2  OT    -0.834000       15.9994           0
   60222 WT3  6545 TIP3 H1   HT     0.417000        1.0080           0
   60223 WT3  6545 TIP3 H2   HT     0.417000        1.0080           0
   60224 WT3  6547 TIP3 OH2  OT    -0.834000       15.9994           0
   60225 WT3  6547 TIP3 H1   HT     0.417000        1.0080           0
   60226 WT3  6547 TIP3 H2   HT     0.417000        1.0080           0
   60227 WT3  6549 TIP3 OH2  OT    -0.834000       15.9994           0
   60228 WT3  6549 TIP3 H1   HT     0.417000        1.0080           0
   60229 WT3  6549 TIP3 H2   HT     0.417000        1.0080           0
   60230 WT3  6551 TIP3 OH2  OT    -0.834000       15.9994           0
   60231 WT3  6551 TIP3 H1   HT     0.417000        1.0080           0
   60232 WT3  6551 TIP3 H2   HT     0.417000        1.0080           0
   60233 WT3  6552 TIP3 OH2  OT    -0.834000       15.9994           0
   60234 WT3  6552 TIP3 H1   HT     0.417000        1.0080           0
   60235 WT3  6552 TIP3 H2   HT     0.417000        1.0080           0
   60236 WT3  6553 TIP3 OH2  OT    -0.834000       15.9994           0
   60237 WT3  6553 TIP3 H1   HT     0.417000        1.0080           0
   60238 WT3  6553 TIP3 H2   HT     0.417000        1.0080           0
   60239 WT3  6554 TIP3 OH2  OT    -0.834000       15.9994           0
   60240 WT3  6554 TIP3 H1   HT     0.417000        1.0080           0
   60241 WT3  6554 TIP3 H2   HT     0.417000        1.0080           0
   60242 WT3  6555 TIP3 OH2  OT    -0.834000       15.9994           0
   60243 WT3  6555 TIP3 H1   HT     0.417000        1.0080           0
   60244 WT3  6555 TIP3 H2   HT     0.417000        1.0080           0
   60245 WT3  6557 TIP3 OH2  OT    -0.834000       15.9994           0
   60246 WT3  6557 TIP3 H1   HT     0.417000        1.0080           0
   60247 WT3  6557 TIP3 H2   HT     0.417000        1.0080           0
   60248 WT3  6558 TIP3 OH2  OT    -0.834000       15.9994           0
   60249 WT3  6558 TIP3 H1   HT     0.417000        1.0080           0
   60250 WT3  6558 TIP3 H2   HT     0.417000        1.0080           0
   60251 WT3  6559 TIP3 OH2  OT    -0.834000       15.9994           0
   60252 WT3  6559 TIP3 H1   HT     0.417000        1.0080           0
   60253 WT3  6559 TIP3 H2   HT     0.417000        1.0080           0
   60254 WT3  6560 TIP3 OH2  OT    -0.834000       15.9994           0
   60255 WT3  6560 TIP3 H1   HT     0.417000        1.0080           0
   60256 WT3  6560 TIP3 H2   HT     0.417000        1.0080           0
   60257 WT3  6561 TIP3 OH2  OT    -0.834000       15.9994           0
   60258 WT3  6561 TIP3 H1   HT     0.417000        1.0080           0
   60259 WT3  6561 TIP3 H2   HT     0.417000        1.0080           0
   60260 WT3  6562 TIP3 OH2  OT    -0.834000       15.9994           0
   60261 WT3  6562 TIP3 H1   HT     0.417000        1.0080           0
   60262 WT3  6562 TIP3 H2   HT     0.417000        1.0080           0
   60263 WT3  6563 TIP3 OH2  OT    -0.834000       15.9994           0
   60264 WT3  6563 TIP3 H1   HT     0.417000        1.0080           0
   60265 WT3  6563 TIP3 H2   HT     0.417000        1.0080           0
   60266 WT3  6564 TIP3 OH2  OT    -0.834000       15.9994           0
   60267 WT3  6564 TIP3 H1   HT     0.417000        1.0080           0
   60268 WT3  6564 TIP3 H2   HT     0.417000        1.0080           0
   60269 WT3  6565 TIP3 OH2  OT    -0.834000       15.9994           0
   60270 WT3  6565 TIP3 H1   HT     0.417000        1.0080           0
   60271 WT3  6565 TIP3 H2   HT     0.417000        1.0080           0
   60272 WT3  6566 TIP3 OH2  OT    -0.834000       15.9994           0
   60273 WT3  6566 TIP3 H1   HT     0.417000        1.0080           0
   60274 WT3  6566 TIP3 H2   HT     0.417000        1.0080           0
   60275 WT3  6568 TIP3 OH2  OT    -0.834000       15.9994           0
   60276 WT3  6568 TIP3 H1   HT     0.417000        1.0080           0
   60277 WT3  6568 TIP3 H2   HT     0.417000        1.0080           0
   60278 WT3  6575 TIP3 OH2  OT    -0.834000       15.9994           0
   60279 WT3  6575 TIP3 H1   HT     0.417000        1.0080           0
   60280 WT3  6575 TIP3 H2   HT     0.417000        1.0080           0
   60281 WT3  6577 TIP3 OH2  OT    -0.834000       15.9994           0
   60282 WT3  6577 TIP3 H1   HT     0.417000        1.0080           0
   60283 WT3  6577 TIP3 H2   HT     0.417000        1.0080           0
   60284 WT3  6578 TIP3 OH2  OT    -0.834000       15.9994           0
   60285 WT3  6578 TIP3 H1   HT     0.417000        1.0080           0
   60286 WT3  6578 TIP3 H2   HT     0.417000        1.0080           0
   60287 WT3  6579 TIP3 OH2  OT    -0.834000       15.9994           0
   60288 WT3  6579 TIP3 H1   HT     0.417000        1.0080           0
   60289 WT3  6579 TIP3 H2   HT     0.417000        1.0080           0
   60290 WT3  6580 TIP3 OH2  OT    -0.834000       15.9994           0
   60291 WT3  6580 TIP3 H1   HT     0.417000        1.0080           0
   60292 WT3  6580 TIP3 H2   HT     0.417000        1.0080           0
   60293 WT3  6581 TIP3 OH2  OT    -0.834000       15.9994           0
   60294 WT3  6581 TIP3 H1   HT     0.417000        1.0080           0
   60295 WT3  6581 TIP3 H2   HT     0.417000        1.0080           0
   60296 WT3  6582 TIP3 OH2  OT    -0.834000       15.9994           0
   60297 WT3  6582 TIP3 H1   HT     0.417000        1.0080           0
   60298 WT3  6582 TIP3 H2   HT     0.417000        1.0080           0
   60299 WT3  6583 TIP3 OH2  OT    -0.834000       15.9994           0
   60300 WT3  6583 TIP3 H1   HT     0.417000        1.0080           0
   60301 WT3  6583 TIP3 H2   HT     0.417000        1.0080           0
   60302 WT3  6584 TIP3 OH2  OT    -0.834000       15.9994           0
   60303 WT3  6584 TIP3 H1   HT     0.417000        1.0080           0
   60304 WT3  6584 TIP3 H2   HT     0.417000        1.0080           0
   60305 WT3  6586 TIP3 OH2  OT    -0.834000       15.9994           0
   60306 WT3  6586 TIP3 H1   HT     0.417000        1.0080           0
   60307 WT3  6586 TIP3 H2   HT     0.417000        1.0080           0
   60308 WT3  6595 TIP3 OH2  OT    -0.834000       15.9994           0
   60309 WT3  6595 TIP3 H1   HT     0.417000        1.0080           0
   60310 WT3  6595 TIP3 H2   HT     0.417000        1.0080           0
   60311 WT3  6597 TIP3 OH2  OT    -0.834000       15.9994           0
   60312 WT3  6597 TIP3 H1   HT     0.417000        1.0080           0
   60313 WT3  6597 TIP3 H2   HT     0.417000        1.0080           0
   60314 WT3  6599 TIP3 OH2  OT    -0.834000       15.9994           0
   60315 WT3  6599 TIP3 H1   HT     0.417000        1.0080           0
   60316 WT3  6599 TIP3 H2   HT     0.417000        1.0080           0
   60317 WT3  6600 TIP3 OH2  OT    -0.834000       15.9994           0
   60318 WT3  6600 TIP3 H1   HT     0.417000        1.0080           0
   60319 WT3  6600 TIP3 H2   HT     0.417000        1.0080           0
   60320 WT3  6601 TIP3 OH2  OT    -0.834000       15.9994           0
   60321 WT3  6601 TIP3 H1   HT     0.417000        1.0080           0
   60322 WT3  6601 TIP3 H2   HT     0.417000        1.0080           0
   60323 WT3  6602 TIP3 OH2  OT    -0.834000       15.9994           0
   60324 WT3  6602 TIP3 H1   HT     0.417000        1.0080           0
   60325 WT3  6602 TIP3 H2   HT     0.417000        1.0080           0
   60326 WT3  6603 TIP3 OH2  OT    -0.834000       15.9994           0
   60327 WT3  6603 TIP3 H1   HT     0.417000        1.0080           0
   60328 WT3  6603 TIP3 H2   HT     0.417000        1.0080           0
   60329 WT3  6604 TIP3 OH2  OT    -0.834000       15.9994           0
   60330 WT3  6604 TIP3 H1   HT     0.417000        1.0080           0
   60331 WT3  6604 TIP3 H2   HT     0.417000        1.0080           0
   60332 WT3  6605 TIP3 OH2  OT    -0.834000       15.9994           0
   60333 WT3  6605 TIP3 H1   HT     0.417000        1.0080           0
   60334 WT3  6605 TIP3 H2   HT     0.417000        1.0080           0
   60335 WT3  6606 TIP3 OH2  OT    -0.834000       15.9994           0
   60336 WT3  6606 TIP3 H1   HT     0.417000        1.0080           0
   60337 WT3  6606 TIP3 H2   HT     0.417000        1.0080           0
   60338 WT3  6607 TIP3 OH2  OT    -0.834000       15.9994           0
   60339 WT3  6607 TIP3 H1   HT     0.417000        1.0080           0
   60340 WT3  6607 TIP3 H2   HT     0.417000        1.0080           0
   60341 WT3  6608 TIP3 OH2  OT    -0.834000       15.9994           0
   60342 WT3  6608 TIP3 H1   HT     0.417000        1.0080           0
   60343 WT3  6608 TIP3 H2   HT     0.417000        1.0080           0
   60344 WT3  6609 TIP3 OH2  OT    -0.834000       15.9994           0
   60345 WT3  6609 TIP3 H1   HT     0.417000        1.0080           0
   60346 WT3  6609 TIP3 H2   HT     0.417000        1.0080           0
   60347 WT3  6612 TIP3 OH2  OT    -0.834000       15.9994           0
   60348 WT3  6612 TIP3 H1   HT     0.417000        1.0080           0
   60349 WT3  6612 TIP3 H2   HT     0.417000        1.0080           0
   60350 WT3  6614 TIP3 OH2  OT    -0.834000       15.9994           0
   60351 WT3  6614 TIP3 H1   HT     0.417000        1.0080           0
   60352 WT3  6614 TIP3 H2   HT     0.417000        1.0080           0
   60353 WT3  6615 TIP3 OH2  OT    -0.834000       15.9994           0
   60354 WT3  6615 TIP3 H1   HT     0.417000        1.0080           0
   60355 WT3  6615 TIP3 H2   HT     0.417000        1.0080           0
   60356 WT3  6616 TIP3 OH2  OT    -0.834000       15.9994           0
   60357 WT3  6616 TIP3 H1   HT     0.417000        1.0080           0
   60358 WT3  6616 TIP3 H2   HT     0.417000        1.0080           0
   60359 WT3  6620 TIP3 OH2  OT    -0.834000       15.9994           0
   60360 WT3  6620 TIP3 H1   HT     0.417000        1.0080           0
   60361 WT3  6620 TIP3 H2   HT     0.417000        1.0080           0
   60362 WT3  6621 TIP3 OH2  OT    -0.834000       15.9994           0
   60363 WT3  6621 TIP3 H1   HT     0.417000        1.0080           0
   60364 WT3  6621 TIP3 H2   HT     0.417000        1.0080           0
   60365 WT3  6622 TIP3 OH2  OT    -0.834000       15.9994           0
   60366 WT3  6622 TIP3 H1   HT     0.417000        1.0080           0
   60367 WT3  6622 TIP3 H2   HT     0.417000        1.0080           0
   60368 WT3  6623 TIP3 OH2  OT    -0.834000       15.9994           0
   60369 WT3  6623 TIP3 H1   HT     0.417000        1.0080           0
   60370 WT3  6623 TIP3 H2   HT     0.417000        1.0080           0
   60371 WT3  6624 TIP3 OH2  OT    -0.834000       15.9994           0
   60372 WT3  6624 TIP3 H1   HT     0.417000        1.0080           0
   60373 WT3  6624 TIP3 H2   HT     0.417000        1.0080           0
   60374 WT3  6625 TIP3 OH2  OT    -0.834000       15.9994           0
   60375 WT3  6625 TIP3 H1   HT     0.417000        1.0080           0
   60376 WT3  6625 TIP3 H2   HT     0.417000        1.0080           0
   60377 WT3  6626 TIP3 OH2  OT    -0.834000       15.9994           0
   60378 WT3  6626 TIP3 H1   HT     0.417000        1.0080           0
   60379 WT3  6626 TIP3 H2   HT     0.417000        1.0080           0
   60380 WT3  6627 TIP3 OH2  OT    -0.834000       15.9994           0
   60381 WT3  6627 TIP3 H1   HT     0.417000        1.0080           0
   60382 WT3  6627 TIP3 H2   HT     0.417000        1.0080           0
   60383 WT3  6628 TIP3 OH2  OT    -0.834000       15.9994           0
   60384 WT3  6628 TIP3 H1   HT     0.417000        1.0080           0
   60385 WT3  6628 TIP3 H2   HT     0.417000        1.0080           0
   60386 WT3  6630 TIP3 OH2  OT    -0.834000       15.9994           0
   60387 WT3  6630 TIP3 H1   HT     0.417000        1.0080           0
   60388 WT3  6630 TIP3 H2   HT     0.417000        1.0080           0
   60389 WT3  6631 TIP3 OH2  OT    -0.834000       15.9994           0
   60390 WT3  6631 TIP3 H1   HT     0.417000        1.0080           0
   60391 WT3  6631 TIP3 H2   HT     0.417000        1.0080           0
   60392 WT3  6633 TIP3 OH2  OT    -0.834000       15.9994           0
   60393 WT3  6633 TIP3 H1   HT     0.417000        1.0080           0
   60394 WT3  6633 TIP3 H2   HT     0.417000        1.0080           0
   60395 WT3  6636 TIP3 OH2  OT    -0.834000       15.9994           0
   60396 WT3  6636 TIP3 H1   HT     0.417000        1.0080           0
   60397 WT3  6636 TIP3 H2   HT     0.417000        1.0080           0
   60398 WT3  6637 TIP3 OH2  OT    -0.834000       15.9994           0
   60399 WT3  6637 TIP3 H1   HT     0.417000        1.0080           0
   60400 WT3  6637 TIP3 H2   HT     0.417000        1.0080           0
   60401 WT3  6638 TIP3 OH2  OT    -0.834000       15.9994           0
   60402 WT3  6638 TIP3 H1   HT     0.417000        1.0080           0
   60403 WT3  6638 TIP3 H2   HT     0.417000        1.0080           0
   60404 WT3  6641 TIP3 OH2  OT    -0.834000       15.9994           0
   60405 WT3  6641 TIP3 H1   HT     0.417000        1.0080           0
   60406 WT3  6641 TIP3 H2   HT     0.417000        1.0080           0
   60407 WT3  6642 TIP3 OH2  OT    -0.834000       15.9994           0
   60408 WT3  6642 TIP3 H1   HT     0.417000        1.0080           0
   60409 WT3  6642 TIP3 H2   HT     0.417000        1.0080           0
   60410 WT3  6643 TIP3 OH2  OT    -0.834000       15.9994           0
   60411 WT3  6643 TIP3 H1   HT     0.417000        1.0080           0
   60412 WT3  6643 TIP3 H2   HT     0.417000        1.0080           0
   60413 WT3  6644 TIP3 OH2  OT    -0.834000       15.9994           0
   60414 WT3  6644 TIP3 H1   HT     0.417000        1.0080           0
   60415 WT3  6644 TIP3 H2   HT     0.417000        1.0080           0
   60416 WT3  6645 TIP3 OH2  OT    -0.834000       15.9994           0
   60417 WT3  6645 TIP3 H1   HT     0.417000        1.0080           0
   60418 WT3  6645 TIP3 H2   HT     0.417000        1.0080           0
   60419 WT3  6646 TIP3 OH2  OT    -0.834000       15.9994           0
   60420 WT3  6646 TIP3 H1   HT     0.417000        1.0080           0
   60421 WT3  6646 TIP3 H2   HT     0.417000        1.0080           0
   60422 WT3  6647 TIP3 OH2  OT    -0.834000       15.9994           0
   60423 WT3  6647 TIP3 H1   HT     0.417000        1.0080           0
   60424 WT3  6647 TIP3 H2   HT     0.417000        1.0080           0
   60425 WT3  6650 TIP3 OH2  OT    -0.834000       15.9994           0
   60426 WT3  6650 TIP3 H1   HT     0.417000        1.0080           0
   60427 WT3  6650 TIP3 H2   HT     0.417000        1.0080           0
   60428 WT3  6656 TIP3 OH2  OT    -0.834000       15.9994           0
   60429 WT3  6656 TIP3 H1   HT     0.417000        1.0080           0
   60430 WT3  6656 TIP3 H2   HT     0.417000        1.0080           0
   60431 WT3  6657 TIP3 OH2  OT    -0.834000       15.9994           0
   60432 WT3  6657 TIP3 H1   HT     0.417000        1.0080           0
   60433 WT3  6657 TIP3 H2   HT     0.417000        1.0080           0
   60434 WT3  6659 TIP3 OH2  OT    -0.834000       15.9994           0
   60435 WT3  6659 TIP3 H1   HT     0.417000        1.0080           0
   60436 WT3  6659 TIP3 H2   HT     0.417000        1.0080           0
   60437 WT3  6660 TIP3 OH2  OT    -0.834000       15.9994           0
   60438 WT3  6660 TIP3 H1   HT     0.417000        1.0080           0
   60439 WT3  6660 TIP3 H2   HT     0.417000        1.0080           0
   60440 WT3  6661 TIP3 OH2  OT    -0.834000       15.9994           0
   60441 WT3  6661 TIP3 H1   HT     0.417000        1.0080           0
   60442 WT3  6661 TIP3 H2   HT     0.417000        1.0080           0
   60443 WT3  6662 TIP3 OH2  OT    -0.834000       15.9994           0
   60444 WT3  6662 TIP3 H1   HT     0.417000        1.0080           0
   60445 WT3  6662 TIP3 H2   HT     0.417000        1.0080           0
   60446 WT3  6663 TIP3 OH2  OT    -0.834000       15.9994           0
   60447 WT3  6663 TIP3 H1   HT     0.417000        1.0080           0
   60448 WT3  6663 TIP3 H2   HT     0.417000        1.0080           0
   60449 WT3  6664 TIP3 OH2  OT    -0.834000       15.9994           0
   60450 WT3  6664 TIP3 H1   HT     0.417000        1.0080           0
   60451 WT3  6664 TIP3 H2   HT     0.417000        1.0080           0
   60452 WT3  6665 TIP3 OH2  OT    -0.834000       15.9994           0
   60453 WT3  6665 TIP3 H1   HT     0.417000        1.0080           0
   60454 WT3  6665 TIP3 H2   HT     0.417000        1.0080           0
   60455 WT3  6666 TIP3 OH2  OT    -0.834000       15.9994           0
   60456 WT3  6666 TIP3 H1   HT     0.417000        1.0080           0
   60457 WT3  6666 TIP3 H2   HT     0.417000        1.0080           0
   60458 WT3  6667 TIP3 OH2  OT    -0.834000       15.9994           0
   60459 WT3  6667 TIP3 H1   HT     0.417000        1.0080           0
   60460 WT3  6667 TIP3 H2   HT     0.417000        1.0080           0
   60461 WT3  6669 TIP3 OH2  OT    -0.834000       15.9994           0
   60462 WT3  6669 TIP3 H1   HT     0.417000        1.0080           0
   60463 WT3  6669 TIP3 H2   HT     0.417000        1.0080           0
   60464 WT3  6670 TIP3 OH2  OT    -0.834000       15.9994           0
   60465 WT3  6670 TIP3 H1   HT     0.417000        1.0080           0
   60466 WT3  6670 TIP3 H2   HT     0.417000        1.0080           0
   60467 WT3  6671 TIP3 OH2  OT    -0.834000       15.9994           0
   60468 WT3  6671 TIP3 H1   HT     0.417000        1.0080           0
   60469 WT3  6671 TIP3 H2   HT     0.417000        1.0080           0
   60470 WT3  6672 TIP3 OH2  OT    -0.834000       15.9994           0
   60471 WT3  6672 TIP3 H1   HT     0.417000        1.0080           0
   60472 WT3  6672 TIP3 H2   HT     0.417000        1.0080           0
   60473 WT3  6673 TIP3 OH2  OT    -0.834000       15.9994           0
   60474 WT3  6673 TIP3 H1   HT     0.417000        1.0080           0
   60475 WT3  6673 TIP3 H2   HT     0.417000        1.0080           0
   60476 WT3  6679 TIP3 OH2  OT    -0.834000       15.9994           0
   60477 WT3  6679 TIP3 H1   HT     0.417000        1.0080           0
   60478 WT3  6679 TIP3 H2   HT     0.417000        1.0080           0
   60479 WT3  6681 TIP3 OH2  OT    -0.834000       15.9994           0
   60480 WT3  6681 TIP3 H1   HT     0.417000        1.0080           0
   60481 WT3  6681 TIP3 H2   HT     0.417000        1.0080           0
   60482 WT3  6683 TIP3 OH2  OT    -0.834000       15.9994           0
   60483 WT3  6683 TIP3 H1   HT     0.417000        1.0080           0
   60484 WT3  6683 TIP3 H2   HT     0.417000        1.0080           0
   60485 WT3  6684 TIP3 OH2  OT    -0.834000       15.9994           0
   60486 WT3  6684 TIP3 H1   HT     0.417000        1.0080           0
   60487 WT3  6684 TIP3 H2   HT     0.417000        1.0080           0
   60488 WT3  6685 TIP3 OH2  OT    -0.834000       15.9994           0
   60489 WT3  6685 TIP3 H1   HT     0.417000        1.0080           0
   60490 WT3  6685 TIP3 H2   HT     0.417000        1.0080           0
   60491 WT3  6686 TIP3 OH2  OT    -0.834000       15.9994           0
   60492 WT3  6686 TIP3 H1   HT     0.417000        1.0080           0
   60493 WT3  6686 TIP3 H2   HT     0.417000        1.0080           0
   60494 WT3  6687 TIP3 OH2  OT    -0.834000       15.9994           0
   60495 WT3  6687 TIP3 H1   HT     0.417000        1.0080           0
   60496 WT3  6687 TIP3 H2   HT     0.417000        1.0080           0
   60497 WT3  6688 TIP3 OH2  OT    -0.834000       15.9994           0
   60498 WT3  6688 TIP3 H1   HT     0.417000        1.0080           0
   60499 WT3  6688 TIP3 H2   HT     0.417000        1.0080           0
   60500 WT3  6692 TIP3 OH2  OT    -0.834000       15.9994           0
   60501 WT3  6692 TIP3 H1   HT     0.417000        1.0080           0
   60502 WT3  6692 TIP3 H2   HT     0.417000        1.0080           0
   60503 WT3  6693 TIP3 OH2  OT    -0.834000       15.9994           0
   60504 WT3  6693 TIP3 H1   HT     0.417000        1.0080           0
   60505 WT3  6693 TIP3 H2   HT     0.417000        1.0080           0
   60506 WT3  6698 TIP3 OH2  OT    -0.834000       15.9994           0
   60507 WT3  6698 TIP3 H1   HT     0.417000        1.0080           0
   60508 WT3  6698 TIP3 H2   HT     0.417000        1.0080           0
   60509 WT3  6700 TIP3 OH2  OT    -0.834000       15.9994           0
   60510 WT3  6700 TIP3 H1   HT     0.417000        1.0080           0
   60511 WT3  6700 TIP3 H2   HT     0.417000        1.0080           0
   60512 WT3  6701 TIP3 OH2  OT    -0.834000       15.9994           0
   60513 WT3  6701 TIP3 H1   HT     0.417000        1.0080           0
   60514 WT3  6701 TIP3 H2   HT     0.417000        1.0080           0
   60515 WT3  6703 TIP3 OH2  OT    -0.834000       15.9994           0
   60516 WT3  6703 TIP3 H1   HT     0.417000        1.0080           0
   60517 WT3  6703 TIP3 H2   HT     0.417000        1.0080           0
   60518 WT3  6704 TIP3 OH2  OT    -0.834000       15.9994           0
   60519 WT3  6704 TIP3 H1   HT     0.417000        1.0080           0
   60520 WT3  6704 TIP3 H2   HT     0.417000        1.0080           0
   60521 WT3  6705 TIP3 OH2  OT    -0.834000       15.9994           0
   60522 WT3  6705 TIP3 H1   HT     0.417000        1.0080           0
   60523 WT3  6705 TIP3 H2   HT     0.417000        1.0080           0
   60524 WT3  6706 TIP3 OH2  OT    -0.834000       15.9994           0
   60525 WT3  6706 TIP3 H1   HT     0.417000        1.0080           0
   60526 WT3  6706 TIP3 H2   HT     0.417000        1.0080           0
   60527 WT3  6707 TIP3 OH2  OT    -0.834000       15.9994           0
   60528 WT3  6707 TIP3 H1   HT     0.417000        1.0080           0
   60529 WT3  6707 TIP3 H2   HT     0.417000        1.0080           0
   60530 WT3  6708 TIP3 OH2  OT    -0.834000       15.9994           0
   60531 WT3  6708 TIP3 H1   HT     0.417000        1.0080           0
   60532 WT3  6708 TIP3 H2   HT     0.417000        1.0080           0
   60533 WT3  6709 TIP3 OH2  OT    -0.834000       15.9994           0
   60534 WT3  6709 TIP3 H1   HT     0.417000        1.0080           0
   60535 WT3  6709 TIP3 H2   HT     0.417000        1.0080           0
   60536 WT3  6710 TIP3 OH2  OT    -0.834000       15.9994           0
   60537 WT3  6710 TIP3 H1   HT     0.417000        1.0080           0
   60538 WT3  6710 TIP3 H2   HT     0.417000        1.0080           0
   60539 WT3  6711 TIP3 OH2  OT    -0.834000       15.9994           0
   60540 WT3  6711 TIP3 H1   HT     0.417000        1.0080           0
   60541 WT3  6711 TIP3 H2   HT     0.417000        1.0080           0
   60542 WT3  6712 TIP3 OH2  OT    -0.834000       15.9994           0
   60543 WT3  6712 TIP3 H1   HT     0.417000        1.0080           0
   60544 WT3  6712 TIP3 H2   HT     0.417000        1.0080           0
   60545 WT3  6713 TIP3 OH2  OT    -0.834000       15.9994           0
   60546 WT3  6713 TIP3 H1   HT     0.417000        1.0080           0
   60547 WT3  6713 TIP3 H2   HT     0.417000        1.0080           0
   60548 WT3  6717 TIP3 OH2  OT    -0.834000       15.9994           0
   60549 WT3  6717 TIP3 H1   HT     0.417000        1.0080           0
   60550 WT3  6717 TIP3 H2   HT     0.417000        1.0080           0
   60551 WT3  6721 TIP3 OH2  OT    -0.834000       15.9994           0
   60552 WT3  6721 TIP3 H1   HT     0.417000        1.0080           0
   60553 WT3  6721 TIP3 H2   HT     0.417000        1.0080           0
   60554 WT3  6722 TIP3 OH2  OT    -0.834000       15.9994           0
   60555 WT3  6722 TIP3 H1   HT     0.417000        1.0080           0
   60556 WT3  6722 TIP3 H2   HT     0.417000        1.0080           0
   60557 WT3  6725 TIP3 OH2  OT    -0.834000       15.9994           0
   60558 WT3  6725 TIP3 H1   HT     0.417000        1.0080           0
   60559 WT3  6725 TIP3 H2   HT     0.417000        1.0080           0
   60560 WT3  6727 TIP3 OH2  OT    -0.834000       15.9994           0
   60561 WT3  6727 TIP3 H1   HT     0.417000        1.0080           0
   60562 WT3  6727 TIP3 H2   HT     0.417000        1.0080           0
   60563 WT3  6728 TIP3 OH2  OT    -0.834000       15.9994           0
   60564 WT3  6728 TIP3 H1   HT     0.417000        1.0080           0
   60565 WT3  6728 TIP3 H2   HT     0.417000        1.0080           0
   60566 WT3  6729 TIP3 OH2  OT    -0.834000       15.9994           0
   60567 WT3  6729 TIP3 H1   HT     0.417000        1.0080           0
   60568 WT3  6729 TIP3 H2   HT     0.417000        1.0080           0
   60569 WT3  6732 TIP3 OH2  OT    -0.834000       15.9994           0
   60570 WT3  6732 TIP3 H1   HT     0.417000        1.0080           0
   60571 WT3  6732 TIP3 H2   HT     0.417000        1.0080           0
   60572 WT3  6733 TIP3 OH2  OT    -0.834000       15.9994           0
   60573 WT3  6733 TIP3 H1   HT     0.417000        1.0080           0
   60574 WT3  6733 TIP3 H2   HT     0.417000        1.0080           0
   60575 WT3  6734 TIP3 OH2  OT    -0.834000       15.9994           0
   60576 WT3  6734 TIP3 H1   HT     0.417000        1.0080           0
   60577 WT3  6734 TIP3 H2   HT     0.417000        1.0080           0
   60578 WT3  6735 TIP3 OH2  OT    -0.834000       15.9994           0
   60579 WT3  6735 TIP3 H1   HT     0.417000        1.0080           0
   60580 WT3  6735 TIP3 H2   HT     0.417000        1.0080           0
   60581 WT3  6736 TIP3 OH2  OT    -0.834000       15.9994           0
   60582 WT3  6736 TIP3 H1   HT     0.417000        1.0080           0
   60583 WT3  6736 TIP3 H2   HT     0.417000        1.0080           0
   60584 WT3  6740 TIP3 OH2  OT    -0.834000       15.9994           0
   60585 WT3  6740 TIP3 H1   HT     0.417000        1.0080           0
   60586 WT3  6740 TIP3 H2   HT     0.417000        1.0080           0
   60587 WT3  6742 TIP3 OH2  OT    -0.834000       15.9994           0
   60588 WT3  6742 TIP3 H1   HT     0.417000        1.0080           0
   60589 WT3  6742 TIP3 H2   HT     0.417000        1.0080           0
   60590 WT3  6743 TIP3 OH2  OT    -0.834000       15.9994           0
   60591 WT3  6743 TIP3 H1   HT     0.417000        1.0080           0
   60592 WT3  6743 TIP3 H2   HT     0.417000        1.0080           0
   60593 WT3  6745 TIP3 OH2  OT    -0.834000       15.9994           0
   60594 WT3  6745 TIP3 H1   HT     0.417000        1.0080           0
   60595 WT3  6745 TIP3 H2   HT     0.417000        1.0080           0
   60596 WT3  6748 TIP3 OH2  OT    -0.834000       15.9994           0
   60597 WT3  6748 TIP3 H1   HT     0.417000        1.0080           0
   60598 WT3  6748 TIP3 H2   HT     0.417000        1.0080           0
   60599 WT3  6749 TIP3 OH2  OT    -0.834000       15.9994           0
   60600 WT3  6749 TIP3 H1   HT     0.417000        1.0080           0
   60601 WT3  6749 TIP3 H2   HT     0.417000        1.0080           0
   60602 WT3  6750 TIP3 OH2  OT    -0.834000       15.9994           0
   60603 WT3  6750 TIP3 H1   HT     0.417000        1.0080           0
   60604 WT3  6750 TIP3 H2   HT     0.417000        1.0080           0
   60605 WT3  6752 TIP3 OH2  OT    -0.834000       15.9994           0
   60606 WT3  6752 TIP3 H1   HT     0.417000        1.0080           0
   60607 WT3  6752 TIP3 H2   HT     0.417000        1.0080           0
   60608 WT3  6754 TIP3 OH2  OT    -0.834000       15.9994           0
   60609 WT3  6754 TIP3 H1   HT     0.417000        1.0080           0
   60610 WT3  6754 TIP3 H2   HT     0.417000        1.0080           0
   60611 WT3  6758 TIP3 OH2  OT    -0.834000       15.9994           0
   60612 WT3  6758 TIP3 H1   HT     0.417000        1.0080           0
   60613 WT3  6758 TIP3 H2   HT     0.417000        1.0080           0
   60614 WT3  6765 TIP3 OH2  OT    -0.834000       15.9994           0
   60615 WT3  6765 TIP3 H1   HT     0.417000        1.0080           0
   60616 WT3  6765 TIP3 H2   HT     0.417000        1.0080           0
   60617 WT3  6767 TIP3 OH2  OT    -0.834000       15.9994           0
   60618 WT3  6767 TIP3 H1   HT     0.417000        1.0080           0
   60619 WT3  6767 TIP3 H2   HT     0.417000        1.0080           0
   60620 WT3  6768 TIP3 OH2  OT    -0.834000       15.9994           0
   60621 WT3  6768 TIP3 H1   HT     0.417000        1.0080           0
   60622 WT3  6768 TIP3 H2   HT     0.417000        1.0080           0
   60623 WT3  6769 TIP3 OH2  OT    -0.834000       15.9994           0
   60624 WT3  6769 TIP3 H1   HT     0.417000        1.0080           0
   60625 WT3  6769 TIP3 H2   HT     0.417000        1.0080           0
   60626 WT3  6770 TIP3 OH2  OT    -0.834000       15.9994           0
   60627 WT3  6770 TIP3 H1   HT     0.417000        1.0080           0
   60628 WT3  6770 TIP3 H2   HT     0.417000        1.0080           0
   60629 WT3  6771 TIP3 OH2  OT    -0.834000       15.9994           0
   60630 WT3  6771 TIP3 H1   HT     0.417000        1.0080           0
   60631 WT3  6771 TIP3 H2   HT     0.417000        1.0080           0
   60632 WT3  6772 TIP3 OH2  OT    -0.834000       15.9994           0
   60633 WT3  6772 TIP3 H1   HT     0.417000        1.0080           0
   60634 WT3  6772 TIP3 H2   HT     0.417000        1.0080           0
   60635 WT3  6773 TIP3 OH2  OT    -0.834000       15.9994           0
   60636 WT3  6773 TIP3 H1   HT     0.417000        1.0080           0
   60637 WT3  6773 TIP3 H2   HT     0.417000        1.0080           0
   60638 WT3  6774 TIP3 OH2  OT    -0.834000       15.9994           0
   60639 WT3  6774 TIP3 H1   HT     0.417000        1.0080           0
   60640 WT3  6774 TIP3 H2   HT     0.417000        1.0080           0
   60641 WT3  6775 TIP3 OH2  OT    -0.834000       15.9994           0
   60642 WT3  6775 TIP3 H1   HT     0.417000        1.0080           0
   60643 WT3  6775 TIP3 H2   HT     0.417000        1.0080           0
   60644 WT3  6776 TIP3 OH2  OT    -0.834000       15.9994           0
   60645 WT3  6776 TIP3 H1   HT     0.417000        1.0080           0
   60646 WT3  6776 TIP3 H2   HT     0.417000        1.0080           0
   60647 WT3  6777 TIP3 OH2  OT    -0.834000       15.9994           0
   60648 WT3  6777 TIP3 H1   HT     0.417000        1.0080           0
   60649 WT3  6777 TIP3 H2   HT     0.417000        1.0080           0
   60650 WT3  6786 TIP3 OH2  OT    -0.834000       15.9994           0
   60651 WT3  6786 TIP3 H1   HT     0.417000        1.0080           0
   60652 WT3  6786 TIP3 H2   HT     0.417000        1.0080           0
   60653 WT3  6788 TIP3 OH2  OT    -0.834000       15.9994           0
   60654 WT3  6788 TIP3 H1   HT     0.417000        1.0080           0
   60655 WT3  6788 TIP3 H2   HT     0.417000        1.0080           0
   60656 WT3  6789 TIP3 OH2  OT    -0.834000       15.9994           0
   60657 WT3  6789 TIP3 H1   HT     0.417000        1.0080           0
   60658 WT3  6789 TIP3 H2   HT     0.417000        1.0080           0
   60659 WT3  6790 TIP3 OH2  OT    -0.834000       15.9994           0
   60660 WT3  6790 TIP3 H1   HT     0.417000        1.0080           0
   60661 WT3  6790 TIP3 H2   HT     0.417000        1.0080           0
   60662 WT3  6791 TIP3 OH2  OT    -0.834000       15.9994           0
   60663 WT3  6791 TIP3 H1   HT     0.417000        1.0080           0
   60664 WT3  6791 TIP3 H2   HT     0.417000        1.0080           0
   60665 WT3  6792 TIP3 OH2  OT    -0.834000       15.9994           0
   60666 WT3  6792 TIP3 H1   HT     0.417000        1.0080           0
   60667 WT3  6792 TIP3 H2   HT     0.417000        1.0080           0
   60668 WT3  6793 TIP3 OH2  OT    -0.834000       15.9994           0
   60669 WT3  6793 TIP3 H1   HT     0.417000        1.0080           0
   60670 WT3  6793 TIP3 H2   HT     0.417000        1.0080           0
   60671 WT3  6794 TIP3 OH2  OT    -0.834000       15.9994           0
   60672 WT3  6794 TIP3 H1   HT     0.417000        1.0080           0
   60673 WT3  6794 TIP3 H2   HT     0.417000        1.0080           0
   60674 WT3  6801 TIP3 OH2  OT    -0.834000       15.9994           0
   60675 WT3  6801 TIP3 H1   HT     0.417000        1.0080           0
   60676 WT3  6801 TIP3 H2   HT     0.417000        1.0080           0
   60677 WT3  6802 TIP3 OH2  OT    -0.834000       15.9994           0
   60678 WT3  6802 TIP3 H1   HT     0.417000        1.0080           0
   60679 WT3  6802 TIP3 H2   HT     0.417000        1.0080           0
   60680 WT3  6807 TIP3 OH2  OT    -0.834000       15.9994           0
   60681 WT3  6807 TIP3 H1   HT     0.417000        1.0080           0
   60682 WT3  6807 TIP3 H2   HT     0.417000        1.0080           0
   60683 WT3  6808 TIP3 OH2  OT    -0.834000       15.9994           0
   60684 WT3  6808 TIP3 H1   HT     0.417000        1.0080           0
   60685 WT3  6808 TIP3 H2   HT     0.417000        1.0080           0
   60686 WT3  6810 TIP3 OH2  OT    -0.834000       15.9994           0
   60687 WT3  6810 TIP3 H1   HT     0.417000        1.0080           0
   60688 WT3  6810 TIP3 H2   HT     0.417000        1.0080           0
   60689 WT3  6811 TIP3 OH2  OT    -0.834000       15.9994           0
   60690 WT3  6811 TIP3 H1   HT     0.417000        1.0080           0
   60691 WT3  6811 TIP3 H2   HT     0.417000        1.0080           0
   60692 WT3  6812 TIP3 OH2  OT    -0.834000       15.9994           0
   60693 WT3  6812 TIP3 H1   HT     0.417000        1.0080           0
   60694 WT3  6812 TIP3 H2   HT     0.417000        1.0080           0
   60695 WT3  6817 TIP3 OH2  OT    -0.834000       15.9994           0
   60696 WT3  6817 TIP3 H1   HT     0.417000        1.0080           0
   60697 WT3  6817 TIP3 H2   HT     0.417000        1.0080           0
   60698 WT3  6819 TIP3 OH2  OT    -0.834000       15.9994           0
   60699 WT3  6819 TIP3 H1   HT     0.417000        1.0080           0
   60700 WT3  6819 TIP3 H2   HT     0.417000        1.0080           0
   60701 WT3  6820 TIP3 OH2  OT    -0.834000       15.9994           0
   60702 WT3  6820 TIP3 H1   HT     0.417000        1.0080           0
   60703 WT3  6820 TIP3 H2   HT     0.417000        1.0080           0
   60704 WT3  6823 TIP3 OH2  OT    -0.834000       15.9994           0
   60705 WT3  6823 TIP3 H1   HT     0.417000        1.0080           0
   60706 WT3  6823 TIP3 H2   HT     0.417000        1.0080           0
   60707 WT3  6825 TIP3 OH2  OT    -0.834000       15.9994           0
   60708 WT3  6825 TIP3 H1   HT     0.417000        1.0080           0
   60709 WT3  6825 TIP3 H2   HT     0.417000        1.0080           0
   60710 WT3  6826 TIP3 OH2  OT    -0.834000       15.9994           0
   60711 WT3  6826 TIP3 H1   HT     0.417000        1.0080           0
   60712 WT3  6826 TIP3 H2   HT     0.417000        1.0080           0
   60713 WT3  6827 TIP3 OH2  OT    -0.834000       15.9994           0
   60714 WT3  6827 TIP3 H1   HT     0.417000        1.0080           0
   60715 WT3  6827 TIP3 H2   HT     0.417000        1.0080           0
   60716 WT3  6828 TIP3 OH2  OT    -0.834000       15.9994           0
   60717 WT3  6828 TIP3 H1   HT     0.417000        1.0080           0
   60718 WT3  6828 TIP3 H2   HT     0.417000        1.0080           0
   60719 WT3  6829 TIP3 OH2  OT    -0.834000       15.9994           0
   60720 WT3  6829 TIP3 H1   HT     0.417000        1.0080           0
   60721 WT3  6829 TIP3 H2   HT     0.417000        1.0080           0
   60722 WT3  6830 TIP3 OH2  OT    -0.834000       15.9994           0
   60723 WT3  6830 TIP3 H1   HT     0.417000        1.0080           0
   60724 WT3  6830 TIP3 H2   HT     0.417000        1.0080           0
   60725 WT3  6831 TIP3 OH2  OT    -0.834000       15.9994           0
   60726 WT3  6831 TIP3 H1   HT     0.417000        1.0080           0
   60727 WT3  6831 TIP3 H2   HT     0.417000        1.0080           0
   60728 WT3  6832 TIP3 OH2  OT    -0.834000       15.9994           0
   60729 WT3  6832 TIP3 H1   HT     0.417000        1.0080           0
   60730 WT3  6832 TIP3 H2   HT     0.417000        1.0080           0
   60731 WT3  6833 TIP3 OH2  OT    -0.834000       15.9994           0
   60732 WT3  6833 TIP3 H1   HT     0.417000        1.0080           0
   60733 WT3  6833 TIP3 H2   HT     0.417000        1.0080           0
   60734 WT3  6834 TIP3 OH2  OT    -0.834000       15.9994           0
   60735 WT3  6834 TIP3 H1   HT     0.417000        1.0080           0
   60736 WT3  6834 TIP3 H2   HT     0.417000        1.0080           0
   60737 WT3  6836 TIP3 OH2  OT    -0.834000       15.9994           0
   60738 WT3  6836 TIP3 H1   HT     0.417000        1.0080           0
   60739 WT3  6836 TIP3 H2   HT     0.417000        1.0080           0
   60740 WT3  6837 TIP3 OH2  OT    -0.834000       15.9994           0
   60741 WT3  6837 TIP3 H1   HT     0.417000        1.0080           0
   60742 WT3  6837 TIP3 H2   HT     0.417000        1.0080           0
   60743 WT3  6838 TIP3 OH2  OT    -0.834000       15.9994           0
   60744 WT3  6838 TIP3 H1   HT     0.417000        1.0080           0
   60745 WT3  6838 TIP3 H2   HT     0.417000        1.0080           0
   60746 WT3  6848 TIP3 OH2  OT    -0.834000       15.9994           0
   60747 WT3  6848 TIP3 H1   HT     0.417000        1.0080           0
   60748 WT3  6848 TIP3 H2   HT     0.417000        1.0080           0
   60749 WT3  6849 TIP3 OH2  OT    -0.834000       15.9994           0
   60750 WT3  6849 TIP3 H1   HT     0.417000        1.0080           0
   60751 WT3  6849 TIP3 H2   HT     0.417000        1.0080           0
   60752 WT3  6850 TIP3 OH2  OT    -0.834000       15.9994           0
   60753 WT3  6850 TIP3 H1   HT     0.417000        1.0080           0
   60754 WT3  6850 TIP3 H2   HT     0.417000        1.0080           0
   60755 WT3  6851 TIP3 OH2  OT    -0.834000       15.9994           0
   60756 WT3  6851 TIP3 H1   HT     0.417000        1.0080           0
   60757 WT3  6851 TIP3 H2   HT     0.417000        1.0080           0
   60758 WT3  6852 TIP3 OH2  OT    -0.834000       15.9994           0
   60759 WT3  6852 TIP3 H1   HT     0.417000        1.0080           0
   60760 WT3  6852 TIP3 H2   HT     0.417000        1.0080           0
   60761 WT3  6853 TIP3 OH2  OT    -0.834000       15.9994           0
   60762 WT3  6853 TIP3 H1   HT     0.417000        1.0080           0
   60763 WT3  6853 TIP3 H2   HT     0.417000        1.0080           0
   60764 WT3  6855 TIP3 OH2  OT    -0.834000       15.9994           0
   60765 WT3  6855 TIP3 H1   HT     0.417000        1.0080           0
   60766 WT3  6855 TIP3 H2   HT     0.417000        1.0080           0
   60767 WT3  6856 TIP3 OH2  OT    -0.834000       15.9994           0
   60768 WT3  6856 TIP3 H1   HT     0.417000        1.0080           0
   60769 WT3  6856 TIP3 H2   HT     0.417000        1.0080           0
   60770 WT3  6857 TIP3 OH2  OT    -0.834000       15.9994           0
   60771 WT3  6857 TIP3 H1   HT     0.417000        1.0080           0
   60772 WT3  6857 TIP3 H2   HT     0.417000        1.0080           0
   60773 WT3  6858 TIP3 OH2  OT    -0.834000       15.9994           0
   60774 WT3  6858 TIP3 H1   HT     0.417000        1.0080           0
   60775 WT3  6858 TIP3 H2   HT     0.417000        1.0080           0
   60776 WT3  6859 TIP3 OH2  OT    -0.834000       15.9994           0
   60777 WT3  6859 TIP3 H1   HT     0.417000        1.0080           0
   60778 WT3  6859 TIP3 H2   HT     0.417000        1.0080           0
   60779 WT3  6863 TIP3 OH2  OT    -0.834000       15.9994           0
   60780 WT3  6863 TIP3 H1   HT     0.417000        1.0080           0
   60781 WT3  6863 TIP3 H2   HT     0.417000        1.0080           0
   60782 WT3  6866 TIP3 OH2  OT    -0.834000       15.9994           0
   60783 WT3  6866 TIP3 H1   HT     0.417000        1.0080           0
   60784 WT3  6866 TIP3 H2   HT     0.417000        1.0080           0
   60785 WT3  6869 TIP3 OH2  OT    -0.834000       15.9994           0
   60786 WT3  6869 TIP3 H1   HT     0.417000        1.0080           0
   60787 WT3  6869 TIP3 H2   HT     0.417000        1.0080           0
   60788 WT3  6870 TIP3 OH2  OT    -0.834000       15.9994           0
   60789 WT3  6870 TIP3 H1   HT     0.417000        1.0080           0
   60790 WT3  6870 TIP3 H2   HT     0.417000        1.0080           0
   60791 WT3  6872 TIP3 OH2  OT    -0.834000       15.9994           0
   60792 WT3  6872 TIP3 H1   HT     0.417000        1.0080           0
   60793 WT3  6872 TIP3 H2   HT     0.417000        1.0080           0
   60794 WT3  6873 TIP3 OH2  OT    -0.834000       15.9994           0
   60795 WT3  6873 TIP3 H1   HT     0.417000        1.0080           0
   60796 WT3  6873 TIP3 H2   HT     0.417000        1.0080           0
   60797 WT3  6874 TIP3 OH2  OT    -0.834000       15.9994           0
   60798 WT3  6874 TIP3 H1   HT     0.417000        1.0080           0
   60799 WT3  6874 TIP3 H2   HT     0.417000        1.0080           0
   60800 WT3  6875 TIP3 OH2  OT    -0.834000       15.9994           0
   60801 WT3  6875 TIP3 H1   HT     0.417000        1.0080           0
   60802 WT3  6875 TIP3 H2   HT     0.417000        1.0080           0
   60803 WT3  6876 TIP3 OH2  OT    -0.834000       15.9994           0
   60804 WT3  6876 TIP3 H1   HT     0.417000        1.0080           0
   60805 WT3  6876 TIP3 H2   HT     0.417000        1.0080           0
   60806 WT3  6878 TIP3 OH2  OT    -0.834000       15.9994           0
   60807 WT3  6878 TIP3 H1   HT     0.417000        1.0080           0
   60808 WT3  6878 TIP3 H2   HT     0.417000        1.0080           0
   60809 WT3  6879 TIP3 OH2  OT    -0.834000       15.9994           0
   60810 WT3  6879 TIP3 H1   HT     0.417000        1.0080           0
   60811 WT3  6879 TIP3 H2   HT     0.417000        1.0080           0
   60812 WT3  6880 TIP3 OH2  OT    -0.834000       15.9994           0
   60813 WT3  6880 TIP3 H1   HT     0.417000        1.0080           0
   60814 WT3  6880 TIP3 H2   HT     0.417000        1.0080           0
   60815 WT3  6882 TIP3 OH2  OT    -0.834000       15.9994           0
   60816 WT3  6882 TIP3 H1   HT     0.417000        1.0080           0
   60817 WT3  6882 TIP3 H2   HT     0.417000        1.0080           0
   60818 WT3  6883 TIP3 OH2  OT    -0.834000       15.9994           0
   60819 WT3  6883 TIP3 H1   HT     0.417000        1.0080           0
   60820 WT3  6883 TIP3 H2   HT     0.417000        1.0080           0
   60821 WT3  6884 TIP3 OH2  OT    -0.834000       15.9994           0
   60822 WT3  6884 TIP3 H1   HT     0.417000        1.0080           0
   60823 WT3  6884 TIP3 H2   HT     0.417000        1.0080           0
   60824 WT3  6886 TIP3 OH2  OT    -0.834000       15.9994           0
   60825 WT3  6886 TIP3 H1   HT     0.417000        1.0080           0
   60826 WT3  6886 TIP3 H2   HT     0.417000        1.0080           0
   60827 WT3  6887 TIP3 OH2  OT    -0.834000       15.9994           0
   60828 WT3  6887 TIP3 H1   HT     0.417000        1.0080           0
   60829 WT3  6887 TIP3 H2   HT     0.417000        1.0080           0
   60830 WT3  6889 TIP3 OH2  OT    -0.834000       15.9994           0
   60831 WT3  6889 TIP3 H1   HT     0.417000        1.0080           0
   60832 WT3  6889 TIP3 H2   HT     0.417000        1.0080           0
   60833 WT3  6890 TIP3 OH2  OT    -0.834000       15.9994           0
   60834 WT3  6890 TIP3 H1   HT     0.417000        1.0080           0
   60835 WT3  6890 TIP3 H2   HT     0.417000        1.0080           0
   60836 WT3  6892 TIP3 OH2  OT    -0.834000       15.9994           0
   60837 WT3  6892 TIP3 H1   HT     0.417000        1.0080           0
   60838 WT3  6892 TIP3 H2   HT     0.417000        1.0080           0
   60839 WT3  6893 TIP3 OH2  OT    -0.834000       15.9994           0
   60840 WT3  6893 TIP3 H1   HT     0.417000        1.0080           0
   60841 WT3  6893 TIP3 H2   HT     0.417000        1.0080           0
   60842 WT3  6894 TIP3 OH2  OT    -0.834000       15.9994           0
   60843 WT3  6894 TIP3 H1   HT     0.417000        1.0080           0
   60844 WT3  6894 TIP3 H2   HT     0.417000        1.0080           0
   60845 WT3  6895 TIP3 OH2  OT    -0.834000       15.9994           0
   60846 WT3  6895 TIP3 H1   HT     0.417000        1.0080           0
   60847 WT3  6895 TIP3 H2   HT     0.417000        1.0080           0
   60848 WT3  6896 TIP3 OH2  OT    -0.834000       15.9994           0
   60849 WT3  6896 TIP3 H1   HT     0.417000        1.0080           0
   60850 WT3  6896 TIP3 H2   HT     0.417000        1.0080           0
   60851 WT3  6897 TIP3 OH2  OT    -0.834000       15.9994           0
   60852 WT3  6897 TIP3 H1   HT     0.417000        1.0080           0
   60853 WT3  6897 TIP3 H2   HT     0.417000        1.0080           0
   60854 WT3  6898 TIP3 OH2  OT    -0.834000       15.9994           0
   60855 WT3  6898 TIP3 H1   HT     0.417000        1.0080           0
   60856 WT3  6898 TIP3 H2   HT     0.417000        1.0080           0
   60857 WT3  6899 TIP3 OH2  OT    -0.834000       15.9994           0
   60858 WT3  6899 TIP3 H1   HT     0.417000        1.0080           0
   60859 WT3  6899 TIP3 H2   HT     0.417000        1.0080           0
   60860 WT3  6900 TIP3 OH2  OT    -0.834000       15.9994           0
   60861 WT3  6900 TIP3 H1   HT     0.417000        1.0080           0
   60862 WT3  6900 TIP3 H2   HT     0.417000        1.0080           0
   60863 WT3  6901 TIP3 OH2  OT    -0.834000       15.9994           0
   60864 WT3  6901 TIP3 H1   HT     0.417000        1.0080           0
   60865 WT3  6901 TIP3 H2   HT     0.417000        1.0080           0
   60866 WT3  6902 TIP3 OH2  OT    -0.834000       15.9994           0
   60867 WT3  6902 TIP3 H1   HT     0.417000        1.0080           0
   60868 WT3  6902 TIP3 H2   HT     0.417000        1.0080           0
   60869 WT3  6903 TIP3 OH2  OT    -0.834000       15.9994           0
   60870 WT3  6903 TIP3 H1   HT     0.417000        1.0080           0
   60871 WT3  6903 TIP3 H2   HT     0.417000        1.0080           0
   60872 WT3  6905 TIP3 OH2  OT    -0.834000       15.9994           0
   60873 WT3  6905 TIP3 H1   HT     0.417000        1.0080           0
   60874 WT3  6905 TIP3 H2   HT     0.417000        1.0080           0
   60875 WT3  6910 TIP3 OH2  OT    -0.834000       15.9994           0
   60876 WT3  6910 TIP3 H1   HT     0.417000        1.0080           0
   60877 WT3  6910 TIP3 H2   HT     0.417000        1.0080           0
   60878 WT3  6911 TIP3 OH2  OT    -0.834000       15.9994           0
   60879 WT3  6911 TIP3 H1   HT     0.417000        1.0080           0
   60880 WT3  6911 TIP3 H2   HT     0.417000        1.0080           0
   60881 WT3  6913 TIP3 OH2  OT    -0.834000       15.9994           0
   60882 WT3  6913 TIP3 H1   HT     0.417000        1.0080           0
   60883 WT3  6913 TIP3 H2   HT     0.417000        1.0080           0
   60884 WT3  6914 TIP3 OH2  OT    -0.834000       15.9994           0
   60885 WT3  6914 TIP3 H1   HT     0.417000        1.0080           0
   60886 WT3  6914 TIP3 H2   HT     0.417000        1.0080           0
   60887 WT3  6915 TIP3 OH2  OT    -0.834000       15.9994           0
   60888 WT3  6915 TIP3 H1   HT     0.417000        1.0080           0
   60889 WT3  6915 TIP3 H2   HT     0.417000        1.0080           0
   60890 WT3  6916 TIP3 OH2  OT    -0.834000       15.9994           0
   60891 WT3  6916 TIP3 H1   HT     0.417000        1.0080           0
   60892 WT3  6916 TIP3 H2   HT     0.417000        1.0080           0
   60893 WT3  6917 TIP3 OH2  OT    -0.834000       15.9994           0
   60894 WT3  6917 TIP3 H1   HT     0.417000        1.0080           0
   60895 WT3  6917 TIP3 H2   HT     0.417000        1.0080           0
   60896 WT3  6918 TIP3 OH2  OT    -0.834000       15.9994           0
   60897 WT3  6918 TIP3 H1   HT     0.417000        1.0080           0
   60898 WT3  6918 TIP3 H2   HT     0.417000        1.0080           0
   60899 WT3  6919 TIP3 OH2  OT    -0.834000       15.9994           0
   60900 WT3  6919 TIP3 H1   HT     0.417000        1.0080           0
   60901 WT3  6919 TIP3 H2   HT     0.417000        1.0080           0
   60902 WT3  6921 TIP3 OH2  OT    -0.834000       15.9994           0
   60903 WT3  6921 TIP3 H1   HT     0.417000        1.0080           0
   60904 WT3  6921 TIP3 H2   HT     0.417000        1.0080           0
   60905 WT3  6923 TIP3 OH2  OT    -0.834000       15.9994           0
   60906 WT3  6923 TIP3 H1   HT     0.417000        1.0080           0
   60907 WT3  6923 TIP3 H2   HT     0.417000        1.0080           0
   60908 WT3  6925 TIP3 OH2  OT    -0.834000       15.9994           0
   60909 WT3  6925 TIP3 H1   HT     0.417000        1.0080           0
   60910 WT3  6925 TIP3 H2   HT     0.417000        1.0080           0
   60911 WT3  6926 TIP3 OH2  OT    -0.834000       15.9994           0
   60912 WT3  6926 TIP3 H1   HT     0.417000        1.0080           0
   60913 WT3  6926 TIP3 H2   HT     0.417000        1.0080           0
   60914 WT3  6928 TIP3 OH2  OT    -0.834000       15.9994           0
   60915 WT3  6928 TIP3 H1   HT     0.417000        1.0080           0
   60916 WT3  6928 TIP3 H2   HT     0.417000        1.0080           0
   60917 WT3  6930 TIP3 OH2  OT    -0.834000       15.9994           0
   60918 WT3  6930 TIP3 H1   HT     0.417000        1.0080           0
   60919 WT3  6930 TIP3 H2   HT     0.417000        1.0080           0
   60920 WT3  6931 TIP3 OH2  OT    -0.834000       15.9994           0
   60921 WT3  6931 TIP3 H1   HT     0.417000        1.0080           0
   60922 WT3  6931 TIP3 H2   HT     0.417000        1.0080           0
   60923 WT3  6932 TIP3 OH2  OT    -0.834000       15.9994           0
   60924 WT3  6932 TIP3 H1   HT     0.417000        1.0080           0
   60925 WT3  6932 TIP3 H2   HT     0.417000        1.0080           0
   60926 WT3  6933 TIP3 OH2  OT    -0.834000       15.9994           0
   60927 WT3  6933 TIP3 H1   HT     0.417000        1.0080           0
   60928 WT3  6933 TIP3 H2   HT     0.417000        1.0080           0
   60929 WT3  6934 TIP3 OH2  OT    -0.834000       15.9994           0
   60930 WT3  6934 TIP3 H1   HT     0.417000        1.0080           0
   60931 WT3  6934 TIP3 H2   HT     0.417000        1.0080           0
   60932 WT3  6935 TIP3 OH2  OT    -0.834000       15.9994           0
   60933 WT3  6935 TIP3 H1   HT     0.417000        1.0080           0
   60934 WT3  6935 TIP3 H2   HT     0.417000        1.0080           0
   60935 WT3  6936 TIP3 OH2  OT    -0.834000       15.9994           0
   60936 WT3  6936 TIP3 H1   HT     0.417000        1.0080           0
   60937 WT3  6936 TIP3 H2   HT     0.417000        1.0080           0
   60938 WT3  6938 TIP3 OH2  OT    -0.834000       15.9994           0
   60939 WT3  6938 TIP3 H1   HT     0.417000        1.0080           0
   60940 WT3  6938 TIP3 H2   HT     0.417000        1.0080           0
   60941 WT3  6941 TIP3 OH2  OT    -0.834000       15.9994           0
   60942 WT3  6941 TIP3 H1   HT     0.417000        1.0080           0
   60943 WT3  6941 TIP3 H2   HT     0.417000        1.0080           0
   60944 WT3  6942 TIP3 OH2  OT    -0.834000       15.9994           0
   60945 WT3  6942 TIP3 H1   HT     0.417000        1.0080           0
   60946 WT3  6942 TIP3 H2   HT     0.417000        1.0080           0
   60947 WT3  6944 TIP3 OH2  OT    -0.834000       15.9994           0
   60948 WT3  6944 TIP3 H1   HT     0.417000        1.0080           0
   60949 WT3  6944 TIP3 H2   HT     0.417000        1.0080           0
   60950 WT3  6945 TIP3 OH2  OT    -0.834000       15.9994           0
   60951 WT3  6945 TIP3 H1   HT     0.417000        1.0080           0
   60952 WT3  6945 TIP3 H2   HT     0.417000        1.0080           0
   60953 WT3  6952 TIP3 OH2  OT    -0.834000       15.9994           0
   60954 WT3  6952 TIP3 H1   HT     0.417000        1.0080           0
   60955 WT3  6952 TIP3 H2   HT     0.417000        1.0080           0
   60956 WT3  6953 TIP3 OH2  OT    -0.834000       15.9994           0
   60957 WT3  6953 TIP3 H1   HT     0.417000        1.0080           0
   60958 WT3  6953 TIP3 H2   HT     0.417000        1.0080           0
   60959 WT3  6954 TIP3 OH2  OT    -0.834000       15.9994           0
   60960 WT3  6954 TIP3 H1   HT     0.417000        1.0080           0
   60961 WT3  6954 TIP3 H2   HT     0.417000        1.0080           0
   60962 WT3  6955 TIP3 OH2  OT    -0.834000       15.9994           0
   60963 WT3  6955 TIP3 H1   HT     0.417000        1.0080           0
   60964 WT3  6955 TIP3 H2   HT     0.417000        1.0080           0
   60965 WT3  6956 TIP3 OH2  OT    -0.834000       15.9994           0
   60966 WT3  6956 TIP3 H1   HT     0.417000        1.0080           0
   60967 WT3  6956 TIP3 H2   HT     0.417000        1.0080           0
   60968 WT3  6958 TIP3 OH2  OT    -0.834000       15.9994           0
   60969 WT3  6958 TIP3 H1   HT     0.417000        1.0080           0
   60970 WT3  6958 TIP3 H2   HT     0.417000        1.0080           0
   60971 WT3  6959 TIP3 OH2  OT    -0.834000       15.9994           0
   60972 WT3  6959 TIP3 H1   HT     0.417000        1.0080           0
   60973 WT3  6959 TIP3 H2   HT     0.417000        1.0080           0
   60974 WT3  6960 TIP3 OH2  OT    -0.834000       15.9994           0
   60975 WT3  6960 TIP3 H1   HT     0.417000        1.0080           0
   60976 WT3  6960 TIP3 H2   HT     0.417000        1.0080           0
   60977 WT3  6961 TIP3 OH2  OT    -0.834000       15.9994           0
   60978 WT3  6961 TIP3 H1   HT     0.417000        1.0080           0
   60979 WT3  6961 TIP3 H2   HT     0.417000        1.0080           0
   60980 WT3  6962 TIP3 OH2  OT    -0.834000       15.9994           0
   60981 WT3  6962 TIP3 H1   HT     0.417000        1.0080           0
   60982 WT3  6962 TIP3 H2   HT     0.417000        1.0080           0
   60983 WT3  6963 TIP3 OH2  OT    -0.834000       15.9994           0
   60984 WT3  6963 TIP3 H1   HT     0.417000        1.0080           0
   60985 WT3  6963 TIP3 H2   HT     0.417000        1.0080           0
   60986 WT3  6968 TIP3 OH2  OT    -0.834000       15.9994           0
   60987 WT3  6968 TIP3 H1   HT     0.417000        1.0080           0
   60988 WT3  6968 TIP3 H2   HT     0.417000        1.0080           0
   60989 WT3  6970 TIP3 OH2  OT    -0.834000       15.9994           0
   60990 WT3  6970 TIP3 H1   HT     0.417000        1.0080           0
   60991 WT3  6970 TIP3 H2   HT     0.417000        1.0080           0
   60992 WT3  6973 TIP3 OH2  OT    -0.834000       15.9994           0
   60993 WT3  6973 TIP3 H1   HT     0.417000        1.0080           0
   60994 WT3  6973 TIP3 H2   HT     0.417000        1.0080           0
   60995 WT3  6975 TIP3 OH2  OT    -0.834000       15.9994           0
   60996 WT3  6975 TIP3 H1   HT     0.417000        1.0080           0
   60997 WT3  6975 TIP3 H2   HT     0.417000        1.0080           0
   60998 WT3  6977 TIP3 OH2  OT    -0.834000       15.9994           0
   60999 WT3  6977 TIP3 H1   HT     0.417000        1.0080           0
   61000 WT3  6977 TIP3 H2   HT     0.417000        1.0080           0
   61001 WT3  6978 TIP3 OH2  OT    -0.834000       15.9994           0
   61002 WT3  6978 TIP3 H1   HT     0.417000        1.0080           0
   61003 WT3  6978 TIP3 H2   HT     0.417000        1.0080           0
   61004 WT3  6979 TIP3 OH2  OT    -0.834000       15.9994           0
   61005 WT3  6979 TIP3 H1   HT     0.417000        1.0080           0
   61006 WT3  6979 TIP3 H2   HT     0.417000        1.0080           0
   61007 WT3  6980 TIP3 OH2  OT    -0.834000       15.9994           0
   61008 WT3  6980 TIP3 H1   HT     0.417000        1.0080           0
   61009 WT3  6980 TIP3 H2   HT     0.417000        1.0080           0
   61010 WT3  6981 TIP3 OH2  OT    -0.834000       15.9994           0
   61011 WT3  6981 TIP3 H1   HT     0.417000        1.0080           0
   61012 WT3  6981 TIP3 H2   HT     0.417000        1.0080           0
   61013 WT3  6982 TIP3 OH2  OT    -0.834000       15.9994           0
   61014 WT3  6982 TIP3 H1   HT     0.417000        1.0080           0
   61015 WT3  6982 TIP3 H2   HT     0.417000        1.0080           0
   61016 WT3  6983 TIP3 OH2  OT    -0.834000       15.9994           0
   61017 WT3  6983 TIP3 H1   HT     0.417000        1.0080           0
   61018 WT3  6983 TIP3 H2   HT     0.417000        1.0080           0
   61019 WT3  6984 TIP3 OH2  OT    -0.834000       15.9994           0
   61020 WT3  6984 TIP3 H1   HT     0.417000        1.0080           0
   61021 WT3  6984 TIP3 H2   HT     0.417000        1.0080           0
   61022 WT3  6985 TIP3 OH2  OT    -0.834000       15.9994           0
   61023 WT3  6985 TIP3 H1   HT     0.417000        1.0080           0
   61024 WT3  6985 TIP3 H2   HT     0.417000        1.0080           0
   61025 WT3  6988 TIP3 OH2  OT    -0.834000       15.9994           0
   61026 WT3  6988 TIP3 H1   HT     0.417000        1.0080           0
   61027 WT3  6988 TIP3 H2   HT     0.417000        1.0080           0
   61028 WT3  6991 TIP3 OH2  OT    -0.834000       15.9994           0
   61029 WT3  6991 TIP3 H1   HT     0.417000        1.0080           0
   61030 WT3  6991 TIP3 H2   HT     0.417000        1.0080           0
   61031 WT3  6993 TIP3 OH2  OT    -0.834000       15.9994           0
   61032 WT3  6993 TIP3 H1   HT     0.417000        1.0080           0
   61033 WT3  6993 TIP3 H2   HT     0.417000        1.0080           0
   61034 WT3  6995 TIP3 OH2  OT    -0.834000       15.9994           0
   61035 WT3  6995 TIP3 H1   HT     0.417000        1.0080           0
   61036 WT3  6995 TIP3 H2   HT     0.417000        1.0080           0
   61037 WT3  6996 TIP3 OH2  OT    -0.834000       15.9994           0
   61038 WT3  6996 TIP3 H1   HT     0.417000        1.0080           0
   61039 WT3  6996 TIP3 H2   HT     0.417000        1.0080           0
   61040 WT3  6997 TIP3 OH2  OT    -0.834000       15.9994           0
   61041 WT3  6997 TIP3 H1   HT     0.417000        1.0080           0
   61042 WT3  6997 TIP3 H2   HT     0.417000        1.0080           0
   61043 WT3  6998 TIP3 OH2  OT    -0.834000       15.9994           0
   61044 WT3  6998 TIP3 H1   HT     0.417000        1.0080           0
   61045 WT3  6998 TIP3 H2   HT     0.417000        1.0080           0
   61046 WT3  7000 TIP3 OH2  OT    -0.834000       15.9994           0
   61047 WT3  7000 TIP3 H1   HT     0.417000        1.0080           0
   61048 WT3  7000 TIP3 H2   HT     0.417000        1.0080           0
   61049 WT3  7001 TIP3 OH2  OT    -0.834000       15.9994           0
   61050 WT3  7001 TIP3 H1   HT     0.417000        1.0080           0
   61051 WT3  7001 TIP3 H2   HT     0.417000        1.0080           0
   61052 WT3  7004 TIP3 OH2  OT    -0.834000       15.9994           0
   61053 WT3  7004 TIP3 H1   HT     0.417000        1.0080           0
   61054 WT3  7004 TIP3 H2   HT     0.417000        1.0080           0
   61055 WT3  7005 TIP3 OH2  OT    -0.834000       15.9994           0
   61056 WT3  7005 TIP3 H1   HT     0.417000        1.0080           0
   61057 WT3  7005 TIP3 H2   HT     0.417000        1.0080           0
   61058 WT3  7006 TIP3 OH2  OT    -0.834000       15.9994           0
   61059 WT3  7006 TIP3 H1   HT     0.417000        1.0080           0
   61060 WT3  7006 TIP3 H2   HT     0.417000        1.0080           0
   61061 WT3  7007 TIP3 OH2  OT    -0.834000       15.9994           0
   61062 WT3  7007 TIP3 H1   HT     0.417000        1.0080           0
   61063 WT3  7007 TIP3 H2   HT     0.417000        1.0080           0
   61064 WT3  7011 TIP3 OH2  OT    -0.834000       15.9994           0
   61065 WT3  7011 TIP3 H1   HT     0.417000        1.0080           0
   61066 WT3  7011 TIP3 H2   HT     0.417000        1.0080           0
   61067 WT3  7015 TIP3 OH2  OT    -0.834000       15.9994           0
   61068 WT3  7015 TIP3 H1   HT     0.417000        1.0080           0
   61069 WT3  7015 TIP3 H2   HT     0.417000        1.0080           0
   61070 WT3  7017 TIP3 OH2  OT    -0.834000       15.9994           0
   61071 WT3  7017 TIP3 H1   HT     0.417000        1.0080           0
   61072 WT3  7017 TIP3 H2   HT     0.417000        1.0080           0
   61073 WT3  7018 TIP3 OH2  OT    -0.834000       15.9994           0
   61074 WT3  7018 TIP3 H1   HT     0.417000        1.0080           0
   61075 WT3  7018 TIP3 H2   HT     0.417000        1.0080           0
   61076 WT3  7019 TIP3 OH2  OT    -0.834000       15.9994           0
   61077 WT3  7019 TIP3 H1   HT     0.417000        1.0080           0
   61078 WT3  7019 TIP3 H2   HT     0.417000        1.0080           0
   61079 WT3  7020 TIP3 OH2  OT    -0.834000       15.9994           0
   61080 WT3  7020 TIP3 H1   HT     0.417000        1.0080           0
   61081 WT3  7020 TIP3 H2   HT     0.417000        1.0080           0
   61082 WT3  7021 TIP3 OH2  OT    -0.834000       15.9994           0
   61083 WT3  7021 TIP3 H1   HT     0.417000        1.0080           0
   61084 WT3  7021 TIP3 H2   HT     0.417000        1.0080           0
   61085 WT3  7022 TIP3 OH2  OT    -0.834000       15.9994           0
   61086 WT3  7022 TIP3 H1   HT     0.417000        1.0080           0
   61087 WT3  7022 TIP3 H2   HT     0.417000        1.0080           0
   61088 WT3  7023 TIP3 OH2  OT    -0.834000       15.9994           0
   61089 WT3  7023 TIP3 H1   HT     0.417000        1.0080           0
   61090 WT3  7023 TIP3 H2   HT     0.417000        1.0080           0
   61091 WT3  7024 TIP3 OH2  OT    -0.834000       15.9994           0
   61092 WT3  7024 TIP3 H1   HT     0.417000        1.0080           0
   61093 WT3  7024 TIP3 H2   HT     0.417000        1.0080           0
   61094 WT3  7025 TIP3 OH2  OT    -0.834000       15.9994           0
   61095 WT3  7025 TIP3 H1   HT     0.417000        1.0080           0
   61096 WT3  7025 TIP3 H2   HT     0.417000        1.0080           0
   61097 WT3  7026 TIP3 OH2  OT    -0.834000       15.9994           0
   61098 WT3  7026 TIP3 H1   HT     0.417000        1.0080           0
   61099 WT3  7026 TIP3 H2   HT     0.417000        1.0080           0
   61100 WT3  7027 TIP3 OH2  OT    -0.834000       15.9994           0
   61101 WT3  7027 TIP3 H1   HT     0.417000        1.0080           0
   61102 WT3  7027 TIP3 H2   HT     0.417000        1.0080           0
   61103 WT3  7029 TIP3 OH2  OT    -0.834000       15.9994           0
   61104 WT3  7029 TIP3 H1   HT     0.417000        1.0080           0
   61105 WT3  7029 TIP3 H2   HT     0.417000        1.0080           0
   61106 WT3  7031 TIP3 OH2  OT    -0.834000       15.9994           0
   61107 WT3  7031 TIP3 H1   HT     0.417000        1.0080           0
   61108 WT3  7031 TIP3 H2   HT     0.417000        1.0080           0
   61109 WT3  7038 TIP3 OH2  OT    -0.834000       15.9994           0
   61110 WT3  7038 TIP3 H1   HT     0.417000        1.0080           0
   61111 WT3  7038 TIP3 H2   HT     0.417000        1.0080           0
   61112 WT3  7039 TIP3 OH2  OT    -0.834000       15.9994           0
   61113 WT3  7039 TIP3 H1   HT     0.417000        1.0080           0
   61114 WT3  7039 TIP3 H2   HT     0.417000        1.0080           0
   61115 WT3  7040 TIP3 OH2  OT    -0.834000       15.9994           0
   61116 WT3  7040 TIP3 H1   HT     0.417000        1.0080           0
   61117 WT3  7040 TIP3 H2   HT     0.417000        1.0080           0
   61118 WT3  7042 TIP3 OH2  OT    -0.834000       15.9994           0
   61119 WT3  7042 TIP3 H1   HT     0.417000        1.0080           0
   61120 WT3  7042 TIP3 H2   HT     0.417000        1.0080           0
   61121 WT3  7043 TIP3 OH2  OT    -0.834000       15.9994           0
   61122 WT3  7043 TIP3 H1   HT     0.417000        1.0080           0
   61123 WT3  7043 TIP3 H2   HT     0.417000        1.0080           0
   61124 WT3  7044 TIP3 OH2  OT    -0.834000       15.9994           0
   61125 WT3  7044 TIP3 H1   HT     0.417000        1.0080           0
   61126 WT3  7044 TIP3 H2   HT     0.417000        1.0080           0
   61127 WT3  7045 TIP3 OH2  OT    -0.834000       15.9994           0
   61128 WT3  7045 TIP3 H1   HT     0.417000        1.0080           0
   61129 WT3  7045 TIP3 H2   HT     0.417000        1.0080           0
   61130 WT3  7047 TIP3 OH2  OT    -0.834000       15.9994           0
   61131 WT3  7047 TIP3 H1   HT     0.417000        1.0080           0
   61132 WT3  7047 TIP3 H2   HT     0.417000        1.0080           0
   61133 WT3  7050 TIP3 OH2  OT    -0.834000       15.9994           0
   61134 WT3  7050 TIP3 H1   HT     0.417000        1.0080           0
   61135 WT3  7050 TIP3 H2   HT     0.417000        1.0080           0
   61136 WT3  7051 TIP3 OH2  OT    -0.834000       15.9994           0
   61137 WT3  7051 TIP3 H1   HT     0.417000        1.0080           0
   61138 WT3  7051 TIP3 H2   HT     0.417000        1.0080           0
   61139 WT3  7052 TIP3 OH2  OT    -0.834000       15.9994           0
   61140 WT3  7052 TIP3 H1   HT     0.417000        1.0080           0
   61141 WT3  7052 TIP3 H2   HT     0.417000        1.0080           0
   61142 WT3  7058 TIP3 OH2  OT    -0.834000       15.9994           0
   61143 WT3  7058 TIP3 H1   HT     0.417000        1.0080           0
   61144 WT3  7058 TIP3 H2   HT     0.417000        1.0080           0
   61145 WT3  7061 TIP3 OH2  OT    -0.834000       15.9994           0
   61146 WT3  7061 TIP3 H1   HT     0.417000        1.0080           0
   61147 WT3  7061 TIP3 H2   HT     0.417000        1.0080           0
   61148 WT3  7062 TIP3 OH2  OT    -0.834000       15.9994           0
   61149 WT3  7062 TIP3 H1   HT     0.417000        1.0080           0
   61150 WT3  7062 TIP3 H2   HT     0.417000        1.0080           0
   61151 WT3  7063 TIP3 OH2  OT    -0.834000       15.9994           0
   61152 WT3  7063 TIP3 H1   HT     0.417000        1.0080           0
   61153 WT3  7063 TIP3 H2   HT     0.417000        1.0080           0
   61154 WT3  7064 TIP3 OH2  OT    -0.834000       15.9994           0
   61155 WT3  7064 TIP3 H1   HT     0.417000        1.0080           0
   61156 WT3  7064 TIP3 H2   HT     0.417000        1.0080           0
   61157 WT3  7065 TIP3 OH2  OT    -0.834000       15.9994           0
   61158 WT3  7065 TIP3 H1   HT     0.417000        1.0080           0
   61159 WT3  7065 TIP3 H2   HT     0.417000        1.0080           0
   61160 WT3  7066 TIP3 OH2  OT    -0.834000       15.9994           0
   61161 WT3  7066 TIP3 H1   HT     0.417000        1.0080           0
   61162 WT3  7066 TIP3 H2   HT     0.417000        1.0080           0
   61163 WT3  7073 TIP3 OH2  OT    -0.834000       15.9994           0
   61164 WT3  7073 TIP3 H1   HT     0.417000        1.0080           0
   61165 WT3  7073 TIP3 H2   HT     0.417000        1.0080           0
   61166 WT3  7078 TIP3 OH2  OT    -0.834000       15.9994           0
   61167 WT3  7078 TIP3 H1   HT     0.417000        1.0080           0
   61168 WT3  7078 TIP3 H2   HT     0.417000        1.0080           0
   61169 WT3  7081 TIP3 OH2  OT    -0.834000       15.9994           0
   61170 WT3  7081 TIP3 H1   HT     0.417000        1.0080           0
   61171 WT3  7081 TIP3 H2   HT     0.417000        1.0080           0
   61172 WT3  7083 TIP3 OH2  OT    -0.834000       15.9994           0
   61173 WT3  7083 TIP3 H1   HT     0.417000        1.0080           0
   61174 WT3  7083 TIP3 H2   HT     0.417000        1.0080           0
   61175 WT3  7084 TIP3 OH2  OT    -0.834000       15.9994           0
   61176 WT3  7084 TIP3 H1   HT     0.417000        1.0080           0
   61177 WT3  7084 TIP3 H2   HT     0.417000        1.0080           0
   61178 WT3  7085 TIP3 OH2  OT    -0.834000       15.9994           0
   61179 WT3  7085 TIP3 H1   HT     0.417000        1.0080           0
   61180 WT3  7085 TIP3 H2   HT     0.417000        1.0080           0
   61181 WT3  7086 TIP3 OH2  OT    -0.834000       15.9994           0
   61182 WT3  7086 TIP3 H1   HT     0.417000        1.0080           0
   61183 WT3  7086 TIP3 H2   HT     0.417000        1.0080           0
   61184 WT3  7087 TIP3 OH2  OT    -0.834000       15.9994           0
   61185 WT3  7087 TIP3 H1   HT     0.417000        1.0080           0
   61186 WT3  7087 TIP3 H2   HT     0.417000        1.0080           0
   61187 WT3  7088 TIP3 OH2  OT    -0.834000       15.9994           0
   61188 WT3  7088 TIP3 H1   HT     0.417000        1.0080           0
   61189 WT3  7088 TIP3 H2   HT     0.417000        1.0080           0
   61190 WT3  7089 TIP3 OH2  OT    -0.834000       15.9994           0
   61191 WT3  7089 TIP3 H1   HT     0.417000        1.0080           0
   61192 WT3  7089 TIP3 H2   HT     0.417000        1.0080           0
   61193 WT3  7099 TIP3 OH2  OT    -0.834000       15.9994           0
   61194 WT3  7099 TIP3 H1   HT     0.417000        1.0080           0
   61195 WT3  7099 TIP3 H2   HT     0.417000        1.0080           0
   61196 WT3  7100 TIP3 OH2  OT    -0.834000       15.9994           0
   61197 WT3  7100 TIP3 H1   HT     0.417000        1.0080           0
   61198 WT3  7100 TIP3 H2   HT     0.417000        1.0080           0
   61199 WT3  7101 TIP3 OH2  OT    -0.834000       15.9994           0
   61200 WT3  7101 TIP3 H1   HT     0.417000        1.0080           0
   61201 WT3  7101 TIP3 H2   HT     0.417000        1.0080           0
   61202 WT3  7102 TIP3 OH2  OT    -0.834000       15.9994           0
   61203 WT3  7102 TIP3 H1   HT     0.417000        1.0080           0
   61204 WT3  7102 TIP3 H2   HT     0.417000        1.0080           0
   61205 WT3  7103 TIP3 OH2  OT    -0.834000       15.9994           0
   61206 WT3  7103 TIP3 H1   HT     0.417000        1.0080           0
   61207 WT3  7103 TIP3 H2   HT     0.417000        1.0080           0
   61208 WT3  7104 TIP3 OH2  OT    -0.834000       15.9994           0
   61209 WT3  7104 TIP3 H1   HT     0.417000        1.0080           0
   61210 WT3  7104 TIP3 H2   HT     0.417000        1.0080           0
   61211 WT3  7105 TIP3 OH2  OT    -0.834000       15.9994           0
   61212 WT3  7105 TIP3 H1   HT     0.417000        1.0080           0
   61213 WT3  7105 TIP3 H2   HT     0.417000        1.0080           0
   61214 WT3  7106 TIP3 OH2  OT    -0.834000       15.9994           0
   61215 WT3  7106 TIP3 H1   HT     0.417000        1.0080           0
   61216 WT3  7106 TIP3 H2   HT     0.417000        1.0080           0
   61217 WT3  7107 TIP3 OH2  OT    -0.834000       15.9994           0
   61218 WT3  7107 TIP3 H1   HT     0.417000        1.0080           0
   61219 WT3  7107 TIP3 H2   HT     0.417000        1.0080           0
   61220 WT3  7108 TIP3 OH2  OT    -0.834000       15.9994           0
   61221 WT3  7108 TIP3 H1   HT     0.417000        1.0080           0
   61222 WT3  7108 TIP3 H2   HT     0.417000        1.0080           0
   61223 WT3  7109 TIP3 OH2  OT    -0.834000       15.9994           0
   61224 WT3  7109 TIP3 H1   HT     0.417000        1.0080           0
   61225 WT3  7109 TIP3 H2   HT     0.417000        1.0080           0
   61226 WT3  7110 TIP3 OH2  OT    -0.834000       15.9994           0
   61227 WT3  7110 TIP3 H1   HT     0.417000        1.0080           0
   61228 WT3  7110 TIP3 H2   HT     0.417000        1.0080           0
   61229 WT3  7111 TIP3 OH2  OT    -0.834000       15.9994           0
   61230 WT3  7111 TIP3 H1   HT     0.417000        1.0080           0
   61231 WT3  7111 TIP3 H2   HT     0.417000        1.0080           0
   61232 WT3  7120 TIP3 OH2  OT    -0.834000       15.9994           0
   61233 WT3  7120 TIP3 H1   HT     0.417000        1.0080           0
   61234 WT3  7120 TIP3 H2   HT     0.417000        1.0080           0
   61235 WT3  7121 TIP3 OH2  OT    -0.834000       15.9994           0
   61236 WT3  7121 TIP3 H1   HT     0.417000        1.0080           0
   61237 WT3  7121 TIP3 H2   HT     0.417000        1.0080           0
   61238 WT3  7122 TIP3 OH2  OT    -0.834000       15.9994           0
   61239 WT3  7122 TIP3 H1   HT     0.417000        1.0080           0
   61240 WT3  7122 TIP3 H2   HT     0.417000        1.0080           0
   61241 WT3  7124 TIP3 OH2  OT    -0.834000       15.9994           0
   61242 WT3  7124 TIP3 H1   HT     0.417000        1.0080           0
   61243 WT3  7124 TIP3 H2   HT     0.417000        1.0080           0
   61244 WT3  7125 TIP3 OH2  OT    -0.834000       15.9994           0
   61245 WT3  7125 TIP3 H1   HT     0.417000        1.0080           0
   61246 WT3  7125 TIP3 H2   HT     0.417000        1.0080           0
   61247 WT3  7126 TIP3 OH2  OT    -0.834000       15.9994           0
   61248 WT3  7126 TIP3 H1   HT     0.417000        1.0080           0
   61249 WT3  7126 TIP3 H2   HT     0.417000        1.0080           0
   61250 WT3  7127 TIP3 OH2  OT    -0.834000       15.9994           0
   61251 WT3  7127 TIP3 H1   HT     0.417000        1.0080           0
   61252 WT3  7127 TIP3 H2   HT     0.417000        1.0080           0
   61253 WT3  7128 TIP3 OH2  OT    -0.834000       15.9994           0
   61254 WT3  7128 TIP3 H1   HT     0.417000        1.0080           0
   61255 WT3  7128 TIP3 H2   HT     0.417000        1.0080           0
   61256 WT3  7130 TIP3 OH2  OT    -0.834000       15.9994           0
   61257 WT3  7130 TIP3 H1   HT     0.417000        1.0080           0
   61258 WT3  7130 TIP3 H2   HT     0.417000        1.0080           0
   61259 WT3  7131 TIP3 OH2  OT    -0.834000       15.9994           0
   61260 WT3  7131 TIP3 H1   HT     0.417000        1.0080           0
   61261 WT3  7131 TIP3 H2   HT     0.417000        1.0080           0
   61262 WT3  7133 TIP3 OH2  OT    -0.834000       15.9994           0
   61263 WT3  7133 TIP3 H1   HT     0.417000        1.0080           0
   61264 WT3  7133 TIP3 H2   HT     0.417000        1.0080           0
   61265 WT3  7135 TIP3 OH2  OT    -0.834000       15.9994           0
   61266 WT3  7135 TIP3 H1   HT     0.417000        1.0080           0
   61267 WT3  7135 TIP3 H2   HT     0.417000        1.0080           0
   61268 WT3  7141 TIP3 OH2  OT    -0.834000       15.9994           0
   61269 WT3  7141 TIP3 H1   HT     0.417000        1.0080           0
   61270 WT3  7141 TIP3 H2   HT     0.417000        1.0080           0
   61271 WT3  7142 TIP3 OH2  OT    -0.834000       15.9994           0
   61272 WT3  7142 TIP3 H1   HT     0.417000        1.0080           0
   61273 WT3  7142 TIP3 H2   HT     0.417000        1.0080           0
   61274 WT3  7143 TIP3 OH2  OT    -0.834000       15.9994           0
   61275 WT3  7143 TIP3 H1   HT     0.417000        1.0080           0
   61276 WT3  7143 TIP3 H2   HT     0.417000        1.0080           0
   61277 WT3  7144 TIP3 OH2  OT    -0.834000       15.9994           0
   61278 WT3  7144 TIP3 H1   HT     0.417000        1.0080           0
   61279 WT3  7144 TIP3 H2   HT     0.417000        1.0080           0
   61280 WT3  7145 TIP3 OH2  OT    -0.834000       15.9994           0
   61281 WT3  7145 TIP3 H1   HT     0.417000        1.0080           0
   61282 WT3  7145 TIP3 H2   HT     0.417000        1.0080           0
   61283 WT3  7146 TIP3 OH2  OT    -0.834000       15.9994           0
   61284 WT3  7146 TIP3 H1   HT     0.417000        1.0080           0
   61285 WT3  7146 TIP3 H2   HT     0.417000        1.0080           0
   61286 WT3  7148 TIP3 OH2  OT    -0.834000       15.9994           0
   61287 WT3  7148 TIP3 H1   HT     0.417000        1.0080           0
   61288 WT3  7148 TIP3 H2   HT     0.417000        1.0080           0
   61289 WT3  7149 TIP3 OH2  OT    -0.834000       15.9994           0
   61290 WT3  7149 TIP3 H1   HT     0.417000        1.0080           0
   61291 WT3  7149 TIP3 H2   HT     0.417000        1.0080           0
   61292 WT3  7150 TIP3 OH2  OT    -0.834000       15.9994           0
   61293 WT3  7150 TIP3 H1   HT     0.417000        1.0080           0
   61294 WT3  7150 TIP3 H2   HT     0.417000        1.0080           0
   61295 WT3  7151 TIP3 OH2  OT    -0.834000       15.9994           0
   61296 WT3  7151 TIP3 H1   HT     0.417000        1.0080           0
   61297 WT3  7151 TIP3 H2   HT     0.417000        1.0080           0
   61298 WT3  7152 TIP3 OH2  OT    -0.834000       15.9994           0
   61299 WT3  7152 TIP3 H1   HT     0.417000        1.0080           0
   61300 WT3  7152 TIP3 H2   HT     0.417000        1.0080           0
   61301 WT3  7153 TIP3 OH2  OT    -0.834000       15.9994           0
   61302 WT3  7153 TIP3 H1   HT     0.417000        1.0080           0
   61303 WT3  7153 TIP3 H2   HT     0.417000        1.0080           0
   61304 WT3  7154 TIP3 OH2  OT    -0.834000       15.9994           0
   61305 WT3  7154 TIP3 H1   HT     0.417000        1.0080           0
   61306 WT3  7154 TIP3 H2   HT     0.417000        1.0080           0
   61307 WT3  7161 TIP3 OH2  OT    -0.834000       15.9994           0
   61308 WT3  7161 TIP3 H1   HT     0.417000        1.0080           0
   61309 WT3  7161 TIP3 H2   HT     0.417000        1.0080           0
   61310 WT3  7167 TIP3 OH2  OT    -0.834000       15.9994           0
   61311 WT3  7167 TIP3 H1   HT     0.417000        1.0080           0
   61312 WT3  7167 TIP3 H2   HT     0.417000        1.0080           0
   61313 WT3  7169 TIP3 OH2  OT    -0.834000       15.9994           0
   61314 WT3  7169 TIP3 H1   HT     0.417000        1.0080           0
   61315 WT3  7169 TIP3 H2   HT     0.417000        1.0080           0
   61316 WT3  7171 TIP3 OH2  OT    -0.834000       15.9994           0
   61317 WT3  7171 TIP3 H1   HT     0.417000        1.0080           0
   61318 WT3  7171 TIP3 H2   HT     0.417000        1.0080           0
   61319 WT3  7172 TIP3 OH2  OT    -0.834000       15.9994           0
   61320 WT3  7172 TIP3 H1   HT     0.417000        1.0080           0
   61321 WT3  7172 TIP3 H2   HT     0.417000        1.0080           0
   61322 WT3  7173 TIP3 OH2  OT    -0.834000       15.9994           0
   61323 WT3  7173 TIP3 H1   HT     0.417000        1.0080           0
   61324 WT3  7173 TIP3 H2   HT     0.417000        1.0080           0
   61325 WT3  7174 TIP3 OH2  OT    -0.834000       15.9994           0
   61326 WT3  7174 TIP3 H1   HT     0.417000        1.0080           0
   61327 WT3  7174 TIP3 H2   HT     0.417000        1.0080           0
   61328 WT3  7175 TIP3 OH2  OT    -0.834000       15.9994           0
   61329 WT3  7175 TIP3 H1   HT     0.417000        1.0080           0
   61330 WT3  7175 TIP3 H2   HT     0.417000        1.0080           0
   61331 WT3  7176 TIP3 OH2  OT    -0.834000       15.9994           0
   61332 WT3  7176 TIP3 H1   HT     0.417000        1.0080           0
   61333 WT3  7176 TIP3 H2   HT     0.417000        1.0080           0
   61334 WT3  7178 TIP3 OH2  OT    -0.834000       15.9994           0
   61335 WT3  7178 TIP3 H1   HT     0.417000        1.0080           0
   61336 WT3  7178 TIP3 H2   HT     0.417000        1.0080           0
   61337 WT3  7179 TIP3 OH2  OT    -0.834000       15.9994           0
   61338 WT3  7179 TIP3 H1   HT     0.417000        1.0080           0
   61339 WT3  7179 TIP3 H2   HT     0.417000        1.0080           0
   61340 WT3  7181 TIP3 OH2  OT    -0.834000       15.9994           0
   61341 WT3  7181 TIP3 H1   HT     0.417000        1.0080           0
   61342 WT3  7181 TIP3 H2   HT     0.417000        1.0080           0
   61343 WT3  7182 TIP3 OH2  OT    -0.834000       15.9994           0
   61344 WT3  7182 TIP3 H1   HT     0.417000        1.0080           0
   61345 WT3  7182 TIP3 H2   HT     0.417000        1.0080           0
   61346 WT3  7183 TIP3 OH2  OT    -0.834000       15.9994           0
   61347 WT3  7183 TIP3 H1   HT     0.417000        1.0080           0
   61348 WT3  7183 TIP3 H2   HT     0.417000        1.0080           0
   61349 WT3  7184 TIP3 OH2  OT    -0.834000       15.9994           0
   61350 WT3  7184 TIP3 H1   HT     0.417000        1.0080           0
   61351 WT3  7184 TIP3 H2   HT     0.417000        1.0080           0
   61352 WT3  7185 TIP3 OH2  OT    -0.834000       15.9994           0
   61353 WT3  7185 TIP3 H1   HT     0.417000        1.0080           0
   61354 WT3  7185 TIP3 H2   HT     0.417000        1.0080           0
   61355 WT3  7186 TIP3 OH2  OT    -0.834000       15.9994           0
   61356 WT3  7186 TIP3 H1   HT     0.417000        1.0080           0
   61357 WT3  7186 TIP3 H2   HT     0.417000        1.0080           0
   61358 WT3  7187 TIP3 OH2  OT    -0.834000       15.9994           0
   61359 WT3  7187 TIP3 H1   HT     0.417000        1.0080           0
   61360 WT3  7187 TIP3 H2   HT     0.417000        1.0080           0
   61361 WT3  7188 TIP3 OH2  OT    -0.834000       15.9994           0
   61362 WT3  7188 TIP3 H1   HT     0.417000        1.0080           0
   61363 WT3  7188 TIP3 H2   HT     0.417000        1.0080           0
   61364 WT3  7189 TIP3 OH2  OT    -0.834000       15.9994           0
   61365 WT3  7189 TIP3 H1   HT     0.417000        1.0080           0
   61366 WT3  7189 TIP3 H2   HT     0.417000        1.0080           0
   61367 WT3  7190 TIP3 OH2  OT    -0.834000       15.9994           0
   61368 WT3  7190 TIP3 H1   HT     0.417000        1.0080           0
   61369 WT3  7190 TIP3 H2   HT     0.417000        1.0080           0
   61370 WT3  7191 TIP3 OH2  OT    -0.834000       15.9994           0
   61371 WT3  7191 TIP3 H1   HT     0.417000        1.0080           0
   61372 WT3  7191 TIP3 H2   HT     0.417000        1.0080           0
   61373 WT3  7193 TIP3 OH2  OT    -0.834000       15.9994           0
   61374 WT3  7193 TIP3 H1   HT     0.417000        1.0080           0
   61375 WT3  7193 TIP3 H2   HT     0.417000        1.0080           0
   61376 WT3  7194 TIP3 OH2  OT    -0.834000       15.9994           0
   61377 WT3  7194 TIP3 H1   HT     0.417000        1.0080           0
   61378 WT3  7194 TIP3 H2   HT     0.417000        1.0080           0
   61379 WT3  7195 TIP3 OH2  OT    -0.834000       15.9994           0
   61380 WT3  7195 TIP3 H1   HT     0.417000        1.0080           0
   61381 WT3  7195 TIP3 H2   HT     0.417000        1.0080           0
   61382 WT3  7196 TIP3 OH2  OT    -0.834000       15.9994           0
   61383 WT3  7196 TIP3 H1   HT     0.417000        1.0080           0
   61384 WT3  7196 TIP3 H2   HT     0.417000        1.0080           0
   61385 WT3  7197 TIP3 OH2  OT    -0.834000       15.9994           0
   61386 WT3  7197 TIP3 H1   HT     0.417000        1.0080           0
   61387 WT3  7197 TIP3 H2   HT     0.417000        1.0080           0
   61388 WT3  7198 TIP3 OH2  OT    -0.834000       15.9994           0
   61389 WT3  7198 TIP3 H1   HT     0.417000        1.0080           0
   61390 WT3  7198 TIP3 H2   HT     0.417000        1.0080           0
   61391 WT3  7200 TIP3 OH2  OT    -0.834000       15.9994           0
   61392 WT3  7200 TIP3 H1   HT     0.417000        1.0080           0
   61393 WT3  7200 TIP3 H2   HT     0.417000        1.0080           0
   61394 WT3  7201 TIP3 OH2  OT    -0.834000       15.9994           0
   61395 WT3  7201 TIP3 H1   HT     0.417000        1.0080           0
   61396 WT3  7201 TIP3 H2   HT     0.417000        1.0080           0
   61397 WT3  7207 TIP3 OH2  OT    -0.834000       15.9994           0
   61398 WT3  7207 TIP3 H1   HT     0.417000        1.0080           0
   61399 WT3  7207 TIP3 H2   HT     0.417000        1.0080           0
   61400 WT3  7208 TIP3 OH2  OT    -0.834000       15.9994           0
   61401 WT3  7208 TIP3 H1   HT     0.417000        1.0080           0
   61402 WT3  7208 TIP3 H2   HT     0.417000        1.0080           0
   61403 WT3  7209 TIP3 OH2  OT    -0.834000       15.9994           0
   61404 WT3  7209 TIP3 H1   HT     0.417000        1.0080           0
   61405 WT3  7209 TIP3 H2   HT     0.417000        1.0080           0
   61406 WT3  7210 TIP3 OH2  OT    -0.834000       15.9994           0
   61407 WT3  7210 TIP3 H1   HT     0.417000        1.0080           0
   61408 WT3  7210 TIP3 H2   HT     0.417000        1.0080           0
   61409 WT3  7211 TIP3 OH2  OT    -0.834000       15.9994           0
   61410 WT3  7211 TIP3 H1   HT     0.417000        1.0080           0
   61411 WT3  7211 TIP3 H2   HT     0.417000        1.0080           0
   61412 WT3  7212 TIP3 OH2  OT    -0.834000       15.9994           0
   61413 WT3  7212 TIP3 H1   HT     0.417000        1.0080           0
   61414 WT3  7212 TIP3 H2   HT     0.417000        1.0080           0
   61415 WT3  7215 TIP3 OH2  OT    -0.834000       15.9994           0
   61416 WT3  7215 TIP3 H1   HT     0.417000        1.0080           0
   61417 WT3  7215 TIP3 H2   HT     0.417000        1.0080           0
   61418 WT3  7219 TIP3 OH2  OT    -0.834000       15.9994           0
   61419 WT3  7219 TIP3 H1   HT     0.417000        1.0080           0
   61420 WT3  7219 TIP3 H2   HT     0.417000        1.0080           0
   61421 WT3  7222 TIP3 OH2  OT    -0.834000       15.9994           0
   61422 WT3  7222 TIP3 H1   HT     0.417000        1.0080           0
   61423 WT3  7222 TIP3 H2   HT     0.417000        1.0080           0
   61424 WT3  7227 TIP3 OH2  OT    -0.834000       15.9994           0
   61425 WT3  7227 TIP3 H1   HT     0.417000        1.0080           0
   61426 WT3  7227 TIP3 H2   HT     0.417000        1.0080           0
   61427 WT3  7228 TIP3 OH2  OT    -0.834000       15.9994           0
   61428 WT3  7228 TIP3 H1   HT     0.417000        1.0080           0
   61429 WT3  7228 TIP3 H2   HT     0.417000        1.0080           0
   61430 WT3  7229 TIP3 OH2  OT    -0.834000       15.9994           0
   61431 WT3  7229 TIP3 H1   HT     0.417000        1.0080           0
   61432 WT3  7229 TIP3 H2   HT     0.417000        1.0080           0
   61433 WT3  7231 TIP3 OH2  OT    -0.834000       15.9994           0
   61434 WT3  7231 TIP3 H1   HT     0.417000        1.0080           0
   61435 WT3  7231 TIP3 H2   HT     0.417000        1.0080           0
   61436 WT3  7232 TIP3 OH2  OT    -0.834000       15.9994           0
   61437 WT3  7232 TIP3 H1   HT     0.417000        1.0080           0
   61438 WT3  7232 TIP3 H2   HT     0.417000        1.0080           0
   61439 WT3  7233 TIP3 OH2  OT    -0.834000       15.9994           0
   61440 WT3  7233 TIP3 H1   HT     0.417000        1.0080           0
   61441 WT3  7233 TIP3 H2   HT     0.417000        1.0080           0
   61442 WT3  7236 TIP3 OH2  OT    -0.834000       15.9994           0
   61443 WT3  7236 TIP3 H1   HT     0.417000        1.0080           0
   61444 WT3  7236 TIP3 H2   HT     0.417000        1.0080           0
   61445 WT3  7237 TIP3 OH2  OT    -0.834000       15.9994           0
   61446 WT3  7237 TIP3 H1   HT     0.417000        1.0080           0
   61447 WT3  7237 TIP3 H2   HT     0.417000        1.0080           0
   61448 WT3  7238 TIP3 OH2  OT    -0.834000       15.9994           0
   61449 WT3  7238 TIP3 H1   HT     0.417000        1.0080           0
   61450 WT3  7238 TIP3 H2   HT     0.417000        1.0080           0
   61451 WT3  7239 TIP3 OH2  OT    -0.834000       15.9994           0
   61452 WT3  7239 TIP3 H1   HT     0.417000        1.0080           0
   61453 WT3  7239 TIP3 H2   HT     0.417000        1.0080           0
   61454 WT3  7246 TIP3 OH2  OT    -0.834000       15.9994           0
   61455 WT3  7246 TIP3 H1   HT     0.417000        1.0080           0
   61456 WT3  7246 TIP3 H2   HT     0.417000        1.0080           0
   61457 WT3  7248 TIP3 OH2  OT    -0.834000       15.9994           0
   61458 WT3  7248 TIP3 H1   HT     0.417000        1.0080           0
   61459 WT3  7248 TIP3 H2   HT     0.417000        1.0080           0
   61460 WT3  7249 TIP3 OH2  OT    -0.834000       15.9994           0
   61461 WT3  7249 TIP3 H1   HT     0.417000        1.0080           0
   61462 WT3  7249 TIP3 H2   HT     0.417000        1.0080           0
   61463 WT3  7250 TIP3 OH2  OT    -0.834000       15.9994           0
   61464 WT3  7250 TIP3 H1   HT     0.417000        1.0080           0
   61465 WT3  7250 TIP3 H2   HT     0.417000        1.0080           0
   61466 WT3  7251 TIP3 OH2  OT    -0.834000       15.9994           0
   61467 WT3  7251 TIP3 H1   HT     0.417000        1.0080           0
   61468 WT3  7251 TIP3 H2   HT     0.417000        1.0080           0
   61469 WT3  7252 TIP3 OH2  OT    -0.834000       15.9994           0
   61470 WT3  7252 TIP3 H1   HT     0.417000        1.0080           0
   61471 WT3  7252 TIP3 H2   HT     0.417000        1.0080           0
   61472 WT3  7253 TIP3 OH2  OT    -0.834000       15.9994           0
   61473 WT3  7253 TIP3 H1   HT     0.417000        1.0080           0
   61474 WT3  7253 TIP3 H2   HT     0.417000        1.0080           0
   61475 WT3  7254 TIP3 OH2  OT    -0.834000       15.9994           0
   61476 WT3  7254 TIP3 H1   HT     0.417000        1.0080           0
   61477 WT3  7254 TIP3 H2   HT     0.417000        1.0080           0
   61478 WT3  7255 TIP3 OH2  OT    -0.834000       15.9994           0
   61479 WT3  7255 TIP3 H1   HT     0.417000        1.0080           0
   61480 WT3  7255 TIP3 H2   HT     0.417000        1.0080           0
   61481 WT3  7256 TIP3 OH2  OT    -0.834000       15.9994           0
   61482 WT3  7256 TIP3 H1   HT     0.417000        1.0080           0
   61483 WT3  7256 TIP3 H2   HT     0.417000        1.0080           0
   61484 WT3  7259 TIP3 OH2  OT    -0.834000       15.9994           0
   61485 WT3  7259 TIP3 H1   HT     0.417000        1.0080           0
   61486 WT3  7259 TIP3 H2   HT     0.417000        1.0080           0
   61487 WT3  7264 TIP3 OH2  OT    -0.834000       15.9994           0
   61488 WT3  7264 TIP3 H1   HT     0.417000        1.0080           0
   61489 WT3  7264 TIP3 H2   HT     0.417000        1.0080           0
   61490 WT3  7265 TIP3 OH2  OT    -0.834000       15.9994           0
   61491 WT3  7265 TIP3 H1   HT     0.417000        1.0080           0
   61492 WT3  7265 TIP3 H2   HT     0.417000        1.0080           0
   61493 WT3  7267 TIP3 OH2  OT    -0.834000       15.9994           0
   61494 WT3  7267 TIP3 H1   HT     0.417000        1.0080           0
   61495 WT3  7267 TIP3 H2   HT     0.417000        1.0080           0
   61496 WT3  7268 TIP3 OH2  OT    -0.834000       15.9994           0
   61497 WT3  7268 TIP3 H1   HT     0.417000        1.0080           0
   61498 WT3  7268 TIP3 H2   HT     0.417000        1.0080           0
   61499 WT3  7269 TIP3 OH2  OT    -0.834000       15.9994           0
   61500 WT3  7269 TIP3 H1   HT     0.417000        1.0080           0
   61501 WT3  7269 TIP3 H2   HT     0.417000        1.0080           0
   61502 WT3  7270 TIP3 OH2  OT    -0.834000       15.9994           0
   61503 WT3  7270 TIP3 H1   HT     0.417000        1.0080           0
   61504 WT3  7270 TIP3 H2   HT     0.417000        1.0080           0
   61505 WT3  7272 TIP3 OH2  OT    -0.834000       15.9994           0
   61506 WT3  7272 TIP3 H1   HT     0.417000        1.0080           0
   61507 WT3  7272 TIP3 H2   HT     0.417000        1.0080           0
   61508 WT3  7273 TIP3 OH2  OT    -0.834000       15.9994           0
   61509 WT3  7273 TIP3 H1   HT     0.417000        1.0080           0
   61510 WT3  7273 TIP3 H2   HT     0.417000        1.0080           0
   61511 WT3  7274 TIP3 OH2  OT    -0.834000       15.9994           0
   61512 WT3  7274 TIP3 H1   HT     0.417000        1.0080           0
   61513 WT3  7274 TIP3 H2   HT     0.417000        1.0080           0
   61514 WT3  7275 TIP3 OH2  OT    -0.834000       15.9994           0
   61515 WT3  7275 TIP3 H1   HT     0.417000        1.0080           0
   61516 WT3  7275 TIP3 H2   HT     0.417000        1.0080           0
   61517 WT3  7276 TIP3 OH2  OT    -0.834000       15.9994           0
   61518 WT3  7276 TIP3 H1   HT     0.417000        1.0080           0
   61519 WT3  7276 TIP3 H2   HT     0.417000        1.0080           0
   61520 WT3  7277 TIP3 OH2  OT    -0.834000       15.9994           0
   61521 WT3  7277 TIP3 H1   HT     0.417000        1.0080           0
   61522 WT3  7277 TIP3 H2   HT     0.417000        1.0080           0
   61523 WT3  7279 TIP3 OH2  OT    -0.834000       15.9994           0
   61524 WT3  7279 TIP3 H1   HT     0.417000        1.0080           0
   61525 WT3  7279 TIP3 H2   HT     0.417000        1.0080           0
   61526 WT3  7280 TIP3 OH2  OT    -0.834000       15.9994           0
   61527 WT3  7280 TIP3 H1   HT     0.417000        1.0080           0
   61528 WT3  7280 TIP3 H2   HT     0.417000        1.0080           0
   61529 WT3  7282 TIP3 OH2  OT    -0.834000       15.9994           0
   61530 WT3  7282 TIP3 H1   HT     0.417000        1.0080           0
   61531 WT3  7282 TIP3 H2   HT     0.417000        1.0080           0
   61532 WT3  7287 TIP3 OH2  OT    -0.834000       15.9994           0
   61533 WT3  7287 TIP3 H1   HT     0.417000        1.0080           0
   61534 WT3  7287 TIP3 H2   HT     0.417000        1.0080           0
   61535 WT3  7291 TIP3 OH2  OT    -0.834000       15.9994           0
   61536 WT3  7291 TIP3 H1   HT     0.417000        1.0080           0
   61537 WT3  7291 TIP3 H2   HT     0.417000        1.0080           0
   61538 WT3  7293 TIP3 OH2  OT    -0.834000       15.9994           0
   61539 WT3  7293 TIP3 H1   HT     0.417000        1.0080           0
   61540 WT3  7293 TIP3 H2   HT     0.417000        1.0080           0
   61541 WT3  7294 TIP3 OH2  OT    -0.834000       15.9994           0
   61542 WT3  7294 TIP3 H1   HT     0.417000        1.0080           0
   61543 WT3  7294 TIP3 H2   HT     0.417000        1.0080           0
   61544 WT3  7295 TIP3 OH2  OT    -0.834000       15.9994           0
   61545 WT3  7295 TIP3 H1   HT     0.417000        1.0080           0
   61546 WT3  7295 TIP3 H2   HT     0.417000        1.0080           0
   61547 WT3  7296 TIP3 OH2  OT    -0.834000       15.9994           0
   61548 WT3  7296 TIP3 H1   HT     0.417000        1.0080           0
   61549 WT3  7296 TIP3 H2   HT     0.417000        1.0080           0
   61550 WT3  7297 TIP3 OH2  OT    -0.834000       15.9994           0
   61551 WT3  7297 TIP3 H1   HT     0.417000        1.0080           0
   61552 WT3  7297 TIP3 H2   HT     0.417000        1.0080           0
   61553 WT3  7298 TIP3 OH2  OT    -0.834000       15.9994           0
   61554 WT3  7298 TIP3 H1   HT     0.417000        1.0080           0
   61555 WT3  7298 TIP3 H2   HT     0.417000        1.0080           0
   61556 WT3  7299 TIP3 OH2  OT    -0.834000       15.9994           0
   61557 WT3  7299 TIP3 H1   HT     0.417000        1.0080           0
   61558 WT3  7299 TIP3 H2   HT     0.417000        1.0080           0
   61559 WT3  7300 TIP3 OH2  OT    -0.834000       15.9994           0
   61560 WT3  7300 TIP3 H1   HT     0.417000        1.0080           0
   61561 WT3  7300 TIP3 H2   HT     0.417000        1.0080           0
   61562 WT3  7301 TIP3 OH2  OT    -0.834000       15.9994           0
   61563 WT3  7301 TIP3 H1   HT     0.417000        1.0080           0
   61564 WT3  7301 TIP3 H2   HT     0.417000        1.0080           0
   61565 WT3  7302 TIP3 OH2  OT    -0.834000       15.9994           0
   61566 WT3  7302 TIP3 H1   HT     0.417000        1.0080           0
   61567 WT3  7302 TIP3 H2   HT     0.417000        1.0080           0
   61568 WT3  7303 TIP3 OH2  OT    -0.834000       15.9994           0
   61569 WT3  7303 TIP3 H1   HT     0.417000        1.0080           0
   61570 WT3  7303 TIP3 H2   HT     0.417000        1.0080           0
   61571 WT3  7305 TIP3 OH2  OT    -0.834000       15.9994           0
   61572 WT3  7305 TIP3 H1   HT     0.417000        1.0080           0
   61573 WT3  7305 TIP3 H2   HT     0.417000        1.0080           0
   61574 WT3  7307 TIP3 OH2  OT    -0.834000       15.9994           0
   61575 WT3  7307 TIP3 H1   HT     0.417000        1.0080           0
   61576 WT3  7307 TIP3 H2   HT     0.417000        1.0080           0
   61577 WT3  7310 TIP3 OH2  OT    -0.834000       15.9994           0
   61578 WT3  7310 TIP3 H1   HT     0.417000        1.0080           0
   61579 WT3  7310 TIP3 H2   HT     0.417000        1.0080           0
   61580 WT3  7312 TIP3 OH2  OT    -0.834000       15.9994           0
   61581 WT3  7312 TIP3 H1   HT     0.417000        1.0080           0
   61582 WT3  7312 TIP3 H2   HT     0.417000        1.0080           0
   61583 WT3  7313 TIP3 OH2  OT    -0.834000       15.9994           0
   61584 WT3  7313 TIP3 H1   HT     0.417000        1.0080           0
   61585 WT3  7313 TIP3 H2   HT     0.417000        1.0080           0
   61586 WT3  7314 TIP3 OH2  OT    -0.834000       15.9994           0
   61587 WT3  7314 TIP3 H1   HT     0.417000        1.0080           0
   61588 WT3  7314 TIP3 H2   HT     0.417000        1.0080           0
   61589 WT3  7315 TIP3 OH2  OT    -0.834000       15.9994           0
   61590 WT3  7315 TIP3 H1   HT     0.417000        1.0080           0
   61591 WT3  7315 TIP3 H2   HT     0.417000        1.0080           0
   61592 WT3  7316 TIP3 OH2  OT    -0.834000       15.9994           0
   61593 WT3  7316 TIP3 H1   HT     0.417000        1.0080           0
   61594 WT3  7316 TIP3 H2   HT     0.417000        1.0080           0
   61595 WT3  7317 TIP3 OH2  OT    -0.834000       15.9994           0
   61596 WT3  7317 TIP3 H1   HT     0.417000        1.0080           0
   61597 WT3  7317 TIP3 H2   HT     0.417000        1.0080           0
   61598 WT3  7318 TIP3 OH2  OT    -0.834000       15.9994           0
   61599 WT3  7318 TIP3 H1   HT     0.417000        1.0080           0
   61600 WT3  7318 TIP3 H2   HT     0.417000        1.0080           0
   61601 WT3  7319 TIP3 OH2  OT    -0.834000       15.9994           0
   61602 WT3  7319 TIP3 H1   HT     0.417000        1.0080           0
   61603 WT3  7319 TIP3 H2   HT     0.417000        1.0080           0
   61604 WT3  7320 TIP3 OH2  OT    -0.834000       15.9994           0
   61605 WT3  7320 TIP3 H1   HT     0.417000        1.0080           0
   61606 WT3  7320 TIP3 H2   HT     0.417000        1.0080           0
   61607 WT3  7321 TIP3 OH2  OT    -0.834000       15.9994           0
   61608 WT3  7321 TIP3 H1   HT     0.417000        1.0080           0
   61609 WT3  7321 TIP3 H2   HT     0.417000        1.0080           0
   61610 WT3  7323 TIP3 OH2  OT    -0.834000       15.9994           0
   61611 WT3  7323 TIP3 H1   HT     0.417000        1.0080           0
   61612 WT3  7323 TIP3 H2   HT     0.417000        1.0080           0
   61613 WT3  7324 TIP3 OH2  OT    -0.834000       15.9994           0
   61614 WT3  7324 TIP3 H1   HT     0.417000        1.0080           0
   61615 WT3  7324 TIP3 H2   HT     0.417000        1.0080           0
   61616 WT3  7325 TIP3 OH2  OT    -0.834000       15.9994           0
   61617 WT3  7325 TIP3 H1   HT     0.417000        1.0080           0
   61618 WT3  7325 TIP3 H2   HT     0.417000        1.0080           0
   61619 WT3  7326 TIP3 OH2  OT    -0.834000       15.9994           0
   61620 WT3  7326 TIP3 H1   HT     0.417000        1.0080           0
   61621 WT3  7326 TIP3 H2   HT     0.417000        1.0080           0
   61622 WT3  7328 TIP3 OH2  OT    -0.834000       15.9994           0
   61623 WT3  7328 TIP3 H1   HT     0.417000        1.0080           0
   61624 WT3  7328 TIP3 H2   HT     0.417000        1.0080           0
   61625 WT3  7331 TIP3 OH2  OT    -0.834000       15.9994           0
   61626 WT3  7331 TIP3 H1   HT     0.417000        1.0080           0
   61627 WT3  7331 TIP3 H2   HT     0.417000        1.0080           0
   61628 WT3  7333 TIP3 OH2  OT    -0.834000       15.9994           0
   61629 WT3  7333 TIP3 H1   HT     0.417000        1.0080           0
   61630 WT3  7333 TIP3 H2   HT     0.417000        1.0080           0
   61631 WT3  7334 TIP3 OH2  OT    -0.834000       15.9994           0
   61632 WT3  7334 TIP3 H1   HT     0.417000        1.0080           0
   61633 WT3  7334 TIP3 H2   HT     0.417000        1.0080           0
   61634 WT3  7335 TIP3 OH2  OT    -0.834000       15.9994           0
   61635 WT3  7335 TIP3 H1   HT     0.417000        1.0080           0
   61636 WT3  7335 TIP3 H2   HT     0.417000        1.0080           0
   61637 WT3  7336 TIP3 OH2  OT    -0.834000       15.9994           0
   61638 WT3  7336 TIP3 H1   HT     0.417000        1.0080           0
   61639 WT3  7336 TIP3 H2   HT     0.417000        1.0080           0
   61640 WT3  7338 TIP3 OH2  OT    -0.834000       15.9994           0
   61641 WT3  7338 TIP3 H1   HT     0.417000        1.0080           0
   61642 WT3  7338 TIP3 H2   HT     0.417000        1.0080           0
   61643 WT3  7339 TIP3 OH2  OT    -0.834000       15.9994           0
   61644 WT3  7339 TIP3 H1   HT     0.417000        1.0080           0
   61645 WT3  7339 TIP3 H2   HT     0.417000        1.0080           0
   61646 WT3  7343 TIP3 OH2  OT    -0.834000       15.9994           0
   61647 WT3  7343 TIP3 H1   HT     0.417000        1.0080           0
   61648 WT3  7343 TIP3 H2   HT     0.417000        1.0080           0
   61649 WT3  7351 TIP3 OH2  OT    -0.834000       15.9994           0
   61650 WT3  7351 TIP3 H1   HT     0.417000        1.0080           0
   61651 WT3  7351 TIP3 H2   HT     0.417000        1.0080           0
   61652 WT3  7353 TIP3 OH2  OT    -0.834000       15.9994           0
   61653 WT3  7353 TIP3 H1   HT     0.417000        1.0080           0
   61654 WT3  7353 TIP3 H2   HT     0.417000        1.0080           0
   61655 WT3  7354 TIP3 OH2  OT    -0.834000       15.9994           0
   61656 WT3  7354 TIP3 H1   HT     0.417000        1.0080           0
   61657 WT3  7354 TIP3 H2   HT     0.417000        1.0080           0
   61658 WT3  7355 TIP3 OH2  OT    -0.834000       15.9994           0
   61659 WT3  7355 TIP3 H1   HT     0.417000        1.0080           0
   61660 WT3  7355 TIP3 H2   HT     0.417000        1.0080           0
   61661 WT3  7356 TIP3 OH2  OT    -0.834000       15.9994           0
   61662 WT3  7356 TIP3 H1   HT     0.417000        1.0080           0
   61663 WT3  7356 TIP3 H2   HT     0.417000        1.0080           0
   61664 WT3  7357 TIP3 OH2  OT    -0.834000       15.9994           0
   61665 WT3  7357 TIP3 H1   HT     0.417000        1.0080           0
   61666 WT3  7357 TIP3 H2   HT     0.417000        1.0080           0
   61667 WT3  7358 TIP3 OH2  OT    -0.834000       15.9994           0
   61668 WT3  7358 TIP3 H1   HT     0.417000        1.0080           0
   61669 WT3  7358 TIP3 H2   HT     0.417000        1.0080           0
   61670 WT3  7359 TIP3 OH2  OT    -0.834000       15.9994           0
   61671 WT3  7359 TIP3 H1   HT     0.417000        1.0080           0
   61672 WT3  7359 TIP3 H2   HT     0.417000        1.0080           0
   61673 WT3  7361 TIP3 OH2  OT    -0.834000       15.9994           0
   61674 WT3  7361 TIP3 H1   HT     0.417000        1.0080           0
   61675 WT3  7361 TIP3 H2   HT     0.417000        1.0080           0
   61676 WT3  7362 TIP3 OH2  OT    -0.834000       15.9994           0
   61677 WT3  7362 TIP3 H1   HT     0.417000        1.0080           0
   61678 WT3  7362 TIP3 H2   HT     0.417000        1.0080           0
   61679 WT3  7364 TIP3 OH2  OT    -0.834000       15.9994           0
   61680 WT3  7364 TIP3 H1   HT     0.417000        1.0080           0
   61681 WT3  7364 TIP3 H2   HT     0.417000        1.0080           0
   61682 WT3  7365 TIP3 OH2  OT    -0.834000       15.9994           0
   61683 WT3  7365 TIP3 H1   HT     0.417000        1.0080           0
   61684 WT3  7365 TIP3 H2   HT     0.417000        1.0080           0
   61685 WT3  7370 TIP3 OH2  OT    -0.834000       15.9994           0
   61686 WT3  7370 TIP3 H1   HT     0.417000        1.0080           0
   61687 WT3  7370 TIP3 H2   HT     0.417000        1.0080           0
   61688 WT3  7371 TIP3 OH2  OT    -0.834000       15.9994           0
   61689 WT3  7371 TIP3 H1   HT     0.417000        1.0080           0
   61690 WT3  7371 TIP3 H2   HT     0.417000        1.0080           0
   61691 WT3  7376 TIP3 OH2  OT    -0.834000       15.9994           0
   61692 WT3  7376 TIP3 H1   HT     0.417000        1.0080           0
   61693 WT3  7376 TIP3 H2   HT     0.417000        1.0080           0
   61694 WT3  7378 TIP3 OH2  OT    -0.834000       15.9994           0
   61695 WT3  7378 TIP3 H1   HT     0.417000        1.0080           0
   61696 WT3  7378 TIP3 H2   HT     0.417000        1.0080           0
   61697 WT3  7379 TIP3 OH2  OT    -0.834000       15.9994           0
   61698 WT3  7379 TIP3 H1   HT     0.417000        1.0080           0
   61699 WT3  7379 TIP3 H2   HT     0.417000        1.0080           0
   61700 WT3  7380 TIP3 OH2  OT    -0.834000       15.9994           0
   61701 WT3  7380 TIP3 H1   HT     0.417000        1.0080           0
   61702 WT3  7380 TIP3 H2   HT     0.417000        1.0080           0
   61703 WT3  7381 TIP3 OH2  OT    -0.834000       15.9994           0
   61704 WT3  7381 TIP3 H1   HT     0.417000        1.0080           0
   61705 WT3  7381 TIP3 H2   HT     0.417000        1.0080           0
   61706 WT3  7382 TIP3 OH2  OT    -0.834000       15.9994           0
   61707 WT3  7382 TIP3 H1   HT     0.417000        1.0080           0
   61708 WT3  7382 TIP3 H2   HT     0.417000        1.0080           0
   61709 WT3  7383 TIP3 OH2  OT    -0.834000       15.9994           0
   61710 WT3  7383 TIP3 H1   HT     0.417000        1.0080           0
   61711 WT3  7383 TIP3 H2   HT     0.417000        1.0080           0
   61712 WT3  7384 TIP3 OH2  OT    -0.834000       15.9994           0
   61713 WT3  7384 TIP3 H1   HT     0.417000        1.0080           0
   61714 WT3  7384 TIP3 H2   HT     0.417000        1.0080           0
   61715 WT3  7385 TIP3 OH2  OT    -0.834000       15.9994           0
   61716 WT3  7385 TIP3 H1   HT     0.417000        1.0080           0
   61717 WT3  7385 TIP3 H2   HT     0.417000        1.0080           0
   61718 WT3  7386 TIP3 OH2  OT    -0.834000       15.9994           0
   61719 WT3  7386 TIP3 H1   HT     0.417000        1.0080           0
   61720 WT3  7386 TIP3 H2   HT     0.417000        1.0080           0
   61721 WT3  7393 TIP3 OH2  OT    -0.834000       15.9994           0
   61722 WT3  7393 TIP3 H1   HT     0.417000        1.0080           0
   61723 WT3  7393 TIP3 H2   HT     0.417000        1.0080           0
   61724 WT3  7394 TIP3 OH2  OT    -0.834000       15.9994           0
   61725 WT3  7394 TIP3 H1   HT     0.417000        1.0080           0
   61726 WT3  7394 TIP3 H2   HT     0.417000        1.0080           0
   61727 WT3  7396 TIP3 OH2  OT    -0.834000       15.9994           0
   61728 WT3  7396 TIP3 H1   HT     0.417000        1.0080           0
   61729 WT3  7396 TIP3 H2   HT     0.417000        1.0080           0
   61730 WT3  7397 TIP3 OH2  OT    -0.834000       15.9994           0
   61731 WT3  7397 TIP3 H1   HT     0.417000        1.0080           0
   61732 WT3  7397 TIP3 H2   HT     0.417000        1.0080           0
   61733 WT3  7398 TIP3 OH2  OT    -0.834000       15.9994           0
   61734 WT3  7398 TIP3 H1   HT     0.417000        1.0080           0
   61735 WT3  7398 TIP3 H2   HT     0.417000        1.0080           0
   61736 WT3  7399 TIP3 OH2  OT    -0.834000       15.9994           0
   61737 WT3  7399 TIP3 H1   HT     0.417000        1.0080           0
   61738 WT3  7399 TIP3 H2   HT     0.417000        1.0080           0
   61739 WT3  7400 TIP3 OH2  OT    -0.834000       15.9994           0
   61740 WT3  7400 TIP3 H1   HT     0.417000        1.0080           0
   61741 WT3  7400 TIP3 H2   HT     0.417000        1.0080           0
   61742 WT3  7401 TIP3 OH2  OT    -0.834000       15.9994           0
   61743 WT3  7401 TIP3 H1   HT     0.417000        1.0080           0
   61744 WT3  7401 TIP3 H2   HT     0.417000        1.0080           0
   61745 WT3  7402 TIP3 OH2  OT    -0.834000       15.9994           0
   61746 WT3  7402 TIP3 H1   HT     0.417000        1.0080           0
   61747 WT3  7402 TIP3 H2   HT     0.417000        1.0080           0
   61748 WT3  7403 TIP3 OH2  OT    -0.834000       15.9994           0
   61749 WT3  7403 TIP3 H1   HT     0.417000        1.0080           0
   61750 WT3  7403 TIP3 H2   HT     0.417000        1.0080           0
   61751 WT3  7404 TIP3 OH2  OT    -0.834000       15.9994           0
   61752 WT3  7404 TIP3 H1   HT     0.417000        1.0080           0
   61753 WT3  7404 TIP3 H2   HT     0.417000        1.0080           0
   61754 WT3  7405 TIP3 OH2  OT    -0.834000       15.9994           0
   61755 WT3  7405 TIP3 H1   HT     0.417000        1.0080           0
   61756 WT3  7405 TIP3 H2   HT     0.417000        1.0080           0
   61757 WT3  7407 TIP3 OH2  OT    -0.834000       15.9994           0
   61758 WT3  7407 TIP3 H1   HT     0.417000        1.0080           0
   61759 WT3  7407 TIP3 H2   HT     0.417000        1.0080           0
   61760 WT3  7408 TIP3 OH2  OT    -0.834000       15.9994           0
   61761 WT3  7408 TIP3 H1   HT     0.417000        1.0080           0
   61762 WT3  7408 TIP3 H2   HT     0.417000        1.0080           0
   61763 WT3  7415 TIP3 OH2  OT    -0.834000       15.9994           0
   61764 WT3  7415 TIP3 H1   HT     0.417000        1.0080           0
   61765 WT3  7415 TIP3 H2   HT     0.417000        1.0080           0
   61766 WT3  7416 TIP3 OH2  OT    -0.834000       15.9994           0
   61767 WT3  7416 TIP3 H1   HT     0.417000        1.0080           0
   61768 WT3  7416 TIP3 H2   HT     0.417000        1.0080           0
   61769 WT3  7418 TIP3 OH2  OT    -0.834000       15.9994           0
   61770 WT3  7418 TIP3 H1   HT     0.417000        1.0080           0
   61771 WT3  7418 TIP3 H2   HT     0.417000        1.0080           0
   61772 WT3  7419 TIP3 OH2  OT    -0.834000       15.9994           0
   61773 WT3  7419 TIP3 H1   HT     0.417000        1.0080           0
   61774 WT3  7419 TIP3 H2   HT     0.417000        1.0080           0
   61775 WT3  7420 TIP3 OH2  OT    -0.834000       15.9994           0
   61776 WT3  7420 TIP3 H1   HT     0.417000        1.0080           0
   61777 WT3  7420 TIP3 H2   HT     0.417000        1.0080           0
   61778 WT3  7421 TIP3 OH2  OT    -0.834000       15.9994           0
   61779 WT3  7421 TIP3 H1   HT     0.417000        1.0080           0
   61780 WT3  7421 TIP3 H2   HT     0.417000        1.0080           0
   61781 WT3  7422 TIP3 OH2  OT    -0.834000       15.9994           0
   61782 WT3  7422 TIP3 H1   HT     0.417000        1.0080           0
   61783 WT3  7422 TIP3 H2   HT     0.417000        1.0080           0
   61784 WT3  7423 TIP3 OH2  OT    -0.834000       15.9994           0
   61785 WT3  7423 TIP3 H1   HT     0.417000        1.0080           0
   61786 WT3  7423 TIP3 H2   HT     0.417000        1.0080           0
   61787 WT3  7425 TIP3 OH2  OT    -0.834000       15.9994           0
   61788 WT3  7425 TIP3 H1   HT     0.417000        1.0080           0
   61789 WT3  7425 TIP3 H2   HT     0.417000        1.0080           0
   61790 WT3  7426 TIP3 OH2  OT    -0.834000       15.9994           0
   61791 WT3  7426 TIP3 H1   HT     0.417000        1.0080           0
   61792 WT3  7426 TIP3 H2   HT     0.417000        1.0080           0
   61793 WT3  7428 TIP3 OH2  OT    -0.834000       15.9994           0
   61794 WT3  7428 TIP3 H1   HT     0.417000        1.0080           0
   61795 WT3  7428 TIP3 H2   HT     0.417000        1.0080           0
   61796 WT3  7429 TIP3 OH2  OT    -0.834000       15.9994           0
   61797 WT3  7429 TIP3 H1   HT     0.417000        1.0080           0
   61798 WT3  7429 TIP3 H2   HT     0.417000        1.0080           0
   61799 WT3  7430 TIP3 OH2  OT    -0.834000       15.9994           0
   61800 WT3  7430 TIP3 H1   HT     0.417000        1.0080           0
   61801 WT3  7430 TIP3 H2   HT     0.417000        1.0080           0
   61802 WT3  7431 TIP3 OH2  OT    -0.834000       15.9994           0
   61803 WT3  7431 TIP3 H1   HT     0.417000        1.0080           0
   61804 WT3  7431 TIP3 H2   HT     0.417000        1.0080           0
   61805 WT3  7434 TIP3 OH2  OT    -0.834000       15.9994           0
   61806 WT3  7434 TIP3 H1   HT     0.417000        1.0080           0
   61807 WT3  7434 TIP3 H2   HT     0.417000        1.0080           0
   61808 WT3  7437 TIP3 OH2  OT    -0.834000       15.9994           0
   61809 WT3  7437 TIP3 H1   HT     0.417000        1.0080           0
   61810 WT3  7437 TIP3 H2   HT     0.417000        1.0080           0
   61811 WT3  7438 TIP3 OH2  OT    -0.834000       15.9994           0
   61812 WT3  7438 TIP3 H1   HT     0.417000        1.0080           0
   61813 WT3  7438 TIP3 H2   HT     0.417000        1.0080           0
   61814 WT3  7439 TIP3 OH2  OT    -0.834000       15.9994           0
   61815 WT3  7439 TIP3 H1   HT     0.417000        1.0080           0
   61816 WT3  7439 TIP3 H2   HT     0.417000        1.0080           0
   61817 WT3  7440 TIP3 OH2  OT    -0.834000       15.9994           0
   61818 WT3  7440 TIP3 H1   HT     0.417000        1.0080           0
   61819 WT3  7440 TIP3 H2   HT     0.417000        1.0080           0
   61820 WT3  7441 TIP3 OH2  OT    -0.834000       15.9994           0
   61821 WT3  7441 TIP3 H1   HT     0.417000        1.0080           0
   61822 WT3  7441 TIP3 H2   HT     0.417000        1.0080           0
   61823 WT3  7442 TIP3 OH2  OT    -0.834000       15.9994           0
   61824 WT3  7442 TIP3 H1   HT     0.417000        1.0080           0
   61825 WT3  7442 TIP3 H2   HT     0.417000        1.0080           0
   61826 WT3  7443 TIP3 OH2  OT    -0.834000       15.9994           0
   61827 WT3  7443 TIP3 H1   HT     0.417000        1.0080           0
   61828 WT3  7443 TIP3 H2   HT     0.417000        1.0080           0
   61829 WT3  7444 TIP3 OH2  OT    -0.834000       15.9994           0
   61830 WT3  7444 TIP3 H1   HT     0.417000        1.0080           0
   61831 WT3  7444 TIP3 H2   HT     0.417000        1.0080           0
   61832 WT3  7446 TIP3 OH2  OT    -0.834000       15.9994           0
   61833 WT3  7446 TIP3 H1   HT     0.417000        1.0080           0
   61834 WT3  7446 TIP3 H2   HT     0.417000        1.0080           0
   61835 WT3  7447 TIP3 OH2  OT    -0.834000       15.9994           0
   61836 WT3  7447 TIP3 H1   HT     0.417000        1.0080           0
   61837 WT3  7447 TIP3 H2   HT     0.417000        1.0080           0
   61838 WT3  7449 TIP3 OH2  OT    -0.834000       15.9994           0
   61839 WT3  7449 TIP3 H1   HT     0.417000        1.0080           0
   61840 WT3  7449 TIP3 H2   HT     0.417000        1.0080           0
   61841 WT3  7451 TIP3 OH2  OT    -0.834000       15.9994           0
   61842 WT3  7451 TIP3 H1   HT     0.417000        1.0080           0
   61843 WT3  7451 TIP3 H2   HT     0.417000        1.0080           0
   61844 WT3  7453 TIP3 OH2  OT    -0.834000       15.9994           0
   61845 WT3  7453 TIP3 H1   HT     0.417000        1.0080           0
   61846 WT3  7453 TIP3 H2   HT     0.417000        1.0080           0
   61847 WT3  7454 TIP3 OH2  OT    -0.834000       15.9994           0
   61848 WT3  7454 TIP3 H1   HT     0.417000        1.0080           0
   61849 WT3  7454 TIP3 H2   HT     0.417000        1.0080           0
   61850 WT3  7455 TIP3 OH2  OT    -0.834000       15.9994           0
   61851 WT3  7455 TIP3 H1   HT     0.417000        1.0080           0
   61852 WT3  7455 TIP3 H2   HT     0.417000        1.0080           0
   61853 WT3  7457 TIP3 OH2  OT    -0.834000       15.9994           0
   61854 WT3  7457 TIP3 H1   HT     0.417000        1.0080           0
   61855 WT3  7457 TIP3 H2   HT     0.417000        1.0080           0
   61856 WT3  7460 TIP3 OH2  OT    -0.834000       15.9994           0
   61857 WT3  7460 TIP3 H1   HT     0.417000        1.0080           0
   61858 WT3  7460 TIP3 H2   HT     0.417000        1.0080           0
   61859 WT3  7462 TIP3 OH2  OT    -0.834000       15.9994           0
   61860 WT3  7462 TIP3 H1   HT     0.417000        1.0080           0
   61861 WT3  7462 TIP3 H2   HT     0.417000        1.0080           0
   61862 WT3  7463 TIP3 OH2  OT    -0.834000       15.9994           0
   61863 WT3  7463 TIP3 H1   HT     0.417000        1.0080           0
   61864 WT3  7463 TIP3 H2   HT     0.417000        1.0080           0
   61865 WT3  7464 TIP3 OH2  OT    -0.834000       15.9994           0
   61866 WT3  7464 TIP3 H1   HT     0.417000        1.0080           0
   61867 WT3  7464 TIP3 H2   HT     0.417000        1.0080           0
   61868 WT3  7465 TIP3 OH2  OT    -0.834000       15.9994           0
   61869 WT3  7465 TIP3 H1   HT     0.417000        1.0080           0
   61870 WT3  7465 TIP3 H2   HT     0.417000        1.0080           0
   61871 WT3  7466 TIP3 OH2  OT    -0.834000       15.9994           0
   61872 WT3  7466 TIP3 H1   HT     0.417000        1.0080           0
   61873 WT3  7466 TIP3 H2   HT     0.417000        1.0080           0
   61874 WT3  7468 TIP3 OH2  OT    -0.834000       15.9994           0
   61875 WT3  7468 TIP3 H1   HT     0.417000        1.0080           0
   61876 WT3  7468 TIP3 H2   HT     0.417000        1.0080           0
   61877 WT3  7469 TIP3 OH2  OT    -0.834000       15.9994           0
   61878 WT3  7469 TIP3 H1   HT     0.417000        1.0080           0
   61879 WT3  7469 TIP3 H2   HT     0.417000        1.0080           0
   61880 WT3  7471 TIP3 OH2  OT    -0.834000       15.9994           0
   61881 WT3  7471 TIP3 H1   HT     0.417000        1.0080           0
   61882 WT3  7471 TIP3 H2   HT     0.417000        1.0080           0
   61883 WT3  7474 TIP3 OH2  OT    -0.834000       15.9994           0
   61884 WT3  7474 TIP3 H1   HT     0.417000        1.0080           0
   61885 WT3  7474 TIP3 H2   HT     0.417000        1.0080           0
   61886 WT3  7477 TIP3 OH2  OT    -0.834000       15.9994           0
   61887 WT3  7477 TIP3 H1   HT     0.417000        1.0080           0
   61888 WT3  7477 TIP3 H2   HT     0.417000        1.0080           0
   61889 WT3  7479 TIP3 OH2  OT    -0.834000       15.9994           0
   61890 WT3  7479 TIP3 H1   HT     0.417000        1.0080           0
   61891 WT3  7479 TIP3 H2   HT     0.417000        1.0080           0
   61892 WT3  7480 TIP3 OH2  OT    -0.834000       15.9994           0
   61893 WT3  7480 TIP3 H1   HT     0.417000        1.0080           0
   61894 WT3  7480 TIP3 H2   HT     0.417000        1.0080           0
   61895 WT3  7482 TIP3 OH2  OT    -0.834000       15.9994           0
   61896 WT3  7482 TIP3 H1   HT     0.417000        1.0080           0
   61897 WT3  7482 TIP3 H2   HT     0.417000        1.0080           0
   61898 WT3  7483 TIP3 OH2  OT    -0.834000       15.9994           0
   61899 WT3  7483 TIP3 H1   HT     0.417000        1.0080           0
   61900 WT3  7483 TIP3 H2   HT     0.417000        1.0080           0
   61901 WT3  7484 TIP3 OH2  OT    -0.834000       15.9994           0
   61902 WT3  7484 TIP3 H1   HT     0.417000        1.0080           0
   61903 WT3  7484 TIP3 H2   HT     0.417000        1.0080           0
   61904 WT3  7485 TIP3 OH2  OT    -0.834000       15.9994           0
   61905 WT3  7485 TIP3 H1   HT     0.417000        1.0080           0
   61906 WT3  7485 TIP3 H2   HT     0.417000        1.0080           0
   61907 WT3  7486 TIP3 OH2  OT    -0.834000       15.9994           0
   61908 WT3  7486 TIP3 H1   HT     0.417000        1.0080           0
   61909 WT3  7486 TIP3 H2   HT     0.417000        1.0080           0
   61910 WT3  7487 TIP3 OH2  OT    -0.834000       15.9994           0
   61911 WT3  7487 TIP3 H1   HT     0.417000        1.0080           0
   61912 WT3  7487 TIP3 H2   HT     0.417000        1.0080           0
   61913 WT3  7488 TIP3 OH2  OT    -0.834000       15.9994           0
   61914 WT3  7488 TIP3 H1   HT     0.417000        1.0080           0
   61915 WT3  7488 TIP3 H2   HT     0.417000        1.0080           0
   61916 WT3  7489 TIP3 OH2  OT    -0.834000       15.9994           0
   61917 WT3  7489 TIP3 H1   HT     0.417000        1.0080           0
   61918 WT3  7489 TIP3 H2   HT     0.417000        1.0080           0
   61919 WT3  7490 TIP3 OH2  OT    -0.834000       15.9994           0
   61920 WT3  7490 TIP3 H1   HT     0.417000        1.0080           0
   61921 WT3  7490 TIP3 H2   HT     0.417000        1.0080           0
   61922 WT3  7491 TIP3 OH2  OT    -0.834000       15.9994           0
   61923 WT3  7491 TIP3 H1   HT     0.417000        1.0080           0
   61924 WT3  7491 TIP3 H2   HT     0.417000        1.0080           0
   61925 WT3  7493 TIP3 OH2  OT    -0.834000       15.9994           0
   61926 WT3  7493 TIP3 H1   HT     0.417000        1.0080           0
   61927 WT3  7493 TIP3 H2   HT     0.417000        1.0080           0
   61928 WT3  7496 TIP3 OH2  OT    -0.834000       15.9994           0
   61929 WT3  7496 TIP3 H1   HT     0.417000        1.0080           0
   61930 WT3  7496 TIP3 H2   HT     0.417000        1.0080           0
   61931 WT3  7498 TIP3 OH2  OT    -0.834000       15.9994           0
   61932 WT3  7498 TIP3 H1   HT     0.417000        1.0080           0
   61933 WT3  7498 TIP3 H2   HT     0.417000        1.0080           0
   61934 WT3  7499 TIP3 OH2  OT    -0.834000       15.9994           0
   61935 WT3  7499 TIP3 H1   HT     0.417000        1.0080           0
   61936 WT3  7499 TIP3 H2   HT     0.417000        1.0080           0
   61937 WT3  7500 TIP3 OH2  OT    -0.834000       15.9994           0
   61938 WT3  7500 TIP3 H1   HT     0.417000        1.0080           0
   61939 WT3  7500 TIP3 H2   HT     0.417000        1.0080           0
   61940 WT3  7501 TIP3 OH2  OT    -0.834000       15.9994           0
   61941 WT3  7501 TIP3 H1   HT     0.417000        1.0080           0
   61942 WT3  7501 TIP3 H2   HT     0.417000        1.0080           0
   61943 WT3  7503 TIP3 OH2  OT    -0.834000       15.9994           0
   61944 WT3  7503 TIP3 H1   HT     0.417000        1.0080           0
   61945 WT3  7503 TIP3 H2   HT     0.417000        1.0080           0
   61946 WT3  7504 TIP3 OH2  OT    -0.834000       15.9994           0
   61947 WT3  7504 TIP3 H1   HT     0.417000        1.0080           0
   61948 WT3  7504 TIP3 H2   HT     0.417000        1.0080           0
   61949 WT3  7505 TIP3 OH2  OT    -0.834000       15.9994           0
   61950 WT3  7505 TIP3 H1   HT     0.417000        1.0080           0
   61951 WT3  7505 TIP3 H2   HT     0.417000        1.0080           0
   61952 WT3  7506 TIP3 OH2  OT    -0.834000       15.9994           0
   61953 WT3  7506 TIP3 H1   HT     0.417000        1.0080           0
   61954 WT3  7506 TIP3 H2   HT     0.417000        1.0080           0
   61955 WT3  7507 TIP3 OH2  OT    -0.834000       15.9994           0
   61956 WT3  7507 TIP3 H1   HT     0.417000        1.0080           0
   61957 WT3  7507 TIP3 H2   HT     0.417000        1.0080           0
   61958 WT3  7508 TIP3 OH2  OT    -0.834000       15.9994           0
   61959 WT3  7508 TIP3 H1   HT     0.417000        1.0080           0
   61960 WT3  7508 TIP3 H2   HT     0.417000        1.0080           0
   61961 WT3  7510 TIP3 OH2  OT    -0.834000       15.9994           0
   61962 WT3  7510 TIP3 H1   HT     0.417000        1.0080           0
   61963 WT3  7510 TIP3 H2   HT     0.417000        1.0080           0
   61964 WT3  7512 TIP3 OH2  OT    -0.834000       15.9994           0
   61965 WT3  7512 TIP3 H1   HT     0.417000        1.0080           0
   61966 WT3  7512 TIP3 H2   HT     0.417000        1.0080           0
   61967 WT3  7514 TIP3 OH2  OT    -0.834000       15.9994           0
   61968 WT3  7514 TIP3 H1   HT     0.417000        1.0080           0
   61969 WT3  7514 TIP3 H2   HT     0.417000        1.0080           0
   61970 WT3  7515 TIP3 OH2  OT    -0.834000       15.9994           0
   61971 WT3  7515 TIP3 H1   HT     0.417000        1.0080           0
   61972 WT3  7515 TIP3 H2   HT     0.417000        1.0080           0
   61973 WT3  7518 TIP3 OH2  OT    -0.834000       15.9994           0
   61974 WT3  7518 TIP3 H1   HT     0.417000        1.0080           0
   61975 WT3  7518 TIP3 H2   HT     0.417000        1.0080           0
   61976 WT3  7519 TIP3 OH2  OT    -0.834000       15.9994           0
   61977 WT3  7519 TIP3 H1   HT     0.417000        1.0080           0
   61978 WT3  7519 TIP3 H2   HT     0.417000        1.0080           0
   61979 WT3  7521 TIP3 OH2  OT    -0.834000       15.9994           0
   61980 WT3  7521 TIP3 H1   HT     0.417000        1.0080           0
   61981 WT3  7521 TIP3 H2   HT     0.417000        1.0080           0
   61982 WT3  7523 TIP3 OH2  OT    -0.834000       15.9994           0
   61983 WT3  7523 TIP3 H1   HT     0.417000        1.0080           0
   61984 WT3  7523 TIP3 H2   HT     0.417000        1.0080           0
   61985 WT3  7524 TIP3 OH2  OT    -0.834000       15.9994           0
   61986 WT3  7524 TIP3 H1   HT     0.417000        1.0080           0
   61987 WT3  7524 TIP3 H2   HT     0.417000        1.0080           0
   61988 WT3  7525 TIP3 OH2  OT    -0.834000       15.9994           0
   61989 WT3  7525 TIP3 H1   HT     0.417000        1.0080           0
   61990 WT3  7525 TIP3 H2   HT     0.417000        1.0080           0
   61991 WT3  7526 TIP3 OH2  OT    -0.834000       15.9994           0
   61992 WT3  7526 TIP3 H1   HT     0.417000        1.0080           0
   61993 WT3  7526 TIP3 H2   HT     0.417000        1.0080           0
   61994 WT3  7527 TIP3 OH2  OT    -0.834000       15.9994           0
   61995 WT3  7527 TIP3 H1   HT     0.417000        1.0080           0
   61996 WT3  7527 TIP3 H2   HT     0.417000        1.0080           0
   61997 WT3  7529 TIP3 OH2  OT    -0.834000       15.9994           0
   61998 WT3  7529 TIP3 H1   HT     0.417000        1.0080           0
   61999 WT3  7529 TIP3 H2   HT     0.417000        1.0080           0
   62000 WT3  7530 TIP3 OH2  OT    -0.834000       15.9994           0
   62001 WT3  7530 TIP3 H1   HT     0.417000        1.0080           0
   62002 WT3  7530 TIP3 H2   HT     0.417000        1.0080           0
   62003 WT3  7532 TIP3 OH2  OT    -0.834000       15.9994           0
   62004 WT3  7532 TIP3 H1   HT     0.417000        1.0080           0
   62005 WT3  7532 TIP3 H2   HT     0.417000        1.0080           0
   62006 WT3  7541 TIP3 OH2  OT    -0.834000       15.9994           0
   62007 WT3  7541 TIP3 H1   HT     0.417000        1.0080           0
   62008 WT3  7541 TIP3 H2   HT     0.417000        1.0080           0
   62009 WT3  7543 TIP3 OH2  OT    -0.834000       15.9994           0
   62010 WT3  7543 TIP3 H1   HT     0.417000        1.0080           0
   62011 WT3  7543 TIP3 H2   HT     0.417000        1.0080           0
   62012 WT3  7544 TIP3 OH2  OT    -0.834000       15.9994           0
   62013 WT3  7544 TIP3 H1   HT     0.417000        1.0080           0
   62014 WT3  7544 TIP3 H2   HT     0.417000        1.0080           0
   62015 WT3  7546 TIP3 OH2  OT    -0.834000       15.9994           0
   62016 WT3  7546 TIP3 H1   HT     0.417000        1.0080           0
   62017 WT3  7546 TIP3 H2   HT     0.417000        1.0080           0
   62018 WT3  7549 TIP3 OH2  OT    -0.834000       15.9994           0
   62019 WT3  7549 TIP3 H1   HT     0.417000        1.0080           0
   62020 WT3  7549 TIP3 H2   HT     0.417000        1.0080           0
   62021 WT3  7551 TIP3 OH2  OT    -0.834000       15.9994           0
   62022 WT3  7551 TIP3 H1   HT     0.417000        1.0080           0
   62023 WT3  7551 TIP3 H2   HT     0.417000        1.0080           0
   62024 WT3  7552 TIP3 OH2  OT    -0.834000       15.9994           0
   62025 WT3  7552 TIP3 H1   HT     0.417000        1.0080           0
   62026 WT3  7552 TIP3 H2   HT     0.417000        1.0080           0
   62027 WT3  7553 TIP3 OH2  OT    -0.834000       15.9994           0
   62028 WT3  7553 TIP3 H1   HT     0.417000        1.0080           0
   62029 WT3  7553 TIP3 H2   HT     0.417000        1.0080           0
   62030 WT3  7557 TIP3 OH2  OT    -0.834000       15.9994           0
   62031 WT3  7557 TIP3 H1   HT     0.417000        1.0080           0
   62032 WT3  7557 TIP3 H2   HT     0.417000        1.0080           0
   62033 WT3  7559 TIP3 OH2  OT    -0.834000       15.9994           0
   62034 WT3  7559 TIP3 H1   HT     0.417000        1.0080           0
   62035 WT3  7559 TIP3 H2   HT     0.417000        1.0080           0
   62036 WT3  7561 TIP3 OH2  OT    -0.834000       15.9994           0
   62037 WT3  7561 TIP3 H1   HT     0.417000        1.0080           0
   62038 WT3  7561 TIP3 H2   HT     0.417000        1.0080           0
   62039 WT3  7563 TIP3 OH2  OT    -0.834000       15.9994           0
   62040 WT3  7563 TIP3 H1   HT     0.417000        1.0080           0
   62041 WT3  7563 TIP3 H2   HT     0.417000        1.0080           0
   62042 WT3  7564 TIP3 OH2  OT    -0.834000       15.9994           0
   62043 WT3  7564 TIP3 H1   HT     0.417000        1.0080           0
   62044 WT3  7564 TIP3 H2   HT     0.417000        1.0080           0
   62045 WT3  7565 TIP3 OH2  OT    -0.834000       15.9994           0
   62046 WT3  7565 TIP3 H1   HT     0.417000        1.0080           0
   62047 WT3  7565 TIP3 H2   HT     0.417000        1.0080           0
   62048 WT3  7567 TIP3 OH2  OT    -0.834000       15.9994           0
   62049 WT3  7567 TIP3 H1   HT     0.417000        1.0080           0
   62050 WT3  7567 TIP3 H2   HT     0.417000        1.0080           0
   62051 WT3  7569 TIP3 OH2  OT    -0.834000       15.9994           0
   62052 WT3  7569 TIP3 H1   HT     0.417000        1.0080           0
   62053 WT3  7569 TIP3 H2   HT     0.417000        1.0080           0
   62054 WT3  7570 TIP3 OH2  OT    -0.834000       15.9994           0
   62055 WT3  7570 TIP3 H1   HT     0.417000        1.0080           0
   62056 WT3  7570 TIP3 H2   HT     0.417000        1.0080           0
   62057 WT3  7571 TIP3 OH2  OT    -0.834000       15.9994           0
   62058 WT3  7571 TIP3 H1   HT     0.417000        1.0080           0
   62059 WT3  7571 TIP3 H2   HT     0.417000        1.0080           0
   62060 WT3  7572 TIP3 OH2  OT    -0.834000       15.9994           0
   62061 WT3  7572 TIP3 H1   HT     0.417000        1.0080           0
   62062 WT3  7572 TIP3 H2   HT     0.417000        1.0080           0
   62063 WT3  7573 TIP3 OH2  OT    -0.834000       15.9994           0
   62064 WT3  7573 TIP3 H1   HT     0.417000        1.0080           0
   62065 WT3  7573 TIP3 H2   HT     0.417000        1.0080           0
   62066 WT3  7574 TIP3 OH2  OT    -0.834000       15.9994           0
   62067 WT3  7574 TIP3 H1   HT     0.417000        1.0080           0
   62068 WT3  7574 TIP3 H2   HT     0.417000        1.0080           0
   62069 WT3  7576 TIP3 OH2  OT    -0.834000       15.9994           0
   62070 WT3  7576 TIP3 H1   HT     0.417000        1.0080           0
   62071 WT3  7576 TIP3 H2   HT     0.417000        1.0080           0
   62072 WT3  7584 TIP3 OH2  OT    -0.834000       15.9994           0
   62073 WT3  7584 TIP3 H1   HT     0.417000        1.0080           0
   62074 WT3  7584 TIP3 H2   HT     0.417000        1.0080           0
   62075 WT3  7586 TIP3 OH2  OT    -0.834000       15.9994           0
   62076 WT3  7586 TIP3 H1   HT     0.417000        1.0080           0
   62077 WT3  7586 TIP3 H2   HT     0.417000        1.0080           0
   62078 WT3  7587 TIP3 OH2  OT    -0.834000       15.9994           0
   62079 WT3  7587 TIP3 H1   HT     0.417000        1.0080           0
   62080 WT3  7587 TIP3 H2   HT     0.417000        1.0080           0
   62081 WT3  7590 TIP3 OH2  OT    -0.834000       15.9994           0
   62082 WT3  7590 TIP3 H1   HT     0.417000        1.0080           0
   62083 WT3  7590 TIP3 H2   HT     0.417000        1.0080           0
   62084 WT3  7592 TIP3 OH2  OT    -0.834000       15.9994           0
   62085 WT3  7592 TIP3 H1   HT     0.417000        1.0080           0
   62086 WT3  7592 TIP3 H2   HT     0.417000        1.0080           0
   62087 WT3  7596 TIP3 OH2  OT    -0.834000       15.9994           0
   62088 WT3  7596 TIP3 H1   HT     0.417000        1.0080           0
   62089 WT3  7596 TIP3 H2   HT     0.417000        1.0080           0
   62090 WT3  7597 TIP3 OH2  OT    -0.834000       15.9994           0
   62091 WT3  7597 TIP3 H1   HT     0.417000        1.0080           0
   62092 WT3  7597 TIP3 H2   HT     0.417000        1.0080           0
   62093 WT3  7602 TIP3 OH2  OT    -0.834000       15.9994           0
   62094 WT3  7602 TIP3 H1   HT     0.417000        1.0080           0
   62095 WT3  7602 TIP3 H2   HT     0.417000        1.0080           0
   62096 WT3  7603 TIP3 OH2  OT    -0.834000       15.9994           0
   62097 WT3  7603 TIP3 H1   HT     0.417000        1.0080           0
   62098 WT3  7603 TIP3 H2   HT     0.417000        1.0080           0
   62099 WT3  7605 TIP3 OH2  OT    -0.834000       15.9994           0
   62100 WT3  7605 TIP3 H1   HT     0.417000        1.0080           0
   62101 WT3  7605 TIP3 H2   HT     0.417000        1.0080           0
   62102 WT3  7606 TIP3 OH2  OT    -0.834000       15.9994           0
   62103 WT3  7606 TIP3 H1   HT     0.417000        1.0080           0
   62104 WT3  7606 TIP3 H2   HT     0.417000        1.0080           0
   62105 WT3  7608 TIP3 OH2  OT    -0.834000       15.9994           0
   62106 WT3  7608 TIP3 H1   HT     0.417000        1.0080           0
   62107 WT3  7608 TIP3 H2   HT     0.417000        1.0080           0
   62108 WT3  7609 TIP3 OH2  OT    -0.834000       15.9994           0
   62109 WT3  7609 TIP3 H1   HT     0.417000        1.0080           0
   62110 WT3  7609 TIP3 H2   HT     0.417000        1.0080           0
   62111 WT3  7610 TIP3 OH2  OT    -0.834000       15.9994           0
   62112 WT3  7610 TIP3 H1   HT     0.417000        1.0080           0
   62113 WT3  7610 TIP3 H2   HT     0.417000        1.0080           0
   62114 WT3  7611 TIP3 OH2  OT    -0.834000       15.9994           0
   62115 WT3  7611 TIP3 H1   HT     0.417000        1.0080           0
   62116 WT3  7611 TIP3 H2   HT     0.417000        1.0080           0
   62117 WT3  7612 TIP3 OH2  OT    -0.834000       15.9994           0
   62118 WT3  7612 TIP3 H1   HT     0.417000        1.0080           0
   62119 WT3  7612 TIP3 H2   HT     0.417000        1.0080           0
   62120 WT3  7613 TIP3 OH2  OT    -0.834000       15.9994           0
   62121 WT3  7613 TIP3 H1   HT     0.417000        1.0080           0
   62122 WT3  7613 TIP3 H2   HT     0.417000        1.0080           0
   62123 WT3  7615 TIP3 OH2  OT    -0.834000       15.9994           0
   62124 WT3  7615 TIP3 H1   HT     0.417000        1.0080           0
   62125 WT3  7615 TIP3 H2   HT     0.417000        1.0080           0
   62126 WT3  7616 TIP3 OH2  OT    -0.834000       15.9994           0
   62127 WT3  7616 TIP3 H1   HT     0.417000        1.0080           0
   62128 WT3  7616 TIP3 H2   HT     0.417000        1.0080           0
   62129 WT3  7617 TIP3 OH2  OT    -0.834000       15.9994           0
   62130 WT3  7617 TIP3 H1   HT     0.417000        1.0080           0
   62131 WT3  7617 TIP3 H2   HT     0.417000        1.0080           0
   62132 WT3  7625 TIP3 OH2  OT    -0.834000       15.9994           0
   62133 WT3  7625 TIP3 H1   HT     0.417000        1.0080           0
   62134 WT3  7625 TIP3 H2   HT     0.417000        1.0080           0
   62135 WT3  7626 TIP3 OH2  OT    -0.834000       15.9994           0
   62136 WT3  7626 TIP3 H1   HT     0.417000        1.0080           0
   62137 WT3  7626 TIP3 H2   HT     0.417000        1.0080           0
   62138 WT3  7627 TIP3 OH2  OT    -0.834000       15.9994           0
   62139 WT3  7627 TIP3 H1   HT     0.417000        1.0080           0
   62140 WT3  7627 TIP3 H2   HT     0.417000        1.0080           0
   62141 WT3  7628 TIP3 OH2  OT    -0.834000       15.9994           0
   62142 WT3  7628 TIP3 H1   HT     0.417000        1.0080           0
   62143 WT3  7628 TIP3 H2   HT     0.417000        1.0080           0
   62144 WT3  7630 TIP3 OH2  OT    -0.834000       15.9994           0
   62145 WT3  7630 TIP3 H1   HT     0.417000        1.0080           0
   62146 WT3  7630 TIP3 H2   HT     0.417000        1.0080           0
   62147 WT3  7631 TIP3 OH2  OT    -0.834000       15.9994           0
   62148 WT3  7631 TIP3 H1   HT     0.417000        1.0080           0
   62149 WT3  7631 TIP3 H2   HT     0.417000        1.0080           0
   62150 WT3  7632 TIP3 OH2  OT    -0.834000       15.9994           0
   62151 WT3  7632 TIP3 H1   HT     0.417000        1.0080           0
   62152 WT3  7632 TIP3 H2   HT     0.417000        1.0080           0
   62153 WT3  7633 TIP3 OH2  OT    -0.834000       15.9994           0
   62154 WT3  7633 TIP3 H1   HT     0.417000        1.0080           0
   62155 WT3  7633 TIP3 H2   HT     0.417000        1.0080           0
   62156 WT3  7634 TIP3 OH2  OT    -0.834000       15.9994           0
   62157 WT3  7634 TIP3 H1   HT     0.417000        1.0080           0
   62158 WT3  7634 TIP3 H2   HT     0.417000        1.0080           0
   62159 WT3  7635 TIP3 OH2  OT    -0.834000       15.9994           0
   62160 WT3  7635 TIP3 H1   HT     0.417000        1.0080           0
   62161 WT3  7635 TIP3 H2   HT     0.417000        1.0080           0
   62162 WT3  7637 TIP3 OH2  OT    -0.834000       15.9994           0
   62163 WT3  7637 TIP3 H1   HT     0.417000        1.0080           0
   62164 WT3  7637 TIP3 H2   HT     0.417000        1.0080           0
   62165 WT3  7638 TIP3 OH2  OT    -0.834000       15.9994           0
   62166 WT3  7638 TIP3 H1   HT     0.417000        1.0080           0
   62167 WT3  7638 TIP3 H2   HT     0.417000        1.0080           0
   62168 WT3  7640 TIP3 OH2  OT    -0.834000       15.9994           0
   62169 WT3  7640 TIP3 H1   HT     0.417000        1.0080           0
   62170 WT3  7640 TIP3 H2   HT     0.417000        1.0080           0
   62171 WT3  7644 TIP3 OH2  OT    -0.834000       15.9994           0
   62172 WT3  7644 TIP3 H1   HT     0.417000        1.0080           0
   62173 WT3  7644 TIP3 H2   HT     0.417000        1.0080           0
   62174 WT3  7645 TIP3 OH2  OT    -0.834000       15.9994           0
   62175 WT3  7645 TIP3 H1   HT     0.417000        1.0080           0
   62176 WT3  7645 TIP3 H2   HT     0.417000        1.0080           0
   62177 WT3  7647 TIP3 OH2  OT    -0.834000       15.9994           0
   62178 WT3  7647 TIP3 H1   HT     0.417000        1.0080           0
   62179 WT3  7647 TIP3 H2   HT     0.417000        1.0080           0
   62180 WT3  7648 TIP3 OH2  OT    -0.834000       15.9994           0
   62181 WT3  7648 TIP3 H1   HT     0.417000        1.0080           0
   62182 WT3  7648 TIP3 H2   HT     0.417000        1.0080           0
   62183 WT3  7649 TIP3 OH2  OT    -0.834000       15.9994           0
   62184 WT3  7649 TIP3 H1   HT     0.417000        1.0080           0
   62185 WT3  7649 TIP3 H2   HT     0.417000        1.0080           0
   62186 WT3  7650 TIP3 OH2  OT    -0.834000       15.9994           0
   62187 WT3  7650 TIP3 H1   HT     0.417000        1.0080           0
   62188 WT3  7650 TIP3 H2   HT     0.417000        1.0080           0
   62189 WT3  7651 TIP3 OH2  OT    -0.834000       15.9994           0
   62190 WT3  7651 TIP3 H1   HT     0.417000        1.0080           0
   62191 WT3  7651 TIP3 H2   HT     0.417000        1.0080           0
   62192 WT3  7652 TIP3 OH2  OT    -0.834000       15.9994           0
   62193 WT3  7652 TIP3 H1   HT     0.417000        1.0080           0
   62194 WT3  7652 TIP3 H2   HT     0.417000        1.0080           0
   62195 WT3  7653 TIP3 OH2  OT    -0.834000       15.9994           0
   62196 WT3  7653 TIP3 H1   HT     0.417000        1.0080           0
   62197 WT3  7653 TIP3 H2   HT     0.417000        1.0080           0
   62198 WT3  7654 TIP3 OH2  OT    -0.834000       15.9994           0
   62199 WT3  7654 TIP3 H1   HT     0.417000        1.0080           0
   62200 WT3  7654 TIP3 H2   HT     0.417000        1.0080           0
   62201 WT3  7657 TIP3 OH2  OT    -0.834000       15.9994           0
   62202 WT3  7657 TIP3 H1   HT     0.417000        1.0080           0
   62203 WT3  7657 TIP3 H2   HT     0.417000        1.0080           0
   62204 WT3  7661 TIP3 OH2  OT    -0.834000       15.9994           0
   62205 WT3  7661 TIP3 H1   HT     0.417000        1.0080           0
   62206 WT3  7661 TIP3 H2   HT     0.417000        1.0080           0
   62207 WT3  7662 TIP3 OH2  OT    -0.834000       15.9994           0
   62208 WT3  7662 TIP3 H1   HT     0.417000        1.0080           0
   62209 WT3  7662 TIP3 H2   HT     0.417000        1.0080           0
   62210 WT3  7663 TIP3 OH2  OT    -0.834000       15.9994           0
   62211 WT3  7663 TIP3 H1   HT     0.417000        1.0080           0
   62212 WT3  7663 TIP3 H2   HT     0.417000        1.0080           0
   62213 WT3  7669 TIP3 OH2  OT    -0.834000       15.9994           0
   62214 WT3  7669 TIP3 H1   HT     0.417000        1.0080           0
   62215 WT3  7669 TIP3 H2   HT     0.417000        1.0080           0
   62216 WT3  7670 TIP3 OH2  OT    -0.834000       15.9994           0
   62217 WT3  7670 TIP3 H1   HT     0.417000        1.0080           0
   62218 WT3  7670 TIP3 H2   HT     0.417000        1.0080           0
   62219 WT3  7671 TIP3 OH2  OT    -0.834000       15.9994           0
   62220 WT3  7671 TIP3 H1   HT     0.417000        1.0080           0
   62221 WT3  7671 TIP3 H2   HT     0.417000        1.0080           0
   62222 WT3  7672 TIP3 OH2  OT    -0.834000       15.9994           0
   62223 WT3  7672 TIP3 H1   HT     0.417000        1.0080           0
   62224 WT3  7672 TIP3 H2   HT     0.417000        1.0080           0
   62225 WT3  7673 TIP3 OH2  OT    -0.834000       15.9994           0
   62226 WT3  7673 TIP3 H1   HT     0.417000        1.0080           0
   62227 WT3  7673 TIP3 H2   HT     0.417000        1.0080           0
   62228 WT3  7674 TIP3 OH2  OT    -0.834000       15.9994           0
   62229 WT3  7674 TIP3 H1   HT     0.417000        1.0080           0
   62230 WT3  7674 TIP3 H2   HT     0.417000        1.0080           0
   62231 WT3  7675 TIP3 OH2  OT    -0.834000       15.9994           0
   62232 WT3  7675 TIP3 H1   HT     0.417000        1.0080           0
   62233 WT3  7675 TIP3 H2   HT     0.417000        1.0080           0
   62234 WT3  7676 TIP3 OH2  OT    -0.834000       15.9994           0
   62235 WT3  7676 TIP3 H1   HT     0.417000        1.0080           0
   62236 WT3  7676 TIP3 H2   HT     0.417000        1.0080           0
   62237 WT3  7677 TIP3 OH2  OT    -0.834000       15.9994           0
   62238 WT3  7677 TIP3 H1   HT     0.417000        1.0080           0
   62239 WT3  7677 TIP3 H2   HT     0.417000        1.0080           0
   62240 WT3  7678 TIP3 OH2  OT    -0.834000       15.9994           0
   62241 WT3  7678 TIP3 H1   HT     0.417000        1.0080           0
   62242 WT3  7678 TIP3 H2   HT     0.417000        1.0080           0
   62243 WT3  7679 TIP3 OH2  OT    -0.834000       15.9994           0
   62244 WT3  7679 TIP3 H1   HT     0.417000        1.0080           0
   62245 WT3  7679 TIP3 H2   HT     0.417000        1.0080           0
   62246 WT3  7680 TIP3 OH2  OT    -0.834000       15.9994           0
   62247 WT3  7680 TIP3 H1   HT     0.417000        1.0080           0
   62248 WT3  7680 TIP3 H2   HT     0.417000        1.0080           0
   62249 WT3  7681 TIP3 OH2  OT    -0.834000       15.9994           0
   62250 WT3  7681 TIP3 H1   HT     0.417000        1.0080           0
   62251 WT3  7681 TIP3 H2   HT     0.417000        1.0080           0
   62252 WT3  7682 TIP3 OH2  OT    -0.834000       15.9994           0
   62253 WT3  7682 TIP3 H1   HT     0.417000        1.0080           0
   62254 WT3  7682 TIP3 H2   HT     0.417000        1.0080           0
   62255 WT3  7688 TIP3 OH2  OT    -0.834000       15.9994           0
   62256 WT3  7688 TIP3 H1   HT     0.417000        1.0080           0
   62257 WT3  7688 TIP3 H2   HT     0.417000        1.0080           0
   62258 WT3  7689 TIP3 OH2  OT    -0.834000       15.9994           0
   62259 WT3  7689 TIP3 H1   HT     0.417000        1.0080           0
   62260 WT3  7689 TIP3 H2   HT     0.417000        1.0080           0
   62261 WT3  7690 TIP3 OH2  OT    -0.834000       15.9994           0
   62262 WT3  7690 TIP3 H1   HT     0.417000        1.0080           0
   62263 WT3  7690 TIP3 H2   HT     0.417000        1.0080           0
   62264 WT3  7691 TIP3 OH2  OT    -0.834000       15.9994           0
   62265 WT3  7691 TIP3 H1   HT     0.417000        1.0080           0
   62266 WT3  7691 TIP3 H2   HT     0.417000        1.0080           0
   62267 WT3  7692 TIP3 OH2  OT    -0.834000       15.9994           0
   62268 WT3  7692 TIP3 H1   HT     0.417000        1.0080           0
   62269 WT3  7692 TIP3 H2   HT     0.417000        1.0080           0
   62270 WT3  7693 TIP3 OH2  OT    -0.834000       15.9994           0
   62271 WT3  7693 TIP3 H1   HT     0.417000        1.0080           0
   62272 WT3  7693 TIP3 H2   HT     0.417000        1.0080           0
   62273 WT3  7694 TIP3 OH2  OT    -0.834000       15.9994           0
   62274 WT3  7694 TIP3 H1   HT     0.417000        1.0080           0
   62275 WT3  7694 TIP3 H2   HT     0.417000        1.0080           0
   62276 WT3  7695 TIP3 OH2  OT    -0.834000       15.9994           0
   62277 WT3  7695 TIP3 H1   HT     0.417000        1.0080           0
   62278 WT3  7695 TIP3 H2   HT     0.417000        1.0080           0
   62279 WT3  7696 TIP3 OH2  OT    -0.834000       15.9994           0
   62280 WT3  7696 TIP3 H1   HT     0.417000        1.0080           0
   62281 WT3  7696 TIP3 H2   HT     0.417000        1.0080           0
   62282 WT3  7697 TIP3 OH2  OT    -0.834000       15.9994           0
   62283 WT3  7697 TIP3 H1   HT     0.417000        1.0080           0
   62284 WT3  7697 TIP3 H2   HT     0.417000        1.0080           0
   62285 WT3  7698 TIP3 OH2  OT    -0.834000       15.9994           0
   62286 WT3  7698 TIP3 H1   HT     0.417000        1.0080           0
   62287 WT3  7698 TIP3 H2   HT     0.417000        1.0080           0
   62288 WT3  7700 TIP3 OH2  OT    -0.834000       15.9994           0
   62289 WT3  7700 TIP3 H1   HT     0.417000        1.0080           0
   62290 WT3  7700 TIP3 H2   HT     0.417000        1.0080           0
   62291 WT3  7701 TIP3 OH2  OT    -0.834000       15.9994           0
   62292 WT3  7701 TIP3 H1   HT     0.417000        1.0080           0
   62293 WT3  7701 TIP3 H2   HT     0.417000        1.0080           0
   62294 WT3  7702 TIP3 OH2  OT    -0.834000       15.9994           0
   62295 WT3  7702 TIP3 H1   HT     0.417000        1.0080           0
   62296 WT3  7702 TIP3 H2   HT     0.417000        1.0080           0
   62297 WT3  7705 TIP3 OH2  OT    -0.834000       15.9994           0
   62298 WT3  7705 TIP3 H1   HT     0.417000        1.0080           0
   62299 WT3  7705 TIP3 H2   HT     0.417000        1.0080           0
   62300 WT3  7706 TIP3 OH2  OT    -0.834000       15.9994           0
   62301 WT3  7706 TIP3 H1   HT     0.417000        1.0080           0
   62302 WT3  7706 TIP3 H2   HT     0.417000        1.0080           0
   62303 WT3  7707 TIP3 OH2  OT    -0.834000       15.9994           0
   62304 WT3  7707 TIP3 H1   HT     0.417000        1.0080           0
   62305 WT3  7707 TIP3 H2   HT     0.417000        1.0080           0
   62306 WT3  7708 TIP3 OH2  OT    -0.834000       15.9994           0
   62307 WT3  7708 TIP3 H1   HT     0.417000        1.0080           0
   62308 WT3  7708 TIP3 H2   HT     0.417000        1.0080           0
   62309 WT3  7712 TIP3 OH2  OT    -0.834000       15.9994           0
   62310 WT3  7712 TIP3 H1   HT     0.417000        1.0080           0
   62311 WT3  7712 TIP3 H2   HT     0.417000        1.0080           0
   62312 WT3  7713 TIP3 OH2  OT    -0.834000       15.9994           0
   62313 WT3  7713 TIP3 H1   HT     0.417000        1.0080           0
   62314 WT3  7713 TIP3 H2   HT     0.417000        1.0080           0
   62315 WT3  7714 TIP3 OH2  OT    -0.834000       15.9994           0
   62316 WT3  7714 TIP3 H1   HT     0.417000        1.0080           0
   62317 WT3  7714 TIP3 H2   HT     0.417000        1.0080           0
   62318 WT3  7715 TIP3 OH2  OT    -0.834000       15.9994           0
   62319 WT3  7715 TIP3 H1   HT     0.417000        1.0080           0
   62320 WT3  7715 TIP3 H2   HT     0.417000        1.0080           0
   62321 WT3  7717 TIP3 OH2  OT    -0.834000       15.9994           0
   62322 WT3  7717 TIP3 H1   HT     0.417000        1.0080           0
   62323 WT3  7717 TIP3 H2   HT     0.417000        1.0080           0
   62324 WT3  7718 TIP3 OH2  OT    -0.834000       15.9994           0
   62325 WT3  7718 TIP3 H1   HT     0.417000        1.0080           0
   62326 WT3  7718 TIP3 H2   HT     0.417000        1.0080           0
   62327 WT3  7720 TIP3 OH2  OT    -0.834000       15.9994           0
   62328 WT3  7720 TIP3 H1   HT     0.417000        1.0080           0
   62329 WT3  7720 TIP3 H2   HT     0.417000        1.0080           0
   62330 WT3  7721 TIP3 OH2  OT    -0.834000       15.9994           0
   62331 WT3  7721 TIP3 H1   HT     0.417000        1.0080           0
   62332 WT3  7721 TIP3 H2   HT     0.417000        1.0080           0
   62333 WT3  7730 TIP3 OH2  OT    -0.834000       15.9994           0
   62334 WT3  7730 TIP3 H1   HT     0.417000        1.0080           0
   62335 WT3  7730 TIP3 H2   HT     0.417000        1.0080           0
   62336 WT3  7731 TIP3 OH2  OT    -0.834000       15.9994           0
   62337 WT3  7731 TIP3 H1   HT     0.417000        1.0080           0
   62338 WT3  7731 TIP3 H2   HT     0.417000        1.0080           0
   62339 WT3  7732 TIP3 OH2  OT    -0.834000       15.9994           0
   62340 WT3  7732 TIP3 H1   HT     0.417000        1.0080           0
   62341 WT3  7732 TIP3 H2   HT     0.417000        1.0080           0
   62342 WT3  7733 TIP3 OH2  OT    -0.834000       15.9994           0
   62343 WT3  7733 TIP3 H1   HT     0.417000        1.0080           0
   62344 WT3  7733 TIP3 H2   HT     0.417000        1.0080           0
   62345 WT3  7735 TIP3 OH2  OT    -0.834000       15.9994           0
   62346 WT3  7735 TIP3 H1   HT     0.417000        1.0080           0
   62347 WT3  7735 TIP3 H2   HT     0.417000        1.0080           0
   62348 WT3  7736 TIP3 OH2  OT    -0.834000       15.9994           0
   62349 WT3  7736 TIP3 H1   HT     0.417000        1.0080           0
   62350 WT3  7736 TIP3 H2   HT     0.417000        1.0080           0
   62351 WT3  7737 TIP3 OH2  OT    -0.834000       15.9994           0
   62352 WT3  7737 TIP3 H1   HT     0.417000        1.0080           0
   62353 WT3  7737 TIP3 H2   HT     0.417000        1.0080           0
   62354 WT3  7739 TIP3 OH2  OT    -0.834000       15.9994           0
   62355 WT3  7739 TIP3 H1   HT     0.417000        1.0080           0
   62356 WT3  7739 TIP3 H2   HT     0.417000        1.0080           0
   62357 WT3  7740 TIP3 OH2  OT    -0.834000       15.9994           0
   62358 WT3  7740 TIP3 H1   HT     0.417000        1.0080           0
   62359 WT3  7740 TIP3 H2   HT     0.417000        1.0080           0
   62360 WT3  7741 TIP3 OH2  OT    -0.834000       15.9994           0
   62361 WT3  7741 TIP3 H1   HT     0.417000        1.0080           0
   62362 WT3  7741 TIP3 H2   HT     0.417000        1.0080           0
   62363 WT3  7742 TIP3 OH2  OT    -0.834000       15.9994           0
   62364 WT3  7742 TIP3 H1   HT     0.417000        1.0080           0
   62365 WT3  7742 TIP3 H2   HT     0.417000        1.0080           0
   62366 WT3  7744 TIP3 OH2  OT    -0.834000       15.9994           0
   62367 WT3  7744 TIP3 H1   HT     0.417000        1.0080           0
   62368 WT3  7744 TIP3 H2   HT     0.417000        1.0080           0
   62369 WT3  7750 TIP3 OH2  OT    -0.834000       15.9994           0
   62370 WT3  7750 TIP3 H1   HT     0.417000        1.0080           0
   62371 WT3  7750 TIP3 H2   HT     0.417000        1.0080           0
   62372 WT3  7751 TIP3 OH2  OT    -0.834000       15.9994           0
   62373 WT3  7751 TIP3 H1   HT     0.417000        1.0080           0
   62374 WT3  7751 TIP3 H2   HT     0.417000        1.0080           0
   62375 WT3  7752 TIP3 OH2  OT    -0.834000       15.9994           0
   62376 WT3  7752 TIP3 H1   HT     0.417000        1.0080           0
   62377 WT3  7752 TIP3 H2   HT     0.417000        1.0080           0
   62378 WT3  7753 TIP3 OH2  OT    -0.834000       15.9994           0
   62379 WT3  7753 TIP3 H1   HT     0.417000        1.0080           0
   62380 WT3  7753 TIP3 H2   HT     0.417000        1.0080           0
   62381 WT3  7754 TIP3 OH2  OT    -0.834000       15.9994           0
   62382 WT3  7754 TIP3 H1   HT     0.417000        1.0080           0
   62383 WT3  7754 TIP3 H2   HT     0.417000        1.0080           0
   62384 WT3  7755 TIP3 OH2  OT    -0.834000       15.9994           0
   62385 WT3  7755 TIP3 H1   HT     0.417000        1.0080           0
   62386 WT3  7755 TIP3 H2   HT     0.417000        1.0080           0
   62387 WT3  7756 TIP3 OH2  OT    -0.834000       15.9994           0
   62388 WT3  7756 TIP3 H1   HT     0.417000        1.0080           0
   62389 WT3  7756 TIP3 H2   HT     0.417000        1.0080           0
   62390 WT3  7757 TIP3 OH2  OT    -0.834000       15.9994           0
   62391 WT3  7757 TIP3 H1   HT     0.417000        1.0080           0
   62392 WT3  7757 TIP3 H2   HT     0.417000        1.0080           0
   62393 WT3  7758 TIP3 OH2  OT    -0.834000       15.9994           0
   62394 WT3  7758 TIP3 H1   HT     0.417000        1.0080           0
   62395 WT3  7758 TIP3 H2   HT     0.417000        1.0080           0
   62396 WT3  7759 TIP3 OH2  OT    -0.834000       15.9994           0
   62397 WT3  7759 TIP3 H1   HT     0.417000        1.0080           0
   62398 WT3  7759 TIP3 H2   HT     0.417000        1.0080           0
   62399 WT3  7760 TIP3 OH2  OT    -0.834000       15.9994           0
   62400 WT3  7760 TIP3 H1   HT     0.417000        1.0080           0
   62401 WT3  7760 TIP3 H2   HT     0.417000        1.0080           0
   62402 WT3  7761 TIP3 OH2  OT    -0.834000       15.9994           0
   62403 WT3  7761 TIP3 H1   HT     0.417000        1.0080           0
   62404 WT3  7761 TIP3 H2   HT     0.417000        1.0080           0
   62405 WT3  7762 TIP3 OH2  OT    -0.834000       15.9994           0
   62406 WT3  7762 TIP3 H1   HT     0.417000        1.0080           0
   62407 WT3  7762 TIP3 H2   HT     0.417000        1.0080           0
   62408 WT3  7763 TIP3 OH2  OT    -0.834000       15.9994           0
   62409 WT3  7763 TIP3 H1   HT     0.417000        1.0080           0
   62410 WT3  7763 TIP3 H2   HT     0.417000        1.0080           0
   62411 WT3  7764 TIP3 OH2  OT    -0.834000       15.9994           0
   62412 WT3  7764 TIP3 H1   HT     0.417000        1.0080           0
   62413 WT3  7764 TIP3 H2   HT     0.417000        1.0080           0
   62414 WT3  7771 TIP3 OH2  OT    -0.834000       15.9994           0
   62415 WT3  7771 TIP3 H1   HT     0.417000        1.0080           0
   62416 WT3  7771 TIP3 H2   HT     0.417000        1.0080           0
   62417 WT3  7772 TIP3 OH2  OT    -0.834000       15.9994           0
   62418 WT3  7772 TIP3 H1   HT     0.417000        1.0080           0
   62419 WT3  7772 TIP3 H2   HT     0.417000        1.0080           0
   62420 WT3  7773 TIP3 OH2  OT    -0.834000       15.9994           0
   62421 WT3  7773 TIP3 H1   HT     0.417000        1.0080           0
   62422 WT3  7773 TIP3 H2   HT     0.417000        1.0080           0
   62423 WT3  7774 TIP3 OH2  OT    -0.834000       15.9994           0
   62424 WT3  7774 TIP3 H1   HT     0.417000        1.0080           0
   62425 WT3  7774 TIP3 H2   HT     0.417000        1.0080           0
   62426 WT3  7775 TIP3 OH2  OT    -0.834000       15.9994           0
   62427 WT3  7775 TIP3 H1   HT     0.417000        1.0080           0
   62428 WT3  7775 TIP3 H2   HT     0.417000        1.0080           0
   62429 WT3  7777 TIP3 OH2  OT    -0.834000       15.9994           0
   62430 WT3  7777 TIP3 H1   HT     0.417000        1.0080           0
   62431 WT3  7777 TIP3 H2   HT     0.417000        1.0080           0
   62432 WT3  7778 TIP3 OH2  OT    -0.834000       15.9994           0
   62433 WT3  7778 TIP3 H1   HT     0.417000        1.0080           0
   62434 WT3  7778 TIP3 H2   HT     0.417000        1.0080           0
   62435 WT3  7779 TIP3 OH2  OT    -0.834000       15.9994           0
   62436 WT3  7779 TIP3 H1   HT     0.417000        1.0080           0
   62437 WT3  7779 TIP3 H2   HT     0.417000        1.0080           0
   62438 WT3  7780 TIP3 OH2  OT    -0.834000       15.9994           0
   62439 WT3  7780 TIP3 H1   HT     0.417000        1.0080           0
   62440 WT3  7780 TIP3 H2   HT     0.417000        1.0080           0
   62441 WT3  7781 TIP3 OH2  OT    -0.834000       15.9994           0
   62442 WT3  7781 TIP3 H1   HT     0.417000        1.0080           0
   62443 WT3  7781 TIP3 H2   HT     0.417000        1.0080           0
   62444 WT3  7782 TIP3 OH2  OT    -0.834000       15.9994           0
   62445 WT3  7782 TIP3 H1   HT     0.417000        1.0080           0
   62446 WT3  7782 TIP3 H2   HT     0.417000        1.0080           0
   62447 WT3  7783 TIP3 OH2  OT    -0.834000       15.9994           0
   62448 WT3  7783 TIP3 H1   HT     0.417000        1.0080           0
   62449 WT3  7783 TIP3 H2   HT     0.417000        1.0080           0
   62450 WT3  7784 TIP3 OH2  OT    -0.834000       15.9994           0
   62451 WT3  7784 TIP3 H1   HT     0.417000        1.0080           0
   62452 WT3  7784 TIP3 H2   HT     0.417000        1.0080           0
   62453 WT3  7789 TIP3 OH2  OT    -0.834000       15.9994           0
   62454 WT3  7789 TIP3 H1   HT     0.417000        1.0080           0
   62455 WT3  7789 TIP3 H2   HT     0.417000        1.0080           0
   62456 WT3  7790 TIP3 OH2  OT    -0.834000       15.9994           0
   62457 WT3  7790 TIP3 H1   HT     0.417000        1.0080           0
   62458 WT3  7790 TIP3 H2   HT     0.417000        1.0080           0
   62459 WT3  7793 TIP3 OH2  OT    -0.834000       15.9994           0
   62460 WT3  7793 TIP3 H1   HT     0.417000        1.0080           0
   62461 WT3  7793 TIP3 H2   HT     0.417000        1.0080           0
   62462 WT3  7795 TIP3 OH2  OT    -0.834000       15.9994           0
   62463 WT3  7795 TIP3 H1   HT     0.417000        1.0080           0
   62464 WT3  7795 TIP3 H2   HT     0.417000        1.0080           0
   62465 WT3  7796 TIP3 OH2  OT    -0.834000       15.9994           0
   62466 WT3  7796 TIP3 H1   HT     0.417000        1.0080           0
   62467 WT3  7796 TIP3 H2   HT     0.417000        1.0080           0
   62468 WT3  7797 TIP3 OH2  OT    -0.834000       15.9994           0
   62469 WT3  7797 TIP3 H1   HT     0.417000        1.0080           0
   62470 WT3  7797 TIP3 H2   HT     0.417000        1.0080           0
   62471 WT3  7798 TIP3 OH2  OT    -0.834000       15.9994           0
   62472 WT3  7798 TIP3 H1   HT     0.417000        1.0080           0
   62473 WT3  7798 TIP3 H2   HT     0.417000        1.0080           0
   62474 WT3  7799 TIP3 OH2  OT    -0.834000       15.9994           0
   62475 WT3  7799 TIP3 H1   HT     0.417000        1.0080           0
   62476 WT3  7799 TIP3 H2   HT     0.417000        1.0080           0
   62477 WT3  7800 TIP3 OH2  OT    -0.834000       15.9994           0
   62478 WT3  7800 TIP3 H1   HT     0.417000        1.0080           0
   62479 WT3  7800 TIP3 H2   HT     0.417000        1.0080           0
   62480 WT3  7801 TIP3 OH2  OT    -0.834000       15.9994           0
   62481 WT3  7801 TIP3 H1   HT     0.417000        1.0080           0
   62482 WT3  7801 TIP3 H2   HT     0.417000        1.0080           0
   62483 WT3  7802 TIP3 OH2  OT    -0.834000       15.9994           0
   62484 WT3  7802 TIP3 H1   HT     0.417000        1.0080           0
   62485 WT3  7802 TIP3 H2   HT     0.417000        1.0080           0
   62486 WT3  7803 TIP3 OH2  OT    -0.834000       15.9994           0
   62487 WT3  7803 TIP3 H1   HT     0.417000        1.0080           0
   62488 WT3  7803 TIP3 H2   HT     0.417000        1.0080           0
   62489 WT3  7804 TIP3 OH2  OT    -0.834000       15.9994           0
   62490 WT3  7804 TIP3 H1   HT     0.417000        1.0080           0
   62491 WT3  7804 TIP3 H2   HT     0.417000        1.0080           0
   62492 WT3  7806 TIP3 OH2  OT    -0.834000       15.9994           0
   62493 WT3  7806 TIP3 H1   HT     0.417000        1.0080           0
   62494 WT3  7806 TIP3 H2   HT     0.417000        1.0080           0
   62495 WT3  7810 TIP3 OH2  OT    -0.834000       15.9994           0
   62496 WT3  7810 TIP3 H1   HT     0.417000        1.0080           0
   62497 WT3  7810 TIP3 H2   HT     0.417000        1.0080           0
   62498 WT3  7811 TIP3 OH2  OT    -0.834000       15.9994           0
   62499 WT3  7811 TIP3 H1   HT     0.417000        1.0080           0
   62500 WT3  7811 TIP3 H2   HT     0.417000        1.0080           0
   62501 WT3  7813 TIP3 OH2  OT    -0.834000       15.9994           0
   62502 WT3  7813 TIP3 H1   HT     0.417000        1.0080           0
   62503 WT3  7813 TIP3 H2   HT     0.417000        1.0080           0
   62504 WT3  7815 TIP3 OH2  OT    -0.834000       15.9994           0
   62505 WT3  7815 TIP3 H1   HT     0.417000        1.0080           0
   62506 WT3  7815 TIP3 H2   HT     0.417000        1.0080           0
   62507 WT3  7816 TIP3 OH2  OT    -0.834000       15.9994           0
   62508 WT3  7816 TIP3 H1   HT     0.417000        1.0080           0
   62509 WT3  7816 TIP3 H2   HT     0.417000        1.0080           0
   62510 WT3  7817 TIP3 OH2  OT    -0.834000       15.9994           0
   62511 WT3  7817 TIP3 H1   HT     0.417000        1.0080           0
   62512 WT3  7817 TIP3 H2   HT     0.417000        1.0080           0
   62513 WT3  7818 TIP3 OH2  OT    -0.834000       15.9994           0
   62514 WT3  7818 TIP3 H1   HT     0.417000        1.0080           0
   62515 WT3  7818 TIP3 H2   HT     0.417000        1.0080           0
   62516 WT3  7819 TIP3 OH2  OT    -0.834000       15.9994           0
   62517 WT3  7819 TIP3 H1   HT     0.417000        1.0080           0
   62518 WT3  7819 TIP3 H2   HT     0.417000        1.0080           0
   62519 WT3  7821 TIP3 OH2  OT    -0.834000       15.9994           0
   62520 WT3  7821 TIP3 H1   HT     0.417000        1.0080           0
   62521 WT3  7821 TIP3 H2   HT     0.417000        1.0080           0
   62522 WT3  7822 TIP3 OH2  OT    -0.834000       15.9994           0
   62523 WT3  7822 TIP3 H1   HT     0.417000        1.0080           0
   62524 WT3  7822 TIP3 H2   HT     0.417000        1.0080           0
   62525 WT3  7823 TIP3 OH2  OT    -0.834000       15.9994           0
   62526 WT3  7823 TIP3 H1   HT     0.417000        1.0080           0
   62527 WT3  7823 TIP3 H2   HT     0.417000        1.0080           0
   62528 WT3  7824 TIP3 OH2  OT    -0.834000       15.9994           0
   62529 WT3  7824 TIP3 H1   HT     0.417000        1.0080           0
   62530 WT3  7824 TIP3 H2   HT     0.417000        1.0080           0
   62531 WT3  7825 TIP3 OH2  OT    -0.834000       15.9994           0
   62532 WT3  7825 TIP3 H1   HT     0.417000        1.0080           0
   62533 WT3  7825 TIP3 H2   HT     0.417000        1.0080           0
   62534 WT3  7828 TIP3 OH2  OT    -0.834000       15.9994           0
   62535 WT3  7828 TIP3 H1   HT     0.417000        1.0080           0
   62536 WT3  7828 TIP3 H2   HT     0.417000        1.0080           0
   62537 WT3  7831 TIP3 OH2  OT    -0.834000       15.9994           0
   62538 WT3  7831 TIP3 H1   HT     0.417000        1.0080           0
   62539 WT3  7831 TIP3 H2   HT     0.417000        1.0080           0
   62540 WT3  7832 TIP3 OH2  OT    -0.834000       15.9994           0
   62541 WT3  7832 TIP3 H1   HT     0.417000        1.0080           0
   62542 WT3  7832 TIP3 H2   HT     0.417000        1.0080           0
   62543 WT3  7833 TIP3 OH2  OT    -0.834000       15.9994           0
   62544 WT3  7833 TIP3 H1   HT     0.417000        1.0080           0
   62545 WT3  7833 TIP3 H2   HT     0.417000        1.0080           0
   62546 WT3  7836 TIP3 OH2  OT    -0.834000       15.9994           0
   62547 WT3  7836 TIP3 H1   HT     0.417000        1.0080           0
   62548 WT3  7836 TIP3 H2   HT     0.417000        1.0080           0
   62549 WT3  7837 TIP3 OH2  OT    -0.834000       15.9994           0
   62550 WT3  7837 TIP3 H1   HT     0.417000        1.0080           0
   62551 WT3  7837 TIP3 H2   HT     0.417000        1.0080           0
   62552 WT3  7838 TIP3 OH2  OT    -0.834000       15.9994           0
   62553 WT3  7838 TIP3 H1   HT     0.417000        1.0080           0
   62554 WT3  7838 TIP3 H2   HT     0.417000        1.0080           0
   62555 WT3  7839 TIP3 OH2  OT    -0.834000       15.9994           0
   62556 WT3  7839 TIP3 H1   HT     0.417000        1.0080           0
   62557 WT3  7839 TIP3 H2   HT     0.417000        1.0080           0
   62558 WT3  7840 TIP3 OH2  OT    -0.834000       15.9994           0
   62559 WT3  7840 TIP3 H1   HT     0.417000        1.0080           0
   62560 WT3  7840 TIP3 H2   HT     0.417000        1.0080           0
   62561 WT3  7841 TIP3 OH2  OT    -0.834000       15.9994           0
   62562 WT3  7841 TIP3 H1   HT     0.417000        1.0080           0
   62563 WT3  7841 TIP3 H2   HT     0.417000        1.0080           0
   62564 WT3  7842 TIP3 OH2  OT    -0.834000       15.9994           0
   62565 WT3  7842 TIP3 H1   HT     0.417000        1.0080           0
   62566 WT3  7842 TIP3 H2   HT     0.417000        1.0080           0
   62567 WT3  7843 TIP3 OH2  OT    -0.834000       15.9994           0
   62568 WT3  7843 TIP3 H1   HT     0.417000        1.0080           0
   62569 WT3  7843 TIP3 H2   HT     0.417000        1.0080           0
   62570 WT3  7844 TIP3 OH2  OT    -0.834000       15.9994           0
   62571 WT3  7844 TIP3 H1   HT     0.417000        1.0080           0
   62572 WT3  7844 TIP3 H2   HT     0.417000        1.0080           0
   62573 WT3  7845 TIP3 OH2  OT    -0.834000       15.9994           0
   62574 WT3  7845 TIP3 H1   HT     0.417000        1.0080           0
   62575 WT3  7845 TIP3 H2   HT     0.417000        1.0080           0
   62576 WT3  7846 TIP3 OH2  OT    -0.834000       15.9994           0
   62577 WT3  7846 TIP3 H1   HT     0.417000        1.0080           0
   62578 WT3  7846 TIP3 H2   HT     0.417000        1.0080           0
   62579 WT3  7848 TIP3 OH2  OT    -0.834000       15.9994           0
   62580 WT3  7848 TIP3 H1   HT     0.417000        1.0080           0
   62581 WT3  7848 TIP3 H2   HT     0.417000        1.0080           0
   62582 WT3  7853 TIP3 OH2  OT    -0.834000       15.9994           0
   62583 WT3  7853 TIP3 H1   HT     0.417000        1.0080           0
   62584 WT3  7853 TIP3 H2   HT     0.417000        1.0080           0
   62585 WT3  7854 TIP3 OH2  OT    -0.834000       15.9994           0
   62586 WT3  7854 TIP3 H1   HT     0.417000        1.0080           0
   62587 WT3  7854 TIP3 H2   HT     0.417000        1.0080           0
   62588 WT3  7856 TIP3 OH2  OT    -0.834000       15.9994           0
   62589 WT3  7856 TIP3 H1   HT     0.417000        1.0080           0
   62590 WT3  7856 TIP3 H2   HT     0.417000        1.0080           0
   62591 WT3  7857 TIP3 OH2  OT    -0.834000       15.9994           0
   62592 WT3  7857 TIP3 H1   HT     0.417000        1.0080           0
   62593 WT3  7857 TIP3 H2   HT     0.417000        1.0080           0
   62594 WT3  7858 TIP3 OH2  OT    -0.834000       15.9994           0
   62595 WT3  7858 TIP3 H1   HT     0.417000        1.0080           0
   62596 WT3  7858 TIP3 H2   HT     0.417000        1.0080           0
   62597 WT3  7859 TIP3 OH2  OT    -0.834000       15.9994           0
   62598 WT3  7859 TIP3 H1   HT     0.417000        1.0080           0
   62599 WT3  7859 TIP3 H2   HT     0.417000        1.0080           0
   62600 WT3  7861 TIP3 OH2  OT    -0.834000       15.9994           0
   62601 WT3  7861 TIP3 H1   HT     0.417000        1.0080           0
   62602 WT3  7861 TIP3 H2   HT     0.417000        1.0080           0
   62603 WT3  7862 TIP3 OH2  OT    -0.834000       15.9994           0
   62604 WT3  7862 TIP3 H1   HT     0.417000        1.0080           0
   62605 WT3  7862 TIP3 H2   HT     0.417000        1.0080           0
   62606 WT3  7863 TIP3 OH2  OT    -0.834000       15.9994           0
   62607 WT3  7863 TIP3 H1   HT     0.417000        1.0080           0
   62608 WT3  7863 TIP3 H2   HT     0.417000        1.0080           0
   62609 WT3  7864 TIP3 OH2  OT    -0.834000       15.9994           0
   62610 WT3  7864 TIP3 H1   HT     0.417000        1.0080           0
   62611 WT3  7864 TIP3 H2   HT     0.417000        1.0080           0
   62612 WT3  7865 TIP3 OH2  OT    -0.834000       15.9994           0
   62613 WT3  7865 TIP3 H1   HT     0.417000        1.0080           0
   62614 WT3  7865 TIP3 H2   HT     0.417000        1.0080           0
   62615 WT3  7866 TIP3 OH2  OT    -0.834000       15.9994           0
   62616 WT3  7866 TIP3 H1   HT     0.417000        1.0080           0
   62617 WT3  7866 TIP3 H2   HT     0.417000        1.0080           0
   62618 WT3  7868 TIP3 OH2  OT    -0.834000       15.9994           0
   62619 WT3  7868 TIP3 H1   HT     0.417000        1.0080           0
   62620 WT3  7868 TIP3 H2   HT     0.417000        1.0080           0
   62621 WT3  7869 TIP3 OH2  OT    -0.834000       15.9994           0
   62622 WT3  7869 TIP3 H1   HT     0.417000        1.0080           0
   62623 WT3  7869 TIP3 H2   HT     0.417000        1.0080           0
   62624 WT3  7872 TIP3 OH2  OT    -0.834000       15.9994           0
   62625 WT3  7872 TIP3 H1   HT     0.417000        1.0080           0
   62626 WT3  7872 TIP3 H2   HT     0.417000        1.0080           0
   62627 WT3  7873 TIP3 OH2  OT    -0.834000       15.9994           0
   62628 WT3  7873 TIP3 H1   HT     0.417000        1.0080           0
   62629 WT3  7873 TIP3 H2   HT     0.417000        1.0080           0
   62630 WT3  7875 TIP3 OH2  OT    -0.834000       15.9994           0
   62631 WT3  7875 TIP3 H1   HT     0.417000        1.0080           0
   62632 WT3  7875 TIP3 H2   HT     0.417000        1.0080           0
   62633 WT3  7878 TIP3 OH2  OT    -0.834000       15.9994           0
   62634 WT3  7878 TIP3 H1   HT     0.417000        1.0080           0
   62635 WT3  7878 TIP3 H2   HT     0.417000        1.0080           0
   62636 WT3  7879 TIP3 OH2  OT    -0.834000       15.9994           0
   62637 WT3  7879 TIP3 H1   HT     0.417000        1.0080           0
   62638 WT3  7879 TIP3 H2   HT     0.417000        1.0080           0
   62639 WT3  7880 TIP3 OH2  OT    -0.834000       15.9994           0
   62640 WT3  7880 TIP3 H1   HT     0.417000        1.0080           0
   62641 WT3  7880 TIP3 H2   HT     0.417000        1.0080           0
   62642 WT3  7881 TIP3 OH2  OT    -0.834000       15.9994           0
   62643 WT3  7881 TIP3 H1   HT     0.417000        1.0080           0
   62644 WT3  7881 TIP3 H2   HT     0.417000        1.0080           0
   62645 WT3  7882 TIP3 OH2  OT    -0.834000       15.9994           0
   62646 WT3  7882 TIP3 H1   HT     0.417000        1.0080           0
   62647 WT3  7882 TIP3 H2   HT     0.417000        1.0080           0
   62648 WT3  7883 TIP3 OH2  OT    -0.834000       15.9994           0
   62649 WT3  7883 TIP3 H1   HT     0.417000        1.0080           0
   62650 WT3  7883 TIP3 H2   HT     0.417000        1.0080           0
   62651 WT3  7884 TIP3 OH2  OT    -0.834000       15.9994           0
   62652 WT3  7884 TIP3 H1   HT     0.417000        1.0080           0
   62653 WT3  7884 TIP3 H2   HT     0.417000        1.0080           0
   62654 WT3  7885 TIP3 OH2  OT    -0.834000       15.9994           0
   62655 WT3  7885 TIP3 H1   HT     0.417000        1.0080           0
   62656 WT3  7885 TIP3 H2   HT     0.417000        1.0080           0
   62657 WT3  7886 TIP3 OH2  OT    -0.834000       15.9994           0
   62658 WT3  7886 TIP3 H1   HT     0.417000        1.0080           0
   62659 WT3  7886 TIP3 H2   HT     0.417000        1.0080           0
   62660 WT3  7887 TIP3 OH2  OT    -0.834000       15.9994           0
   62661 WT3  7887 TIP3 H1   HT     0.417000        1.0080           0
   62662 WT3  7887 TIP3 H2   HT     0.417000        1.0080           0
   62663 WT3  7888 TIP3 OH2  OT    -0.834000       15.9994           0
   62664 WT3  7888 TIP3 H1   HT     0.417000        1.0080           0
   62665 WT3  7888 TIP3 H2   HT     0.417000        1.0080           0
   62666 WT3  7889 TIP3 OH2  OT    -0.834000       15.9994           0
   62667 WT3  7889 TIP3 H1   HT     0.417000        1.0080           0
   62668 WT3  7889 TIP3 H2   HT     0.417000        1.0080           0
   62669 WT3  7890 TIP3 OH2  OT    -0.834000       15.9994           0
   62670 WT3  7890 TIP3 H1   HT     0.417000        1.0080           0
   62671 WT3  7890 TIP3 H2   HT     0.417000        1.0080           0
   62672 WT3  7895 TIP3 OH2  OT    -0.834000       15.9994           0
   62673 WT3  7895 TIP3 H1   HT     0.417000        1.0080           0
   62674 WT3  7895 TIP3 H2   HT     0.417000        1.0080           0
   62675 WT3  7896 TIP3 OH2  OT    -0.834000       15.9994           0
   62676 WT3  7896 TIP3 H1   HT     0.417000        1.0080           0
   62677 WT3  7896 TIP3 H2   HT     0.417000        1.0080           0
   62678 WT3  7899 TIP3 OH2  OT    -0.834000       15.9994           0
   62679 WT3  7899 TIP3 H1   HT     0.417000        1.0080           0
   62680 WT3  7899 TIP3 H2   HT     0.417000        1.0080           0
   62681 WT3  7900 TIP3 OH2  OT    -0.834000       15.9994           0
   62682 WT3  7900 TIP3 H1   HT     0.417000        1.0080           0
   62683 WT3  7900 TIP3 H2   HT     0.417000        1.0080           0
   62684 WT3  7902 TIP3 OH2  OT    -0.834000       15.9994           0
   62685 WT3  7902 TIP3 H1   HT     0.417000        1.0080           0
   62686 WT3  7902 TIP3 H2   HT     0.417000        1.0080           0
   62687 WT3  7903 TIP3 OH2  OT    -0.834000       15.9994           0
   62688 WT3  7903 TIP3 H1   HT     0.417000        1.0080           0
   62689 WT3  7903 TIP3 H2   HT     0.417000        1.0080           0
   62690 WT3  7905 TIP3 OH2  OT    -0.834000       15.9994           0
   62691 WT3  7905 TIP3 H1   HT     0.417000        1.0080           0
   62692 WT3  7905 TIP3 H2   HT     0.417000        1.0080           0
   62693 WT3  7906 TIP3 OH2  OT    -0.834000       15.9994           0
   62694 WT3  7906 TIP3 H1   HT     0.417000        1.0080           0
   62695 WT3  7906 TIP3 H2   HT     0.417000        1.0080           0
   62696 WT3  7907 TIP3 OH2  OT    -0.834000       15.9994           0
   62697 WT3  7907 TIP3 H1   HT     0.417000        1.0080           0
   62698 WT3  7907 TIP3 H2   HT     0.417000        1.0080           0
   62699 WT3  7908 TIP3 OH2  OT    -0.834000       15.9994           0
   62700 WT3  7908 TIP3 H1   HT     0.417000        1.0080           0
   62701 WT3  7908 TIP3 H2   HT     0.417000        1.0080           0
   62702 WT3  7909 TIP3 OH2  OT    -0.834000       15.9994           0
   62703 WT3  7909 TIP3 H1   HT     0.417000        1.0080           0
   62704 WT3  7909 TIP3 H2   HT     0.417000        1.0080           0
   62705 WT3  7910 TIP3 OH2  OT    -0.834000       15.9994           0
   62706 WT3  7910 TIP3 H1   HT     0.417000        1.0080           0
   62707 WT3  7910 TIP3 H2   HT     0.417000        1.0080           0
   62708 WT3  7919 TIP3 OH2  OT    -0.834000       15.9994           0
   62709 WT3  7919 TIP3 H1   HT     0.417000        1.0080           0
   62710 WT3  7919 TIP3 H2   HT     0.417000        1.0080           0
   62711 WT3  7920 TIP3 OH2  OT    -0.834000       15.9994           0
   62712 WT3  7920 TIP3 H1   HT     0.417000        1.0080           0
   62713 WT3  7920 TIP3 H2   HT     0.417000        1.0080           0
   62714 WT3  7921 TIP3 OH2  OT    -0.834000       15.9994           0
   62715 WT3  7921 TIP3 H1   HT     0.417000        1.0080           0
   62716 WT3  7921 TIP3 H2   HT     0.417000        1.0080           0
   62717 WT3  7922 TIP3 OH2  OT    -0.834000       15.9994           0
   62718 WT3  7922 TIP3 H1   HT     0.417000        1.0080           0
   62719 WT3  7922 TIP3 H2   HT     0.417000        1.0080           0
   62720 WT3  7923 TIP3 OH2  OT    -0.834000       15.9994           0
   62721 WT3  7923 TIP3 H1   HT     0.417000        1.0080           0
   62722 WT3  7923 TIP3 H2   HT     0.417000        1.0080           0
   62723 WT3  7924 TIP3 OH2  OT    -0.834000       15.9994           0
   62724 WT3  7924 TIP3 H1   HT     0.417000        1.0080           0
   62725 WT3  7924 TIP3 H2   HT     0.417000        1.0080           0
   62726 WT3  7925 TIP3 OH2  OT    -0.834000       15.9994           0
   62727 WT3  7925 TIP3 H1   HT     0.417000        1.0080           0
   62728 WT3  7925 TIP3 H2   HT     0.417000        1.0080           0
   62729 WT3  7926 TIP3 OH2  OT    -0.834000       15.9994           0
   62730 WT3  7926 TIP3 H1   HT     0.417000        1.0080           0
   62731 WT3  7926 TIP3 H2   HT     0.417000        1.0080           0
   62732 WT3  7927 TIP3 OH2  OT    -0.834000       15.9994           0
   62733 WT3  7927 TIP3 H1   HT     0.417000        1.0080           0
   62734 WT3  7927 TIP3 H2   HT     0.417000        1.0080           0
   62735 WT3  7928 TIP3 OH2  OT    -0.834000       15.9994           0
   62736 WT3  7928 TIP3 H1   HT     0.417000        1.0080           0
   62737 WT3  7928 TIP3 H2   HT     0.417000        1.0080           0
   62738 WT3  7930 TIP3 OH2  OT    -0.834000       15.9994           0
   62739 WT3  7930 TIP3 H1   HT     0.417000        1.0080           0
   62740 WT3  7930 TIP3 H2   HT     0.417000        1.0080           0
   62741 WT3  7931 TIP3 OH2  OT    -0.834000       15.9994           0
   62742 WT3  7931 TIP3 H1   HT     0.417000        1.0080           0
   62743 WT3  7931 TIP3 H2   HT     0.417000        1.0080           0
   62744 WT3  7938 TIP3 OH2  OT    -0.834000       15.9994           0
   62745 WT3  7938 TIP3 H1   HT     0.417000        1.0080           0
   62746 WT3  7938 TIP3 H2   HT     0.417000        1.0080           0
   62747 WT3  7939 TIP3 OH2  OT    -0.834000       15.9994           0
   62748 WT3  7939 TIP3 H1   HT     0.417000        1.0080           0
   62749 WT3  7939 TIP3 H2   HT     0.417000        1.0080           0
   62750 WT3  7940 TIP3 OH2  OT    -0.834000       15.9994           0
   62751 WT3  7940 TIP3 H1   HT     0.417000        1.0080           0
   62752 WT3  7940 TIP3 H2   HT     0.417000        1.0080           0
   62753 WT3  7941 TIP3 OH2  OT    -0.834000       15.9994           0
   62754 WT3  7941 TIP3 H1   HT     0.417000        1.0080           0
   62755 WT3  7941 TIP3 H2   HT     0.417000        1.0080           0
   62756 WT3  7942 TIP3 OH2  OT    -0.834000       15.9994           0
   62757 WT3  7942 TIP3 H1   HT     0.417000        1.0080           0
   62758 WT3  7942 TIP3 H2   HT     0.417000        1.0080           0
   62759 WT3  7943 TIP3 OH2  OT    -0.834000       15.9994           0
   62760 WT3  7943 TIP3 H1   HT     0.417000        1.0080           0
   62761 WT3  7943 TIP3 H2   HT     0.417000        1.0080           0
   62762 WT3  7944 TIP3 OH2  OT    -0.834000       15.9994           0
   62763 WT3  7944 TIP3 H1   HT     0.417000        1.0080           0
   62764 WT3  7944 TIP3 H2   HT     0.417000        1.0080           0
   62765 WT3  7945 TIP3 OH2  OT    -0.834000       15.9994           0
   62766 WT3  7945 TIP3 H1   HT     0.417000        1.0080           0
   62767 WT3  7945 TIP3 H2   HT     0.417000        1.0080           0
   62768 WT3  7947 TIP3 OH2  OT    -0.834000       15.9994           0
   62769 WT3  7947 TIP3 H1   HT     0.417000        1.0080           0
   62770 WT3  7947 TIP3 H2   HT     0.417000        1.0080           0
   62771 WT3  7949 TIP3 OH2  OT    -0.834000       15.9994           0
   62772 WT3  7949 TIP3 H1   HT     0.417000        1.0080           0
   62773 WT3  7949 TIP3 H2   HT     0.417000        1.0080           0
   62774 WT3  7950 TIP3 OH2  OT    -0.834000       15.9994           0
   62775 WT3  7950 TIP3 H1   HT     0.417000        1.0080           0
   62776 WT3  7950 TIP3 H2   HT     0.417000        1.0080           0
   62777 WT3  7951 TIP3 OH2  OT    -0.834000       15.9994           0
   62778 WT3  7951 TIP3 H1   HT     0.417000        1.0080           0
   62779 WT3  7951 TIP3 H2   HT     0.417000        1.0080           0
   62780 WT3  7952 TIP3 OH2  OT    -0.834000       15.9994           0
   62781 WT3  7952 TIP3 H1   HT     0.417000        1.0080           0
   62782 WT3  7952 TIP3 H2   HT     0.417000        1.0080           0
   62783 WT3  7956 TIP3 OH2  OT    -0.834000       15.9994           0
   62784 WT3  7956 TIP3 H1   HT     0.417000        1.0080           0
   62785 WT3  7956 TIP3 H2   HT     0.417000        1.0080           0
   62786 WT3  7959 TIP3 OH2  OT    -0.834000       15.9994           0
   62787 WT3  7959 TIP3 H1   HT     0.417000        1.0080           0
   62788 WT3  7959 TIP3 H2   HT     0.417000        1.0080           0
   62789 WT3  7962 TIP3 OH2  OT    -0.834000       15.9994           0
   62790 WT3  7962 TIP3 H1   HT     0.417000        1.0080           0
   62791 WT3  7962 TIP3 H2   HT     0.417000        1.0080           0
   62792 WT3  7964 TIP3 OH2  OT    -0.834000       15.9994           0
   62793 WT3  7964 TIP3 H1   HT     0.417000        1.0080           0
   62794 WT3  7964 TIP3 H2   HT     0.417000        1.0080           0
   62795 WT3  7966 TIP3 OH2  OT    -0.834000       15.9994           0
   62796 WT3  7966 TIP3 H1   HT     0.417000        1.0080           0
   62797 WT3  7966 TIP3 H2   HT     0.417000        1.0080           0
   62798 WT3  7967 TIP3 OH2  OT    -0.834000       15.9994           0
   62799 WT3  7967 TIP3 H1   HT     0.417000        1.0080           0
   62800 WT3  7967 TIP3 H2   HT     0.417000        1.0080           0
   62801 WT3  7968 TIP3 OH2  OT    -0.834000       15.9994           0
   62802 WT3  7968 TIP3 H1   HT     0.417000        1.0080           0
   62803 WT3  7968 TIP3 H2   HT     0.417000        1.0080           0
   62804 WT3  7969 TIP3 OH2  OT    -0.834000       15.9994           0
   62805 WT3  7969 TIP3 H1   HT     0.417000        1.0080           0
   62806 WT3  7969 TIP3 H2   HT     0.417000        1.0080           0
   62807 WT3  7970 TIP3 OH2  OT    -0.834000       15.9994           0
   62808 WT3  7970 TIP3 H1   HT     0.417000        1.0080           0
   62809 WT3  7970 TIP3 H2   HT     0.417000        1.0080           0
   62810 WT3  7971 TIP3 OH2  OT    -0.834000       15.9994           0
   62811 WT3  7971 TIP3 H1   HT     0.417000        1.0080           0
   62812 WT3  7971 TIP3 H2   HT     0.417000        1.0080           0
   62813 WT3  7972 TIP3 OH2  OT    -0.834000       15.9994           0
   62814 WT3  7972 TIP3 H1   HT     0.417000        1.0080           0
   62815 WT3  7972 TIP3 H2   HT     0.417000        1.0080           0
   62816 WT3  7973 TIP3 OH2  OT    -0.834000       15.9994           0
   62817 WT3  7973 TIP3 H1   HT     0.417000        1.0080           0
   62818 WT3  7973 TIP3 H2   HT     0.417000        1.0080           0
   62819 WT3  7974 TIP3 OH2  OT    -0.834000       15.9994           0
   62820 WT3  7974 TIP3 H1   HT     0.417000        1.0080           0
   62821 WT3  7974 TIP3 H2   HT     0.417000        1.0080           0
   62822 WT3  7975 TIP3 OH2  OT    -0.834000       15.9994           0
   62823 WT3  7975 TIP3 H1   HT     0.417000        1.0080           0
   62824 WT3  7975 TIP3 H2   HT     0.417000        1.0080           0
   62825 WT3  7976 TIP3 OH2  OT    -0.834000       15.9994           0
   62826 WT3  7976 TIP3 H1   HT     0.417000        1.0080           0
   62827 WT3  7976 TIP3 H2   HT     0.417000        1.0080           0
   62828 WT3  7982 TIP3 OH2  OT    -0.834000       15.9994           0
   62829 WT3  7982 TIP3 H1   HT     0.417000        1.0080           0
   62830 WT3  7982 TIP3 H2   HT     0.417000        1.0080           0
   62831 WT3  7983 TIP3 OH2  OT    -0.834000       15.9994           0
   62832 WT3  7983 TIP3 H1   HT     0.417000        1.0080           0
   62833 WT3  7983 TIP3 H2   HT     0.417000        1.0080           0
   62834 WT3  7985 TIP3 OH2  OT    -0.834000       15.9994           0
   62835 WT3  7985 TIP3 H1   HT     0.417000        1.0080           0
   62836 WT3  7985 TIP3 H2   HT     0.417000        1.0080           0
   62837 WT3  7986 TIP3 OH2  OT    -0.834000       15.9994           0
   62838 WT3  7986 TIP3 H1   HT     0.417000        1.0080           0
   62839 WT3  7986 TIP3 H2   HT     0.417000        1.0080           0
   62840 WT3  7987 TIP3 OH2  OT    -0.834000       15.9994           0
   62841 WT3  7987 TIP3 H1   HT     0.417000        1.0080           0
   62842 WT3  7987 TIP3 H2   HT     0.417000        1.0080           0
   62843 WT3  7988 TIP3 OH2  OT    -0.834000       15.9994           0
   62844 WT3  7988 TIP3 H1   HT     0.417000        1.0080           0
   62845 WT3  7988 TIP3 H2   HT     0.417000        1.0080           0
   62846 WT3  7989 TIP3 OH2  OT    -0.834000       15.9994           0
   62847 WT3  7989 TIP3 H1   HT     0.417000        1.0080           0
   62848 WT3  7989 TIP3 H2   HT     0.417000        1.0080           0
   62849 WT3  7990 TIP3 OH2  OT    -0.834000       15.9994           0
   62850 WT3  7990 TIP3 H1   HT     0.417000        1.0080           0
   62851 WT3  7990 TIP3 H2   HT     0.417000        1.0080           0
   62852 WT3  7991 TIP3 OH2  OT    -0.834000       15.9994           0
   62853 WT3  7991 TIP3 H1   HT     0.417000        1.0080           0
   62854 WT3  7991 TIP3 H2   HT     0.417000        1.0080           0
   62855 WT3  7993 TIP3 OH2  OT    -0.834000       15.9994           0
   62856 WT3  7993 TIP3 H1   HT     0.417000        1.0080           0
   62857 WT3  7993 TIP3 H2   HT     0.417000        1.0080           0
   62858 WT3  7995 TIP3 OH2  OT    -0.834000       15.9994           0
   62859 WT3  7995 TIP3 H1   HT     0.417000        1.0080           0
   62860 WT3  7995 TIP3 H2   HT     0.417000        1.0080           0
   62861 WT3  7996 TIP3 OH2  OT    -0.834000       15.9994           0
   62862 WT3  7996 TIP3 H1   HT     0.417000        1.0080           0
   62863 WT3  7996 TIP3 H2   HT     0.417000        1.0080           0
   62864 WT3  8000 TIP3 OH2  OT    -0.834000       15.9994           0
   62865 WT3  8000 TIP3 H1   HT     0.417000        1.0080           0
   62866 WT3  8000 TIP3 H2   HT     0.417000        1.0080           0
   62867 WT3  8003 TIP3 OH2  OT    -0.834000       15.9994           0
   62868 WT3  8003 TIP3 H1   HT     0.417000        1.0080           0
   62869 WT3  8003 TIP3 H2   HT     0.417000        1.0080           0
   62870 WT3  8004 TIP3 OH2  OT    -0.834000       15.9994           0
   62871 WT3  8004 TIP3 H1   HT     0.417000        1.0080           0
   62872 WT3  8004 TIP3 H2   HT     0.417000        1.0080           0
   62873 WT3  8005 TIP3 OH2  OT    -0.834000       15.9994           0
   62874 WT3  8005 TIP3 H1   HT     0.417000        1.0080           0
   62875 WT3  8005 TIP3 H2   HT     0.417000        1.0080           0
   62876 WT3  8007 TIP3 OH2  OT    -0.834000       15.9994           0
   62877 WT3  8007 TIP3 H1   HT     0.417000        1.0080           0
   62878 WT3  8007 TIP3 H2   HT     0.417000        1.0080           0
   62879 WT3  8008 TIP3 OH2  OT    -0.834000       15.9994           0
   62880 WT3  8008 TIP3 H1   HT     0.417000        1.0080           0
   62881 WT3  8008 TIP3 H2   HT     0.417000        1.0080           0
   62882 WT3  8010 TIP3 OH2  OT    -0.834000       15.9994           0
   62883 WT3  8010 TIP3 H1   HT     0.417000        1.0080           0
   62884 WT3  8010 TIP3 H2   HT     0.417000        1.0080           0
   62885 WT3  8011 TIP3 OH2  OT    -0.834000       15.9994           0
   62886 WT3  8011 TIP3 H1   HT     0.417000        1.0080           0
   62887 WT3  8011 TIP3 H2   HT     0.417000        1.0080           0
   62888 WT3  8012 TIP3 OH2  OT    -0.834000       15.9994           0
   62889 WT3  8012 TIP3 H1   HT     0.417000        1.0080           0
   62890 WT3  8012 TIP3 H2   HT     0.417000        1.0080           0
   62891 WT3  8013 TIP3 OH2  OT    -0.834000       15.9994           0
   62892 WT3  8013 TIP3 H1   HT     0.417000        1.0080           0
   62893 WT3  8013 TIP3 H2   HT     0.417000        1.0080           0
   62894 WT3  8014 TIP3 OH2  OT    -0.834000       15.9994           0
   62895 WT3  8014 TIP3 H1   HT     0.417000        1.0080           0
   62896 WT3  8014 TIP3 H2   HT     0.417000        1.0080           0
   62897 WT3  8015 TIP3 OH2  OT    -0.834000       15.9994           0
   62898 WT3  8015 TIP3 H1   HT     0.417000        1.0080           0
   62899 WT3  8015 TIP3 H2   HT     0.417000        1.0080           0
   62900 WT3  8016 TIP3 OH2  OT    -0.834000       15.9994           0
   62901 WT3  8016 TIP3 H1   HT     0.417000        1.0080           0
   62902 WT3  8016 TIP3 H2   HT     0.417000        1.0080           0
   62903 WT3  8019 TIP3 OH2  OT    -0.834000       15.9994           0
   62904 WT3  8019 TIP3 H1   HT     0.417000        1.0080           0
   62905 WT3  8019 TIP3 H2   HT     0.417000        1.0080           0
   62906 WT3  8020 TIP3 OH2  OT    -0.834000       15.9994           0
   62907 WT3  8020 TIP3 H1   HT     0.417000        1.0080           0
   62908 WT3  8020 TIP3 H2   HT     0.417000        1.0080           0
   62909 WT3  8022 TIP3 OH2  OT    -0.834000       15.9994           0
   62910 WT3  8022 TIP3 H1   HT     0.417000        1.0080           0
   62911 WT3  8022 TIP3 H2   HT     0.417000        1.0080           0
   62912 WT3  8023 TIP3 OH2  OT    -0.834000       15.9994           0
   62913 WT3  8023 TIP3 H1   HT     0.417000        1.0080           0
   62914 WT3  8023 TIP3 H2   HT     0.417000        1.0080           0
   62915 WT3  8024 TIP3 OH2  OT    -0.834000       15.9994           0
   62916 WT3  8024 TIP3 H1   HT     0.417000        1.0080           0
   62917 WT3  8024 TIP3 H2   HT     0.417000        1.0080           0
   62918 WT3  8027 TIP3 OH2  OT    -0.834000       15.9994           0
   62919 WT3  8027 TIP3 H1   HT     0.417000        1.0080           0
   62920 WT3  8027 TIP3 H2   HT     0.417000        1.0080           0
   62921 WT3  8029 TIP3 OH2  OT    -0.834000       15.9994           0
   62922 WT3  8029 TIP3 H1   HT     0.417000        1.0080           0
   62923 WT3  8029 TIP3 H2   HT     0.417000        1.0080           0
   62924 WT3  8030 TIP3 OH2  OT    -0.834000       15.9994           0
   62925 WT3  8030 TIP3 H1   HT     0.417000        1.0080           0
   62926 WT3  8030 TIP3 H2   HT     0.417000        1.0080           0
   62927 WT3  8032 TIP3 OH2  OT    -0.834000       15.9994           0
   62928 WT3  8032 TIP3 H1   HT     0.417000        1.0080           0
   62929 WT3  8032 TIP3 H2   HT     0.417000        1.0080           0
   62930 WT3  8033 TIP3 OH2  OT    -0.834000       15.9994           0
   62931 WT3  8033 TIP3 H1   HT     0.417000        1.0080           0
   62932 WT3  8033 TIP3 H2   HT     0.417000        1.0080           0
   62933 WT3  8034 TIP3 OH2  OT    -0.834000       15.9994           0
   62934 WT3  8034 TIP3 H1   HT     0.417000        1.0080           0
   62935 WT3  8034 TIP3 H2   HT     0.417000        1.0080           0
   62936 WT3  8035 TIP3 OH2  OT    -0.834000       15.9994           0
   62937 WT3  8035 TIP3 H1   HT     0.417000        1.0080           0
   62938 WT3  8035 TIP3 H2   HT     0.417000        1.0080           0
   62939 WT3  8036 TIP3 OH2  OT    -0.834000       15.9994           0
   62940 WT3  8036 TIP3 H1   HT     0.417000        1.0080           0
   62941 WT3  8036 TIP3 H2   HT     0.417000        1.0080           0
   62942 WT3  8037 TIP3 OH2  OT    -0.834000       15.9994           0
   62943 WT3  8037 TIP3 H1   HT     0.417000        1.0080           0
   62944 WT3  8037 TIP3 H2   HT     0.417000        1.0080           0
   62945 WT3  8040 TIP3 OH2  OT    -0.834000       15.9994           0
   62946 WT3  8040 TIP3 H1   HT     0.417000        1.0080           0
   62947 WT3  8040 TIP3 H2   HT     0.417000        1.0080           0
   62948 WT3  8041 TIP3 OH2  OT    -0.834000       15.9994           0
   62949 WT3  8041 TIP3 H1   HT     0.417000        1.0080           0
   62950 WT3  8041 TIP3 H2   HT     0.417000        1.0080           0
   62951 WT3  8045 TIP3 OH2  OT    -0.834000       15.9994           0
   62952 WT3  8045 TIP3 H1   HT     0.417000        1.0080           0
   62953 WT3  8045 TIP3 H2   HT     0.417000        1.0080           0
   62954 WT3  8046 TIP3 OH2  OT    -0.834000       15.9994           0
   62955 WT3  8046 TIP3 H1   HT     0.417000        1.0080           0
   62956 WT3  8046 TIP3 H2   HT     0.417000        1.0080           0
   62957 WT3  8048 TIP3 OH2  OT    -0.834000       15.9994           0
   62958 WT3  8048 TIP3 H1   HT     0.417000        1.0080           0
   62959 WT3  8048 TIP3 H2   HT     0.417000        1.0080           0
   62960 WT3  8049 TIP3 OH2  OT    -0.834000       15.9994           0
   62961 WT3  8049 TIP3 H1   HT     0.417000        1.0080           0
   62962 WT3  8049 TIP3 H2   HT     0.417000        1.0080           0
   62963 WT3  8050 TIP3 OH2  OT    -0.834000       15.9994           0
   62964 WT3  8050 TIP3 H1   HT     0.417000        1.0080           0
   62965 WT3  8050 TIP3 H2   HT     0.417000        1.0080           0
   62966 WT3  8051 TIP3 OH2  OT    -0.834000       15.9994           0
   62967 WT3  8051 TIP3 H1   HT     0.417000        1.0080           0
   62968 WT3  8051 TIP3 H2   HT     0.417000        1.0080           0
   62969 WT3  8053 TIP3 OH2  OT    -0.834000       15.9994           0
   62970 WT3  8053 TIP3 H1   HT     0.417000        1.0080           0
   62971 WT3  8053 TIP3 H2   HT     0.417000        1.0080           0
   62972 WT3  8054 TIP3 OH2  OT    -0.834000       15.9994           0
   62973 WT3  8054 TIP3 H1   HT     0.417000        1.0080           0
   62974 WT3  8054 TIP3 H2   HT     0.417000        1.0080           0
   62975 WT3  8055 TIP3 OH2  OT    -0.834000       15.9994           0
   62976 WT3  8055 TIP3 H1   HT     0.417000        1.0080           0
   62977 WT3  8055 TIP3 H2   HT     0.417000        1.0080           0
   62978 WT3  8056 TIP3 OH2  OT    -0.834000       15.9994           0
   62979 WT3  8056 TIP3 H1   HT     0.417000        1.0080           0
   62980 WT3  8056 TIP3 H2   HT     0.417000        1.0080           0
   62981 WT3  8057 TIP3 OH2  OT    -0.834000       15.9994           0
   62982 WT3  8057 TIP3 H1   HT     0.417000        1.0080           0
   62983 WT3  8057 TIP3 H2   HT     0.417000        1.0080           0
   62984 WT3  8058 TIP3 OH2  OT    -0.834000       15.9994           0
   62985 WT3  8058 TIP3 H1   HT     0.417000        1.0080           0
   62986 WT3  8058 TIP3 H2   HT     0.417000        1.0080           0
   62987 WT3  8061 TIP3 OH2  OT    -0.834000       15.9994           0
   62988 WT3  8061 TIP3 H1   HT     0.417000        1.0080           0
   62989 WT3  8061 TIP3 H2   HT     0.417000        1.0080           0
   62990 WT3  8063 TIP3 OH2  OT    -0.834000       15.9994           0
   62991 WT3  8063 TIP3 H1   HT     0.417000        1.0080           0
   62992 WT3  8063 TIP3 H2   HT     0.417000        1.0080           0
   62993 WT3  8064 TIP3 OH2  OT    -0.834000       15.9994           0
   62994 WT3  8064 TIP3 H1   HT     0.417000        1.0080           0
   62995 WT3  8064 TIP3 H2   HT     0.417000        1.0080           0
   62996 WT3  8067 TIP3 OH2  OT    -0.834000       15.9994           0
   62997 WT3  8067 TIP3 H1   HT     0.417000        1.0080           0
   62998 WT3  8067 TIP3 H2   HT     0.417000        1.0080           0
   62999 WT3  8068 TIP3 OH2  OT    -0.834000       15.9994           0
   63000 WT3  8068 TIP3 H1   HT     0.417000        1.0080           0
   63001 WT3  8068 TIP3 H2   HT     0.417000        1.0080           0
   63002 WT3  8069 TIP3 OH2  OT    -0.834000       15.9994           0
   63003 WT3  8069 TIP3 H1   HT     0.417000        1.0080           0
   63004 WT3  8069 TIP3 H2   HT     0.417000        1.0080           0
   63005 WT3  8070 TIP3 OH2  OT    -0.834000       15.9994           0
   63006 WT3  8070 TIP3 H1   HT     0.417000        1.0080           0
   63007 WT3  8070 TIP3 H2   HT     0.417000        1.0080           0
   63008 WT3  8071 TIP3 OH2  OT    -0.834000       15.9994           0
   63009 WT3  8071 TIP3 H1   HT     0.417000        1.0080           0
   63010 WT3  8071 TIP3 H2   HT     0.417000        1.0080           0
   63011 WT3  8072 TIP3 OH2  OT    -0.834000       15.9994           0
   63012 WT3  8072 TIP3 H1   HT     0.417000        1.0080           0
   63013 WT3  8072 TIP3 H2   HT     0.417000        1.0080           0
   63014 WT3  8073 TIP3 OH2  OT    -0.834000       15.9994           0
   63015 WT3  8073 TIP3 H1   HT     0.417000        1.0080           0
   63016 WT3  8073 TIP3 H2   HT     0.417000        1.0080           0
   63017 WT3  8075 TIP3 OH2  OT    -0.834000       15.9994           0
   63018 WT3  8075 TIP3 H1   HT     0.417000        1.0080           0
   63019 WT3  8075 TIP3 H2   HT     0.417000        1.0080           0
   63020 WT3  8076 TIP3 OH2  OT    -0.834000       15.9994           0
   63021 WT3  8076 TIP3 H1   HT     0.417000        1.0080           0
   63022 WT3  8076 TIP3 H2   HT     0.417000        1.0080           0
   63023 WT3  8078 TIP3 OH2  OT    -0.834000       15.9994           0
   63024 WT3  8078 TIP3 H1   HT     0.417000        1.0080           0
   63025 WT3  8078 TIP3 H2   HT     0.417000        1.0080           0
   63026 WT3  8081 TIP3 OH2  OT    -0.834000       15.9994           0
   63027 WT3  8081 TIP3 H1   HT     0.417000        1.0080           0
   63028 WT3  8081 TIP3 H2   HT     0.417000        1.0080           0
   63029 WT3  8085 TIP3 OH2  OT    -0.834000       15.9994           0
   63030 WT3  8085 TIP3 H1   HT     0.417000        1.0080           0
   63031 WT3  8085 TIP3 H2   HT     0.417000        1.0080           0
   63032 WT3  8087 TIP3 OH2  OT    -0.834000       15.9994           0
   63033 WT3  8087 TIP3 H1   HT     0.417000        1.0080           0
   63034 WT3  8087 TIP3 H2   HT     0.417000        1.0080           0
   63035 WT3  8088 TIP3 OH2  OT    -0.834000       15.9994           0
   63036 WT3  8088 TIP3 H1   HT     0.417000        1.0080           0
   63037 WT3  8088 TIP3 H2   HT     0.417000        1.0080           0
   63038 WT3  8089 TIP3 OH2  OT    -0.834000       15.9994           0
   63039 WT3  8089 TIP3 H1   HT     0.417000        1.0080           0
   63040 WT3  8089 TIP3 H2   HT     0.417000        1.0080           0
   63041 WT3  8091 TIP3 OH2  OT    -0.834000       15.9994           0
   63042 WT3  8091 TIP3 H1   HT     0.417000        1.0080           0
   63043 WT3  8091 TIP3 H2   HT     0.417000        1.0080           0
   63044 WT3  8092 TIP3 OH2  OT    -0.834000       15.9994           0
   63045 WT3  8092 TIP3 H1   HT     0.417000        1.0080           0
   63046 WT3  8092 TIP3 H2   HT     0.417000        1.0080           0
   63047 WT3  8093 TIP3 OH2  OT    -0.834000       15.9994           0
   63048 WT3  8093 TIP3 H1   HT     0.417000        1.0080           0
   63049 WT3  8093 TIP3 H2   HT     0.417000        1.0080           0
   63050 WT3  8094 TIP3 OH2  OT    -0.834000       15.9994           0
   63051 WT3  8094 TIP3 H1   HT     0.417000        1.0080           0
   63052 WT3  8094 TIP3 H2   HT     0.417000        1.0080           0
   63053 WT3  8095 TIP3 OH2  OT    -0.834000       15.9994           0
   63054 WT3  8095 TIP3 H1   HT     0.417000        1.0080           0
   63055 WT3  8095 TIP3 H2   HT     0.417000        1.0080           0
   63056 WT3  8096 TIP3 OH2  OT    -0.834000       15.9994           0
   63057 WT3  8096 TIP3 H1   HT     0.417000        1.0080           0
   63058 WT3  8096 TIP3 H2   HT     0.417000        1.0080           0
   63059 WT3  8097 TIP3 OH2  OT    -0.834000       15.9994           0
   63060 WT3  8097 TIP3 H1   HT     0.417000        1.0080           0
   63061 WT3  8097 TIP3 H2   HT     0.417000        1.0080           0
   63062 WT3  8098 TIP3 OH2  OT    -0.834000       15.9994           0
   63063 WT3  8098 TIP3 H1   HT     0.417000        1.0080           0
   63064 WT3  8098 TIP3 H2   HT     0.417000        1.0080           0
   63065 WT3  8099 TIP3 OH2  OT    -0.834000       15.9994           0
   63066 WT3  8099 TIP3 H1   HT     0.417000        1.0080           0
   63067 WT3  8099 TIP3 H2   HT     0.417000        1.0080           0
   63068 WT3  8103 TIP3 OH2  OT    -0.834000       15.9994           0
   63069 WT3  8103 TIP3 H1   HT     0.417000        1.0080           0
   63070 WT3  8103 TIP3 H2   HT     0.417000        1.0080           0
   63071 WT3  8104 TIP3 OH2  OT    -0.834000       15.9994           0
   63072 WT3  8104 TIP3 H1   HT     0.417000        1.0080           0
   63073 WT3  8104 TIP3 H2   HT     0.417000        1.0080           0
   63074 WT3  8106 TIP3 OH2  OT    -0.834000       15.9994           0
   63075 WT3  8106 TIP3 H1   HT     0.417000        1.0080           0
   63076 WT3  8106 TIP3 H2   HT     0.417000        1.0080           0
   63077 WT3  8109 TIP3 OH2  OT    -0.834000       15.9994           0
   63078 WT3  8109 TIP3 H1   HT     0.417000        1.0080           0
   63079 WT3  8109 TIP3 H2   HT     0.417000        1.0080           0
   63080 WT3  8110 TIP3 OH2  OT    -0.834000       15.9994           0
   63081 WT3  8110 TIP3 H1   HT     0.417000        1.0080           0
   63082 WT3  8110 TIP3 H2   HT     0.417000        1.0080           0
   63083 WT3  8111 TIP3 OH2  OT    -0.834000       15.9994           0
   63084 WT3  8111 TIP3 H1   HT     0.417000        1.0080           0
   63085 WT3  8111 TIP3 H2   HT     0.417000        1.0080           0
   63086 WT3  8112 TIP3 OH2  OT    -0.834000       15.9994           0
   63087 WT3  8112 TIP3 H1   HT     0.417000        1.0080           0
   63088 WT3  8112 TIP3 H2   HT     0.417000        1.0080           0
   63089 WT3  8114 TIP3 OH2  OT    -0.834000       15.9994           0
   63090 WT3  8114 TIP3 H1   HT     0.417000        1.0080           0
   63091 WT3  8114 TIP3 H2   HT     0.417000        1.0080           0
   63092 WT3  8116 TIP3 OH2  OT    -0.834000       15.9994           0
   63093 WT3  8116 TIP3 H1   HT     0.417000        1.0080           0
   63094 WT3  8116 TIP3 H2   HT     0.417000        1.0080           0
   63095 WT3  8117 TIP3 OH2  OT    -0.834000       15.9994           0
   63096 WT3  8117 TIP3 H1   HT     0.417000        1.0080           0
   63097 WT3  8117 TIP3 H2   HT     0.417000        1.0080           0
   63098 WT3  8118 TIP3 OH2  OT    -0.834000       15.9994           0
   63099 WT3  8118 TIP3 H1   HT     0.417000        1.0080           0
   63100 WT3  8118 TIP3 H2   HT     0.417000        1.0080           0
   63101 WT3  8119 TIP3 OH2  OT    -0.834000       15.9994           0
   63102 WT3  8119 TIP3 H1   HT     0.417000        1.0080           0
   63103 WT3  8119 TIP3 H2   HT     0.417000        1.0080           0
   63104 WT3  8120 TIP3 OH2  OT    -0.834000       15.9994           0
   63105 WT3  8120 TIP3 H1   HT     0.417000        1.0080           0
   63106 WT3  8120 TIP3 H2   HT     0.417000        1.0080           0
   63107 WT3  8126 TIP3 OH2  OT    -0.834000       15.9994           0
   63108 WT3  8126 TIP3 H1   HT     0.417000        1.0080           0
   63109 WT3  8126 TIP3 H2   HT     0.417000        1.0080           0
   63110 WT3  8129 TIP3 OH2  OT    -0.834000       15.9994           0
   63111 WT3  8129 TIP3 H1   HT     0.417000        1.0080           0
   63112 WT3  8129 TIP3 H2   HT     0.417000        1.0080           0
   63113 WT3  8131 TIP3 OH2  OT    -0.834000       15.9994           0
   63114 WT3  8131 TIP3 H1   HT     0.417000        1.0080           0
   63115 WT3  8131 TIP3 H2   HT     0.417000        1.0080           0
   63116 WT3  8132 TIP3 OH2  OT    -0.834000       15.9994           0
   63117 WT3  8132 TIP3 H1   HT     0.417000        1.0080           0
   63118 WT3  8132 TIP3 H2   HT     0.417000        1.0080           0
   63119 WT3  8133 TIP3 OH2  OT    -0.834000       15.9994           0
   63120 WT3  8133 TIP3 H1   HT     0.417000        1.0080           0
   63121 WT3  8133 TIP3 H2   HT     0.417000        1.0080           0
   63122 WT3  8134 TIP3 OH2  OT    -0.834000       15.9994           0
   63123 WT3  8134 TIP3 H1   HT     0.417000        1.0080           0
   63124 WT3  8134 TIP3 H2   HT     0.417000        1.0080           0
   63125 WT3  8135 TIP3 OH2  OT    -0.834000       15.9994           0
   63126 WT3  8135 TIP3 H1   HT     0.417000        1.0080           0
   63127 WT3  8135 TIP3 H2   HT     0.417000        1.0080           0
   63128 WT3  8136 TIP3 OH2  OT    -0.834000       15.9994           0
   63129 WT3  8136 TIP3 H1   HT     0.417000        1.0080           0
   63130 WT3  8136 TIP3 H2   HT     0.417000        1.0080           0
   63131 WT3  8137 TIP3 OH2  OT    -0.834000       15.9994           0
   63132 WT3  8137 TIP3 H1   HT     0.417000        1.0080           0
   63133 WT3  8137 TIP3 H2   HT     0.417000        1.0080           0
   63134 WT3  8139 TIP3 OH2  OT    -0.834000       15.9994           0
   63135 WT3  8139 TIP3 H1   HT     0.417000        1.0080           0
   63136 WT3  8139 TIP3 H2   HT     0.417000        1.0080           0
   63137 WT3  8140 TIP3 OH2  OT    -0.834000       15.9994           0
   63138 WT3  8140 TIP3 H1   HT     0.417000        1.0080           0
   63139 WT3  8140 TIP3 H2   HT     0.417000        1.0080           0
   63140 WT3  8145 TIP3 OH2  OT    -0.834000       15.9994           0
   63141 WT3  8145 TIP3 H1   HT     0.417000        1.0080           0
   63142 WT3  8145 TIP3 H2   HT     0.417000        1.0080           0
   63143 WT3  8147 TIP3 OH2  OT    -0.834000       15.9994           0
   63144 WT3  8147 TIP3 H1   HT     0.417000        1.0080           0
   63145 WT3  8147 TIP3 H2   HT     0.417000        1.0080           0
   63146 WT3  8150 TIP3 OH2  OT    -0.834000       15.9994           0
   63147 WT3  8150 TIP3 H1   HT     0.417000        1.0080           0
   63148 WT3  8150 TIP3 H2   HT     0.417000        1.0080           0
   63149 WT3  8152 TIP3 OH2  OT    -0.834000       15.9994           0
   63150 WT3  8152 TIP3 H1   HT     0.417000        1.0080           0
   63151 WT3  8152 TIP3 H2   HT     0.417000        1.0080           0
   63152 WT3  8153 TIP3 OH2  OT    -0.834000       15.9994           0
   63153 WT3  8153 TIP3 H1   HT     0.417000        1.0080           0
   63154 WT3  8153 TIP3 H2   HT     0.417000        1.0080           0
   63155 WT3  8155 TIP3 OH2  OT    -0.834000       15.9994           0
   63156 WT3  8155 TIP3 H1   HT     0.417000        1.0080           0
   63157 WT3  8155 TIP3 H2   HT     0.417000        1.0080           0
   63158 WT3  8156 TIP3 OH2  OT    -0.834000       15.9994           0
   63159 WT3  8156 TIP3 H1   HT     0.417000        1.0080           0
   63160 WT3  8156 TIP3 H2   HT     0.417000        1.0080           0
   63161 WT3  8157 TIP3 OH2  OT    -0.834000       15.9994           0
   63162 WT3  8157 TIP3 H1   HT     0.417000        1.0080           0
   63163 WT3  8157 TIP3 H2   HT     0.417000        1.0080           0
   63164 WT3  8158 TIP3 OH2  OT    -0.834000       15.9994           0
   63165 WT3  8158 TIP3 H1   HT     0.417000        1.0080           0
   63166 WT3  8158 TIP3 H2   HT     0.417000        1.0080           0
   63167 WT3  8159 TIP3 OH2  OT    -0.834000       15.9994           0
   63168 WT3  8159 TIP3 H1   HT     0.417000        1.0080           0
   63169 WT3  8159 TIP3 H2   HT     0.417000        1.0080           0
   63170 WT3  8163 TIP3 OH2  OT    -0.834000       15.9994           0
   63171 WT3  8163 TIP3 H1   HT     0.417000        1.0080           0
   63172 WT3  8163 TIP3 H2   HT     0.417000        1.0080           0
   63173 WT3  8165 TIP3 OH2  OT    -0.834000       15.9994           0
   63174 WT3  8165 TIP3 H1   HT     0.417000        1.0080           0
   63175 WT3  8165 TIP3 H2   HT     0.417000        1.0080           0
   63176 WT3  8169 TIP3 OH2  OT    -0.834000       15.9994           0
   63177 WT3  8169 TIP3 H1   HT     0.417000        1.0080           0
   63178 WT3  8169 TIP3 H2   HT     0.417000        1.0080           0
   63179 WT3  8171 TIP3 OH2  OT    -0.834000       15.9994           0
   63180 WT3  8171 TIP3 H1   HT     0.417000        1.0080           0
   63181 WT3  8171 TIP3 H2   HT     0.417000        1.0080           0
   63182 WT3  8172 TIP3 OH2  OT    -0.834000       15.9994           0
   63183 WT3  8172 TIP3 H1   HT     0.417000        1.0080           0
   63184 WT3  8172 TIP3 H2   HT     0.417000        1.0080           0
   63185 WT3  8173 TIP3 OH2  OT    -0.834000       15.9994           0
   63186 WT3  8173 TIP3 H1   HT     0.417000        1.0080           0
   63187 WT3  8173 TIP3 H2   HT     0.417000        1.0080           0
   63188 WT3  8174 TIP3 OH2  OT    -0.834000       15.9994           0
   63189 WT3  8174 TIP3 H1   HT     0.417000        1.0080           0
   63190 WT3  8174 TIP3 H2   HT     0.417000        1.0080           0
   63191 WT3  8175 TIP3 OH2  OT    -0.834000       15.9994           0
   63192 WT3  8175 TIP3 H1   HT     0.417000        1.0080           0
   63193 WT3  8175 TIP3 H2   HT     0.417000        1.0080           0
   63194 WT3  8176 TIP3 OH2  OT    -0.834000       15.9994           0
   63195 WT3  8176 TIP3 H1   HT     0.417000        1.0080           0
   63196 WT3  8176 TIP3 H2   HT     0.417000        1.0080           0
   63197 WT3  8177 TIP3 OH2  OT    -0.834000       15.9994           0
   63198 WT3  8177 TIP3 H1   HT     0.417000        1.0080           0
   63199 WT3  8177 TIP3 H2   HT     0.417000        1.0080           0
   63200 WT3  8178 TIP3 OH2  OT    -0.834000       15.9994           0
   63201 WT3  8178 TIP3 H1   HT     0.417000        1.0080           0
   63202 WT3  8178 TIP3 H2   HT     0.417000        1.0080           0
   63203 WT3  8179 TIP3 OH2  OT    -0.834000       15.9994           0
   63204 WT3  8179 TIP3 H1   HT     0.417000        1.0080           0
   63205 WT3  8179 TIP3 H2   HT     0.417000        1.0080           0
   63206 WT3  8181 TIP3 OH2  OT    -0.834000       15.9994           0
   63207 WT3  8181 TIP3 H1   HT     0.417000        1.0080           0
   63208 WT3  8181 TIP3 H2   HT     0.417000        1.0080           0
   63209 WT3  8182 TIP3 OH2  OT    -0.834000       15.9994           0
   63210 WT3  8182 TIP3 H1   HT     0.417000        1.0080           0
   63211 WT3  8182 TIP3 H2   HT     0.417000        1.0080           0
   63212 WT3  8184 TIP3 OH2  OT    -0.834000       15.9994           0
   63213 WT3  8184 TIP3 H1   HT     0.417000        1.0080           0
   63214 WT3  8184 TIP3 H2   HT     0.417000        1.0080           0
   63215 WT3  8185 TIP3 OH2  OT    -0.834000       15.9994           0
   63216 WT3  8185 TIP3 H1   HT     0.417000        1.0080           0
   63217 WT3  8185 TIP3 H2   HT     0.417000        1.0080           0
   63218 WT3  8186 TIP3 OH2  OT    -0.834000       15.9994           0
   63219 WT3  8186 TIP3 H1   HT     0.417000        1.0080           0
   63220 WT3  8186 TIP3 H2   HT     0.417000        1.0080           0
   63221 WT3  8189 TIP3 OH2  OT    -0.834000       15.9994           0
   63222 WT3  8189 TIP3 H1   HT     0.417000        1.0080           0
   63223 WT3  8189 TIP3 H2   HT     0.417000        1.0080           0
   63224 WT3  8192 TIP3 OH2  OT    -0.834000       15.9994           0
   63225 WT3  8192 TIP3 H1   HT     0.417000        1.0080           0
   63226 WT3  8192 TIP3 H2   HT     0.417000        1.0080           0
   63227 WT3  8194 TIP3 OH2  OT    -0.834000       15.9994           0
   63228 WT3  8194 TIP3 H1   HT     0.417000        1.0080           0
   63229 WT3  8194 TIP3 H2   HT     0.417000        1.0080           0
   63230 WT3  8198 TIP3 OH2  OT    -0.834000       15.9994           0
   63231 WT3  8198 TIP3 H1   HT     0.417000        1.0080           0
   63232 WT3  8198 TIP3 H2   HT     0.417000        1.0080           0
   63233 WT3  8199 TIP3 OH2  OT    -0.834000       15.9994           0
   63234 WT3  8199 TIP3 H1   HT     0.417000        1.0080           0
   63235 WT3  8199 TIP3 H2   HT     0.417000        1.0080           0
   63236 WT3  8200 TIP3 OH2  OT    -0.834000       15.9994           0
   63237 WT3  8200 TIP3 H1   HT     0.417000        1.0080           0
   63238 WT3  8200 TIP3 H2   HT     0.417000        1.0080           0
   63239 WT3  8201 TIP3 OH2  OT    -0.834000       15.9994           0
   63240 WT3  8201 TIP3 H1   HT     0.417000        1.0080           0
   63241 WT3  8201 TIP3 H2   HT     0.417000        1.0080           0
   63242 WT3  8202 TIP3 OH2  OT    -0.834000       15.9994           0
   63243 WT3  8202 TIP3 H1   HT     0.417000        1.0080           0
   63244 WT3  8202 TIP3 H2   HT     0.417000        1.0080           0
   63245 WT3  8204 TIP3 OH2  OT    -0.834000       15.9994           0
   63246 WT3  8204 TIP3 H1   HT     0.417000        1.0080           0
   63247 WT3  8204 TIP3 H2   HT     0.417000        1.0080           0
   63248 WT3  8205 TIP3 OH2  OT    -0.834000       15.9994           0
   63249 WT3  8205 TIP3 H1   HT     0.417000        1.0080           0
   63250 WT3  8205 TIP3 H2   HT     0.417000        1.0080           0
   63251 WT3  8206 TIP3 OH2  OT    -0.834000       15.9994           0
   63252 WT3  8206 TIP3 H1   HT     0.417000        1.0080           0
   63253 WT3  8206 TIP3 H2   HT     0.417000        1.0080           0
   63254 WT3  8207 TIP3 OH2  OT    -0.834000       15.9994           0
   63255 WT3  8207 TIP3 H1   HT     0.417000        1.0080           0
   63256 WT3  8207 TIP3 H2   HT     0.417000        1.0080           0
   63257 WT3  8210 TIP3 OH2  OT    -0.834000       15.9994           0
   63258 WT3  8210 TIP3 H1   HT     0.417000        1.0080           0
   63259 WT3  8210 TIP3 H2   HT     0.417000        1.0080           0
   63260 WT3  8211 TIP3 OH2  OT    -0.834000       15.9994           0
   63261 WT3  8211 TIP3 H1   HT     0.417000        1.0080           0
   63262 WT3  8211 TIP3 H2   HT     0.417000        1.0080           0
   63263 WT3  8215 TIP3 OH2  OT    -0.834000       15.9994           0
   63264 WT3  8215 TIP3 H1   HT     0.417000        1.0080           0
   63265 WT3  8215 TIP3 H2   HT     0.417000        1.0080           0
   63266 WT3  8216 TIP3 OH2  OT    -0.834000       15.9994           0
   63267 WT3  8216 TIP3 H1   HT     0.417000        1.0080           0
   63268 WT3  8216 TIP3 H2   HT     0.417000        1.0080           0
   63269 WT3  8217 TIP3 OH2  OT    -0.834000       15.9994           0
   63270 WT3  8217 TIP3 H1   HT     0.417000        1.0080           0
   63271 WT3  8217 TIP3 H2   HT     0.417000        1.0080           0
   63272 WT3  8218 TIP3 OH2  OT    -0.834000       15.9994           0
   63273 WT3  8218 TIP3 H1   HT     0.417000        1.0080           0
   63274 WT3  8218 TIP3 H2   HT     0.417000        1.0080           0
   63275 WT3  8219 TIP3 OH2  OT    -0.834000       15.9994           0
   63276 WT3  8219 TIP3 H1   HT     0.417000        1.0080           0
   63277 WT3  8219 TIP3 H2   HT     0.417000        1.0080           0
   63278 WT3  8222 TIP3 OH2  OT    -0.834000       15.9994           0
   63279 WT3  8222 TIP3 H1   HT     0.417000        1.0080           0
   63280 WT3  8222 TIP3 H2   HT     0.417000        1.0080           0
   63281 WT3  8223 TIP3 OH2  OT    -0.834000       15.9994           0
   63282 WT3  8223 TIP3 H1   HT     0.417000        1.0080           0
   63283 WT3  8223 TIP3 H2   HT     0.417000        1.0080           0
   63284 WT3  8224 TIP3 OH2  OT    -0.834000       15.9994           0
   63285 WT3  8224 TIP3 H1   HT     0.417000        1.0080           0
   63286 WT3  8224 TIP3 H2   HT     0.417000        1.0080           0
   63287 WT3  8225 TIP3 OH2  OT    -0.834000       15.9994           0
   63288 WT3  8225 TIP3 H1   HT     0.417000        1.0080           0
   63289 WT3  8225 TIP3 H2   HT     0.417000        1.0080           0
   63290 WT3  8226 TIP3 OH2  OT    -0.834000       15.9994           0
   63291 WT3  8226 TIP3 H1   HT     0.417000        1.0080           0
   63292 WT3  8226 TIP3 H2   HT     0.417000        1.0080           0
   63293 WT3  8227 TIP3 OH2  OT    -0.834000       15.9994           0
   63294 WT3  8227 TIP3 H1   HT     0.417000        1.0080           0
   63295 WT3  8227 TIP3 H2   HT     0.417000        1.0080           0
   63296 WT3  8229 TIP3 OH2  OT    -0.834000       15.9994           0
   63297 WT3  8229 TIP3 H1   HT     0.417000        1.0080           0
   63298 WT3  8229 TIP3 H2   HT     0.417000        1.0080           0
   63299 WT3  8231 TIP3 OH2  OT    -0.834000       15.9994           0
   63300 WT3  8231 TIP3 H1   HT     0.417000        1.0080           0
   63301 WT3  8231 TIP3 H2   HT     0.417000        1.0080           0
   63302 WT3  8233 TIP3 OH2  OT    -0.834000       15.9994           0
   63303 WT3  8233 TIP3 H1   HT     0.417000        1.0080           0
   63304 WT3  8233 TIP3 H2   HT     0.417000        1.0080           0
   63305 WT3  8234 TIP3 OH2  OT    -0.834000       15.9994           0
   63306 WT3  8234 TIP3 H1   HT     0.417000        1.0080           0
   63307 WT3  8234 TIP3 H2   HT     0.417000        1.0080           0
   63308 WT3  8237 TIP3 OH2  OT    -0.834000       15.9994           0
   63309 WT3  8237 TIP3 H1   HT     0.417000        1.0080           0
   63310 WT3  8237 TIP3 H2   HT     0.417000        1.0080           0
   63311 WT3  8238 TIP3 OH2  OT    -0.834000       15.9994           0
   63312 WT3  8238 TIP3 H1   HT     0.417000        1.0080           0
   63313 WT3  8238 TIP3 H2   HT     0.417000        1.0080           0
   63314 WT3  8239 TIP3 OH2  OT    -0.834000       15.9994           0
   63315 WT3  8239 TIP3 H1   HT     0.417000        1.0080           0
   63316 WT3  8239 TIP3 H2   HT     0.417000        1.0080           0
   63317 WT3  8240 TIP3 OH2  OT    -0.834000       15.9994           0
   63318 WT3  8240 TIP3 H1   HT     0.417000        1.0080           0
   63319 WT3  8240 TIP3 H2   HT     0.417000        1.0080           0
   63320 WT3  8242 TIP3 OH2  OT    -0.834000       15.9994           0
   63321 WT3  8242 TIP3 H1   HT     0.417000        1.0080           0
   63322 WT3  8242 TIP3 H2   HT     0.417000        1.0080           0
   63323 WT3  8243 TIP3 OH2  OT    -0.834000       15.9994           0
   63324 WT3  8243 TIP3 H1   HT     0.417000        1.0080           0
   63325 WT3  8243 TIP3 H2   HT     0.417000        1.0080           0
   63326 WT3  8244 TIP3 OH2  OT    -0.834000       15.9994           0
   63327 WT3  8244 TIP3 H1   HT     0.417000        1.0080           0
   63328 WT3  8244 TIP3 H2   HT     0.417000        1.0080           0
   63329 WT3  8246 TIP3 OH2  OT    -0.834000       15.9994           0
   63330 WT3  8246 TIP3 H1   HT     0.417000        1.0080           0
   63331 WT3  8246 TIP3 H2   HT     0.417000        1.0080           0
   63332 WT3  8247 TIP3 OH2  OT    -0.834000       15.9994           0
   63333 WT3  8247 TIP3 H1   HT     0.417000        1.0080           0
   63334 WT3  8247 TIP3 H2   HT     0.417000        1.0080           0
   63335 WT3  8250 TIP3 OH2  OT    -0.834000       15.9994           0
   63336 WT3  8250 TIP3 H1   HT     0.417000        1.0080           0
   63337 WT3  8250 TIP3 H2   HT     0.417000        1.0080           0
   63338 WT3  8254 TIP3 OH2  OT    -0.834000       15.9994           0
   63339 WT3  8254 TIP3 H1   HT     0.417000        1.0080           0
   63340 WT3  8254 TIP3 H2   HT     0.417000        1.0080           0
   63341 WT3  8256 TIP3 OH2  OT    -0.834000       15.9994           0
   63342 WT3  8256 TIP3 H1   HT     0.417000        1.0080           0
   63343 WT3  8256 TIP3 H2   HT     0.417000        1.0080           0
   63344 WT3  8257 TIP3 OH2  OT    -0.834000       15.9994           0
   63345 WT3  8257 TIP3 H1   HT     0.417000        1.0080           0
   63346 WT3  8257 TIP3 H2   HT     0.417000        1.0080           0
   63347 WT3  8259 TIP3 OH2  OT    -0.834000       15.9994           0
   63348 WT3  8259 TIP3 H1   HT     0.417000        1.0080           0
   63349 WT3  8259 TIP3 H2   HT     0.417000        1.0080           0
   63350 WT3  8260 TIP3 OH2  OT    -0.834000       15.9994           0
   63351 WT3  8260 TIP3 H1   HT     0.417000        1.0080           0
   63352 WT3  8260 TIP3 H2   HT     0.417000        1.0080           0
   63353 WT3  8261 TIP3 OH2  OT    -0.834000       15.9994           0
   63354 WT3  8261 TIP3 H1   HT     0.417000        1.0080           0
   63355 WT3  8261 TIP3 H2   HT     0.417000        1.0080           0
   63356 WT3  8262 TIP3 OH2  OT    -0.834000       15.9994           0
   63357 WT3  8262 TIP3 H1   HT     0.417000        1.0080           0
   63358 WT3  8262 TIP3 H2   HT     0.417000        1.0080           0
   63359 WT3  8263 TIP3 OH2  OT    -0.834000       15.9994           0
   63360 WT3  8263 TIP3 H1   HT     0.417000        1.0080           0
   63361 WT3  8263 TIP3 H2   HT     0.417000        1.0080           0
   63362 WT3  8264 TIP3 OH2  OT    -0.834000       15.9994           0
   63363 WT3  8264 TIP3 H1   HT     0.417000        1.0080           0
   63364 WT3  8264 TIP3 H2   HT     0.417000        1.0080           0
   63365 WT3  8265 TIP3 OH2  OT    -0.834000       15.9994           0
   63366 WT3  8265 TIP3 H1   HT     0.417000        1.0080           0
   63367 WT3  8265 TIP3 H2   HT     0.417000        1.0080           0
   63368 WT3  8266 TIP3 OH2  OT    -0.834000       15.9994           0
   63369 WT3  8266 TIP3 H1   HT     0.417000        1.0080           0
   63370 WT3  8266 TIP3 H2   HT     0.417000        1.0080           0
   63371 WT3  8267 TIP3 OH2  OT    -0.834000       15.9994           0
   63372 WT3  8267 TIP3 H1   HT     0.417000        1.0080           0
   63373 WT3  8267 TIP3 H2   HT     0.417000        1.0080           0
   63374 WT3  8276 TIP3 OH2  OT    -0.834000       15.9994           0
   63375 WT3  8276 TIP3 H1   HT     0.417000        1.0080           0
   63376 WT3  8276 TIP3 H2   HT     0.417000        1.0080           0
   63377 WT3  8277 TIP3 OH2  OT    -0.834000       15.9994           0
   63378 WT3  8277 TIP3 H1   HT     0.417000        1.0080           0
   63379 WT3  8277 TIP3 H2   HT     0.417000        1.0080           0
   63380 WT3  8278 TIP3 OH2  OT    -0.834000       15.9994           0
   63381 WT3  8278 TIP3 H1   HT     0.417000        1.0080           0
   63382 WT3  8278 TIP3 H2   HT     0.417000        1.0080           0
   63383 WT3  8279 TIP3 OH2  OT    -0.834000       15.9994           0
   63384 WT3  8279 TIP3 H1   HT     0.417000        1.0080           0
   63385 WT3  8279 TIP3 H2   HT     0.417000        1.0080           0
   63386 WT3  8280 TIP3 OH2  OT    -0.834000       15.9994           0
   63387 WT3  8280 TIP3 H1   HT     0.417000        1.0080           0
   63388 WT3  8280 TIP3 H2   HT     0.417000        1.0080           0
   63389 WT3  8281 TIP3 OH2  OT    -0.834000       15.9994           0
   63390 WT3  8281 TIP3 H1   HT     0.417000        1.0080           0
   63391 WT3  8281 TIP3 H2   HT     0.417000        1.0080           0
   63392 WT3  8282 TIP3 OH2  OT    -0.834000       15.9994           0
   63393 WT3  8282 TIP3 H1   HT     0.417000        1.0080           0
   63394 WT3  8282 TIP3 H2   HT     0.417000        1.0080           0
   63395 WT3  8283 TIP3 OH2  OT    -0.834000       15.9994           0
   63396 WT3  8283 TIP3 H1   HT     0.417000        1.0080           0
   63397 WT3  8283 TIP3 H2   HT     0.417000        1.0080           0
   63398 WT3  8284 TIP3 OH2  OT    -0.834000       15.9994           0
   63399 WT3  8284 TIP3 H1   HT     0.417000        1.0080           0
   63400 WT3  8284 TIP3 H2   HT     0.417000        1.0080           0
   63401 WT3  8286 TIP3 OH2  OT    -0.834000       15.9994           0
   63402 WT3  8286 TIP3 H1   HT     0.417000        1.0080           0
   63403 WT3  8286 TIP3 H2   HT     0.417000        1.0080           0
   63404 WT3  8287 TIP3 OH2  OT    -0.834000       15.9994           0
   63405 WT3  8287 TIP3 H1   HT     0.417000        1.0080           0
   63406 WT3  8287 TIP3 H2   HT     0.417000        1.0080           0
   63407 WT3  8289 TIP3 OH2  OT    -0.834000       15.9994           0
   63408 WT3  8289 TIP3 H1   HT     0.417000        1.0080           0
   63409 WT3  8289 TIP3 H2   HT     0.417000        1.0080           0
   63410 WT3  8290 TIP3 OH2  OT    -0.834000       15.9994           0
   63411 WT3  8290 TIP3 H1   HT     0.417000        1.0080           0
   63412 WT3  8290 TIP3 H2   HT     0.417000        1.0080           0
   63413 WT3  8297 TIP3 OH2  OT    -0.834000       15.9994           0
   63414 WT3  8297 TIP3 H1   HT     0.417000        1.0080           0
   63415 WT3  8297 TIP3 H2   HT     0.417000        1.0080           0
   63416 WT3  8299 TIP3 OH2  OT    -0.834000       15.9994           0
   63417 WT3  8299 TIP3 H1   HT     0.417000        1.0080           0
   63418 WT3  8299 TIP3 H2   HT     0.417000        1.0080           0
   63419 WT3  8300 TIP3 OH2  OT    -0.834000       15.9994           0
   63420 WT3  8300 TIP3 H1   HT     0.417000        1.0080           0
   63421 WT3  8300 TIP3 H2   HT     0.417000        1.0080           0
   63422 WT3  8301 TIP3 OH2  OT    -0.834000       15.9994           0
   63423 WT3  8301 TIP3 H1   HT     0.417000        1.0080           0
   63424 WT3  8301 TIP3 H2   HT     0.417000        1.0080           0
   63425 WT3  8302 TIP3 OH2  OT    -0.834000       15.9994           0
   63426 WT3  8302 TIP3 H1   HT     0.417000        1.0080           0
   63427 WT3  8302 TIP3 H2   HT     0.417000        1.0080           0
   63428 WT3  8303 TIP3 OH2  OT    -0.834000       15.9994           0
   63429 WT3  8303 TIP3 H1   HT     0.417000        1.0080           0
   63430 WT3  8303 TIP3 H2   HT     0.417000        1.0080           0
   63431 WT3  8304 TIP3 OH2  OT    -0.834000       15.9994           0
   63432 WT3  8304 TIP3 H1   HT     0.417000        1.0080           0
   63433 WT3  8304 TIP3 H2   HT     0.417000        1.0080           0
   63434 WT3  8305 TIP3 OH2  OT    -0.834000       15.9994           0
   63435 WT3  8305 TIP3 H1   HT     0.417000        1.0080           0
   63436 WT3  8305 TIP3 H2   HT     0.417000        1.0080           0
   63437 WT3  8306 TIP3 OH2  OT    -0.834000       15.9994           0
   63438 WT3  8306 TIP3 H1   HT     0.417000        1.0080           0
   63439 WT3  8306 TIP3 H2   HT     0.417000        1.0080           0
   63440 WT3  8307 TIP3 OH2  OT    -0.834000       15.9994           0
   63441 WT3  8307 TIP3 H1   HT     0.417000        1.0080           0
   63442 WT3  8307 TIP3 H2   HT     0.417000        1.0080           0
   63443 WT3  8308 TIP3 OH2  OT    -0.834000       15.9994           0
   63444 WT3  8308 TIP3 H1   HT     0.417000        1.0080           0
   63445 WT3  8308 TIP3 H2   HT     0.417000        1.0080           0
   63446 WT3  8309 TIP3 OH2  OT    -0.834000       15.9994           0
   63447 WT3  8309 TIP3 H1   HT     0.417000        1.0080           0
   63448 WT3  8309 TIP3 H2   HT     0.417000        1.0080           0
   63449 WT3  8310 TIP3 OH2  OT    -0.834000       15.9994           0
   63450 WT3  8310 TIP3 H1   HT     0.417000        1.0080           0
   63451 WT3  8310 TIP3 H2   HT     0.417000        1.0080           0
   63452 WT3  8313 TIP3 OH2  OT    -0.834000       15.9994           0
   63453 WT3  8313 TIP3 H1   HT     0.417000        1.0080           0
   63454 WT3  8313 TIP3 H2   HT     0.417000        1.0080           0
   63455 WT3  8317 TIP3 OH2  OT    -0.834000       15.9994           0
   63456 WT3  8317 TIP3 H1   HT     0.417000        1.0080           0
   63457 WT3  8317 TIP3 H2   HT     0.417000        1.0080           0
   63458 WT3  8318 TIP3 OH2  OT    -0.834000       15.9994           0
   63459 WT3  8318 TIP3 H1   HT     0.417000        1.0080           0
   63460 WT3  8318 TIP3 H2   HT     0.417000        1.0080           0
   63461 WT3  8319 TIP3 OH2  OT    -0.834000       15.9994           0
   63462 WT3  8319 TIP3 H1   HT     0.417000        1.0080           0
   63463 WT3  8319 TIP3 H2   HT     0.417000        1.0080           0
   63464 WT3  8322 TIP3 OH2  OT    -0.834000       15.9994           0
   63465 WT3  8322 TIP3 H1   HT     0.417000        1.0080           0
   63466 WT3  8322 TIP3 H2   HT     0.417000        1.0080           0
   63467 WT3  8323 TIP3 OH2  OT    -0.834000       15.9994           0
   63468 WT3  8323 TIP3 H1   HT     0.417000        1.0080           0
   63469 WT3  8323 TIP3 H2   HT     0.417000        1.0080           0
   63470 WT3  8324 TIP3 OH2  OT    -0.834000       15.9994           0
   63471 WT3  8324 TIP3 H1   HT     0.417000        1.0080           0
   63472 WT3  8324 TIP3 H2   HT     0.417000        1.0080           0
   63473 WT3  8325 TIP3 OH2  OT    -0.834000       15.9994           0
   63474 WT3  8325 TIP3 H1   HT     0.417000        1.0080           0
   63475 WT3  8325 TIP3 H2   HT     0.417000        1.0080           0
   63476 WT3  8326 TIP3 OH2  OT    -0.834000       15.9994           0
   63477 WT3  8326 TIP3 H1   HT     0.417000        1.0080           0
   63478 WT3  8326 TIP3 H2   HT     0.417000        1.0080           0
   63479 WT3  8327 TIP3 OH2  OT    -0.834000       15.9994           0
   63480 WT3  8327 TIP3 H1   HT     0.417000        1.0080           0
   63481 WT3  8327 TIP3 H2   HT     0.417000        1.0080           0
   63482 WT3  8328 TIP3 OH2  OT    -0.834000       15.9994           0
   63483 WT3  8328 TIP3 H1   HT     0.417000        1.0080           0
   63484 WT3  8328 TIP3 H2   HT     0.417000        1.0080           0
   63485 WT3  8329 TIP3 OH2  OT    -0.834000       15.9994           0
   63486 WT3  8329 TIP3 H1   HT     0.417000        1.0080           0
   63487 WT3  8329 TIP3 H2   HT     0.417000        1.0080           0
   63488 WT3  8330 TIP3 OH2  OT    -0.834000       15.9994           0
   63489 WT3  8330 TIP3 H1   HT     0.417000        1.0080           0
   63490 WT3  8330 TIP3 H2   HT     0.417000        1.0080           0
   63491 WT3  8333 TIP3 OH2  OT    -0.834000       15.9994           0
   63492 WT3  8333 TIP3 H1   HT     0.417000        1.0080           0
   63493 WT3  8333 TIP3 H2   HT     0.417000        1.0080           0
   63494 WT3  8335 TIP3 OH2  OT    -0.834000       15.9994           0
   63495 WT3  8335 TIP3 H1   HT     0.417000        1.0080           0
   63496 WT3  8335 TIP3 H2   HT     0.417000        1.0080           0
   63497 WT3  8336 TIP3 OH2  OT    -0.834000       15.9994           0
   63498 WT3  8336 TIP3 H1   HT     0.417000        1.0080           0
   63499 WT3  8336 TIP3 H2   HT     0.417000        1.0080           0
   63500 WT3  8338 TIP3 OH2  OT    -0.834000       15.9994           0
   63501 WT3  8338 TIP3 H1   HT     0.417000        1.0080           0
   63502 WT3  8338 TIP3 H2   HT     0.417000        1.0080           0
   63503 WT3  8339 TIP3 OH2  OT    -0.834000       15.9994           0
   63504 WT3  8339 TIP3 H1   HT     0.417000        1.0080           0
   63505 WT3  8339 TIP3 H2   HT     0.417000        1.0080           0
   63506 WT3  8340 TIP3 OH2  OT    -0.834000       15.9994           0
   63507 WT3  8340 TIP3 H1   HT     0.417000        1.0080           0
   63508 WT3  8340 TIP3 H2   HT     0.417000        1.0080           0
   63509 WT3  8341 TIP3 OH2  OT    -0.834000       15.9994           0
   63510 WT3  8341 TIP3 H1   HT     0.417000        1.0080           0
   63511 WT3  8341 TIP3 H2   HT     0.417000        1.0080           0
   63512 WT3  8342 TIP3 OH2  OT    -0.834000       15.9994           0
   63513 WT3  8342 TIP3 H1   HT     0.417000        1.0080           0
   63514 WT3  8342 TIP3 H2   HT     0.417000        1.0080           0
   63515 WT3  8343 TIP3 OH2  OT    -0.834000       15.9994           0
   63516 WT3  8343 TIP3 H1   HT     0.417000        1.0080           0
   63517 WT3  8343 TIP3 H2   HT     0.417000        1.0080           0
   63518 WT3  8345 TIP3 OH2  OT    -0.834000       15.9994           0
   63519 WT3  8345 TIP3 H1   HT     0.417000        1.0080           0
   63520 WT3  8345 TIP3 H2   HT     0.417000        1.0080           0
   63521 WT3  8346 TIP3 OH2  OT    -0.834000       15.9994           0
   63522 WT3  8346 TIP3 H1   HT     0.417000        1.0080           0
   63523 WT3  8346 TIP3 H2   HT     0.417000        1.0080           0
   63524 WT3  8348 TIP3 OH2  OT    -0.834000       15.9994           0
   63525 WT3  8348 TIP3 H1   HT     0.417000        1.0080           0
   63526 WT3  8348 TIP3 H2   HT     0.417000        1.0080           0
   63527 WT3  8349 TIP3 OH2  OT    -0.834000       15.9994           0
   63528 WT3  8349 TIP3 H1   HT     0.417000        1.0080           0
   63529 WT3  8349 TIP3 H2   HT     0.417000        1.0080           0
   63530 WT3  8350 TIP3 OH2  OT    -0.834000       15.9994           0
   63531 WT3  8350 TIP3 H1   HT     0.417000        1.0080           0
   63532 WT3  8350 TIP3 H2   HT     0.417000        1.0080           0
   63533 WT3  8351 TIP3 OH2  OT    -0.834000       15.9994           0
   63534 WT3  8351 TIP3 H1   HT     0.417000        1.0080           0
   63535 WT3  8351 TIP3 H2   HT     0.417000        1.0080           0
   63536 WT3  8352 TIP3 OH2  OT    -0.834000       15.9994           0
   63537 WT3  8352 TIP3 H1   HT     0.417000        1.0080           0
   63538 WT3  8352 TIP3 H2   HT     0.417000        1.0080           0
   63539 WT3  8353 TIP3 OH2  OT    -0.834000       15.9994           0
   63540 WT3  8353 TIP3 H1   HT     0.417000        1.0080           0
   63541 WT3  8353 TIP3 H2   HT     0.417000        1.0080           0
   63542 WT3  8362 TIP3 OH2  OT    -0.834000       15.9994           0
   63543 WT3  8362 TIP3 H1   HT     0.417000        1.0080           0
   63544 WT3  8362 TIP3 H2   HT     0.417000        1.0080           0
   63545 WT3  8363 TIP3 OH2  OT    -0.834000       15.9994           0
   63546 WT3  8363 TIP3 H1   HT     0.417000        1.0080           0
   63547 WT3  8363 TIP3 H2   HT     0.417000        1.0080           0
   63548 WT3  8364 TIP3 OH2  OT    -0.834000       15.9994           0
   63549 WT3  8364 TIP3 H1   HT     0.417000        1.0080           0
   63550 WT3  8364 TIP3 H2   HT     0.417000        1.0080           0
   63551 WT3  8365 TIP3 OH2  OT    -0.834000       15.9994           0
   63552 WT3  8365 TIP3 H1   HT     0.417000        1.0080           0
   63553 WT3  8365 TIP3 H2   HT     0.417000        1.0080           0
   63554 WT3  8366 TIP3 OH2  OT    -0.834000       15.9994           0
   63555 WT3  8366 TIP3 H1   HT     0.417000        1.0080           0
   63556 WT3  8366 TIP3 H2   HT     0.417000        1.0080           0
   63557 WT3  8367 TIP3 OH2  OT    -0.834000       15.9994           0
   63558 WT3  8367 TIP3 H1   HT     0.417000        1.0080           0
   63559 WT3  8367 TIP3 H2   HT     0.417000        1.0080           0
   63560 WT3  8368 TIP3 OH2  OT    -0.834000       15.9994           0
   63561 WT3  8368 TIP3 H1   HT     0.417000        1.0080           0
   63562 WT3  8368 TIP3 H2   HT     0.417000        1.0080           0
   63563 WT3  8369 TIP3 OH2  OT    -0.834000       15.9994           0
   63564 WT3  8369 TIP3 H1   HT     0.417000        1.0080           0
   63565 WT3  8369 TIP3 H2   HT     0.417000        1.0080           0
   63566 WT3  8370 TIP3 OH2  OT    -0.834000       15.9994           0
   63567 WT3  8370 TIP3 H1   HT     0.417000        1.0080           0
   63568 WT3  8370 TIP3 H2   HT     0.417000        1.0080           0
   63569 WT3  8371 TIP3 OH2  OT    -0.834000       15.9994           0
   63570 WT3  8371 TIP3 H1   HT     0.417000        1.0080           0
   63571 WT3  8371 TIP3 H2   HT     0.417000        1.0080           0
   63572 WT3  8373 TIP3 OH2  OT    -0.834000       15.9994           0
   63573 WT3  8373 TIP3 H1   HT     0.417000        1.0080           0
   63574 WT3  8373 TIP3 H2   HT     0.417000        1.0080           0
   63575 WT3  8377 TIP3 OH2  OT    -0.834000       15.9994           0
   63576 WT3  8377 TIP3 H1   HT     0.417000        1.0080           0
   63577 WT3  8377 TIP3 H2   HT     0.417000        1.0080           0
   63578 WT3  8378 TIP3 OH2  OT    -0.834000       15.9994           0
   63579 WT3  8378 TIP3 H1   HT     0.417000        1.0080           0
   63580 WT3  8378 TIP3 H2   HT     0.417000        1.0080           0
   63581 WT3  8380 TIP3 OH2  OT    -0.834000       15.9994           0
   63582 WT3  8380 TIP3 H1   HT     0.417000        1.0080           0
   63583 WT3  8380 TIP3 H2   HT     0.417000        1.0080           0
   63584 WT3  8381 TIP3 OH2  OT    -0.834000       15.9994           0
   63585 WT3  8381 TIP3 H1   HT     0.417000        1.0080           0
   63586 WT3  8381 TIP3 H2   HT     0.417000        1.0080           0
   63587 WT3  8382 TIP3 OH2  OT    -0.834000       15.9994           0
   63588 WT3  8382 TIP3 H1   HT     0.417000        1.0080           0
   63589 WT3  8382 TIP3 H2   HT     0.417000        1.0080           0
   63590 WT3  8383 TIP3 OH2  OT    -0.834000       15.9994           0
   63591 WT3  8383 TIP3 H1   HT     0.417000        1.0080           0
   63592 WT3  8383 TIP3 H2   HT     0.417000        1.0080           0
   63593 WT3  8384 TIP3 OH2  OT    -0.834000       15.9994           0
   63594 WT3  8384 TIP3 H1   HT     0.417000        1.0080           0
   63595 WT3  8384 TIP3 H2   HT     0.417000        1.0080           0
   63596 WT3  8385 TIP3 OH2  OT    -0.834000       15.9994           0
   63597 WT3  8385 TIP3 H1   HT     0.417000        1.0080           0
   63598 WT3  8385 TIP3 H2   HT     0.417000        1.0080           0
   63599 WT3  8386 TIP3 OH2  OT    -0.834000       15.9994           0
   63600 WT3  8386 TIP3 H1   HT     0.417000        1.0080           0
   63601 WT3  8386 TIP3 H2   HT     0.417000        1.0080           0
   63602 WT3  8387 TIP3 OH2  OT    -0.834000       15.9994           0
   63603 WT3  8387 TIP3 H1   HT     0.417000        1.0080           0
   63604 WT3  8387 TIP3 H2   HT     0.417000        1.0080           0
   63605 WT3  8388 TIP3 OH2  OT    -0.834000       15.9994           0
   63606 WT3  8388 TIP3 H1   HT     0.417000        1.0080           0
   63607 WT3  8388 TIP3 H2   HT     0.417000        1.0080           0
   63608 WT3  8389 TIP3 OH2  OT    -0.834000       15.9994           0
   63609 WT3  8389 TIP3 H1   HT     0.417000        1.0080           0
   63610 WT3  8389 TIP3 H2   HT     0.417000        1.0080           0
   63611 WT3  8392 TIP3 OH2  OT    -0.834000       15.9994           0
   63612 WT3  8392 TIP3 H1   HT     0.417000        1.0080           0
   63613 WT3  8392 TIP3 H2   HT     0.417000        1.0080           0
   63614 WT3  8393 TIP3 OH2  OT    -0.834000       15.9994           0
   63615 WT3  8393 TIP3 H1   HT     0.417000        1.0080           0
   63616 WT3  8393 TIP3 H2   HT     0.417000        1.0080           0
   63617 WT3  8394 TIP3 OH2  OT    -0.834000       15.9994           0
   63618 WT3  8394 TIP3 H1   HT     0.417000        1.0080           0
   63619 WT3  8394 TIP3 H2   HT     0.417000        1.0080           0
   63620 WT3  8397 TIP3 OH2  OT    -0.834000       15.9994           0
   63621 WT3  8397 TIP3 H1   HT     0.417000        1.0080           0
   63622 WT3  8397 TIP3 H2   HT     0.417000        1.0080           0
   63623 WT3  8403 TIP3 OH2  OT    -0.834000       15.9994           0
   63624 WT3  8403 TIP3 H1   HT     0.417000        1.0080           0
   63625 WT3  8403 TIP3 H2   HT     0.417000        1.0080           0
   63626 WT3  8404 TIP3 OH2  OT    -0.834000       15.9994           0
   63627 WT3  8404 TIP3 H1   HT     0.417000        1.0080           0
   63628 WT3  8404 TIP3 H2   HT     0.417000        1.0080           0
   63629 WT3  8406 TIP3 OH2  OT    -0.834000       15.9994           0
   63630 WT3  8406 TIP3 H1   HT     0.417000        1.0080           0
   63631 WT3  8406 TIP3 H2   HT     0.417000        1.0080           0
   63632 WT3  8407 TIP3 OH2  OT    -0.834000       15.9994           0
   63633 WT3  8407 TIP3 H1   HT     0.417000        1.0080           0
   63634 WT3  8407 TIP3 H2   HT     0.417000        1.0080           0
   63635 WT3  8408 TIP3 OH2  OT    -0.834000       15.9994           0
   63636 WT3  8408 TIP3 H1   HT     0.417000        1.0080           0
   63637 WT3  8408 TIP3 H2   HT     0.417000        1.0080           0
   63638 WT3  8409 TIP3 OH2  OT    -0.834000       15.9994           0
   63639 WT3  8409 TIP3 H1   HT     0.417000        1.0080           0
   63640 WT3  8409 TIP3 H2   HT     0.417000        1.0080           0
   63641 WT3  8411 TIP3 OH2  OT    -0.834000       15.9994           0
   63642 WT3  8411 TIP3 H1   HT     0.417000        1.0080           0
   63643 WT3  8411 TIP3 H2   HT     0.417000        1.0080           0
   63644 WT3  8413 TIP3 OH2  OT    -0.834000       15.9994           0
   63645 WT3  8413 TIP3 H1   HT     0.417000        1.0080           0
   63646 WT3  8413 TIP3 H2   HT     0.417000        1.0080           0
   63647 WT3  8414 TIP3 OH2  OT    -0.834000       15.9994           0
   63648 WT3  8414 TIP3 H1   HT     0.417000        1.0080           0
   63649 WT3  8414 TIP3 H2   HT     0.417000        1.0080           0
   63650 WT3  8415 TIP3 OH2  OT    -0.834000       15.9994           0
   63651 WT3  8415 TIP3 H1   HT     0.417000        1.0080           0
   63652 WT3  8415 TIP3 H2   HT     0.417000        1.0080           0
   63653 WT3  8416 TIP3 OH2  OT    -0.834000       15.9994           0
   63654 WT3  8416 TIP3 H1   HT     0.417000        1.0080           0
   63655 WT3  8416 TIP3 H2   HT     0.417000        1.0080           0
   63656 WT3  8425 TIP3 OH2  OT    -0.834000       15.9994           0
   63657 WT3  8425 TIP3 H1   HT     0.417000        1.0080           0
   63658 WT3  8425 TIP3 H2   HT     0.417000        1.0080           0
   63659 WT3  8426 TIP3 OH2  OT    -0.834000       15.9994           0
   63660 WT3  8426 TIP3 H1   HT     0.417000        1.0080           0
   63661 WT3  8426 TIP3 H2   HT     0.417000        1.0080           0
   63662 WT3  8427 TIP3 OH2  OT    -0.834000       15.9994           0
   63663 WT3  8427 TIP3 H1   HT     0.417000        1.0080           0
   63664 WT3  8427 TIP3 H2   HT     0.417000        1.0080           0
   63665 WT3  8428 TIP3 OH2  OT    -0.834000       15.9994           0
   63666 WT3  8428 TIP3 H1   HT     0.417000        1.0080           0
   63667 WT3  8428 TIP3 H2   HT     0.417000        1.0080           0
   63668 WT3  8429 TIP3 OH2  OT    -0.834000       15.9994           0
   63669 WT3  8429 TIP3 H1   HT     0.417000        1.0080           0
   63670 WT3  8429 TIP3 H2   HT     0.417000        1.0080           0
   63671 WT3  8430 TIP3 OH2  OT    -0.834000       15.9994           0
   63672 WT3  8430 TIP3 H1   HT     0.417000        1.0080           0
   63673 WT3  8430 TIP3 H2   HT     0.417000        1.0080           0
   63674 WT3  8431 TIP3 OH2  OT    -0.834000       15.9994           0
   63675 WT3  8431 TIP3 H1   HT     0.417000        1.0080           0
   63676 WT3  8431 TIP3 H2   HT     0.417000        1.0080           0
   63677 WT3  8432 TIP3 OH2  OT    -0.834000       15.9994           0
   63678 WT3  8432 TIP3 H1   HT     0.417000        1.0080           0
   63679 WT3  8432 TIP3 H2   HT     0.417000        1.0080           0
   63680 WT3  8433 TIP3 OH2  OT    -0.834000       15.9994           0
   63681 WT3  8433 TIP3 H1   HT     0.417000        1.0080           0
   63682 WT3  8433 TIP3 H2   HT     0.417000        1.0080           0
   63683 WT3  8435 TIP3 OH2  OT    -0.834000       15.9994           0
   63684 WT3  8435 TIP3 H1   HT     0.417000        1.0080           0
   63685 WT3  8435 TIP3 H2   HT     0.417000        1.0080           0
   63686 WT3  8441 TIP3 OH2  OT    -0.834000       15.9994           0
   63687 WT3  8441 TIP3 H1   HT     0.417000        1.0080           0
   63688 WT3  8441 TIP3 H2   HT     0.417000        1.0080           0
   63689 WT3  8442 TIP3 OH2  OT    -0.834000       15.9994           0
   63690 WT3  8442 TIP3 H1   HT     0.417000        1.0080           0
   63691 WT3  8442 TIP3 H2   HT     0.417000        1.0080           0
   63692 WT3  8444 TIP3 OH2  OT    -0.834000       15.9994           0
   63693 WT3  8444 TIP3 H1   HT     0.417000        1.0080           0
   63694 WT3  8444 TIP3 H2   HT     0.417000        1.0080           0
   63695 WT3  8445 TIP3 OH2  OT    -0.834000       15.9994           0
   63696 WT3  8445 TIP3 H1   HT     0.417000        1.0080           0
   63697 WT3  8445 TIP3 H2   HT     0.417000        1.0080           0
   63698 WT3  8446 TIP3 OH2  OT    -0.834000       15.9994           0
   63699 WT3  8446 TIP3 H1   HT     0.417000        1.0080           0
   63700 WT3  8446 TIP3 H2   HT     0.417000        1.0080           0
   63701 WT3  8448 TIP3 OH2  OT    -0.834000       15.9994           0
   63702 WT3  8448 TIP3 H1   HT     0.417000        1.0080           0
   63703 WT3  8448 TIP3 H2   HT     0.417000        1.0080           0
   63704 WT3  8449 TIP3 OH2  OT    -0.834000       15.9994           0
   63705 WT3  8449 TIP3 H1   HT     0.417000        1.0080           0
   63706 WT3  8449 TIP3 H2   HT     0.417000        1.0080           0
   63707 WT3  8450 TIP3 OH2  OT    -0.834000       15.9994           0
   63708 WT3  8450 TIP3 H1   HT     0.417000        1.0080           0
   63709 WT3  8450 TIP3 H2   HT     0.417000        1.0080           0
   63710 WT3  8451 TIP3 OH2  OT    -0.834000       15.9994           0
   63711 WT3  8451 TIP3 H1   HT     0.417000        1.0080           0
   63712 WT3  8451 TIP3 H2   HT     0.417000        1.0080           0
   63713 WT3  8453 TIP3 OH2  OT    -0.834000       15.9994           0
   63714 WT3  8453 TIP3 H1   HT     0.417000        1.0080           0
   63715 WT3  8453 TIP3 H2   HT     0.417000        1.0080           0
   63716 WT3  8454 TIP3 OH2  OT    -0.834000       15.9994           0
   63717 WT3  8454 TIP3 H1   HT     0.417000        1.0080           0
   63718 WT3  8454 TIP3 H2   HT     0.417000        1.0080           0
   63719 WT3  8455 TIP3 OH2  OT    -0.834000       15.9994           0
   63720 WT3  8455 TIP3 H1   HT     0.417000        1.0080           0
   63721 WT3  8455 TIP3 H2   HT     0.417000        1.0080           0
   63722 WT3  8456 TIP3 OH2  OT    -0.834000       15.9994           0
   63723 WT3  8456 TIP3 H1   HT     0.417000        1.0080           0
   63724 WT3  8456 TIP3 H2   HT     0.417000        1.0080           0
   63725 WT3  8457 TIP3 OH2  OT    -0.834000       15.9994           0
   63726 WT3  8457 TIP3 H1   HT     0.417000        1.0080           0
   63727 WT3  8457 TIP3 H2   HT     0.417000        1.0080           0
   63728 WT3  8462 TIP3 OH2  OT    -0.834000       15.9994           0
   63729 WT3  8462 TIP3 H1   HT     0.417000        1.0080           0
   63730 WT3  8462 TIP3 H2   HT     0.417000        1.0080           0
   63731 WT3  8465 TIP3 OH2  OT    -0.834000       15.9994           0
   63732 WT3  8465 TIP3 H1   HT     0.417000        1.0080           0
   63733 WT3  8465 TIP3 H2   HT     0.417000        1.0080           0
   63734 WT3  8466 TIP3 OH2  OT    -0.834000       15.9994           0
   63735 WT3  8466 TIP3 H1   HT     0.417000        1.0080           0
   63736 WT3  8466 TIP3 H2   HT     0.417000        1.0080           0
   63737 WT3  8468 TIP3 OH2  OT    -0.834000       15.9994           0
   63738 WT3  8468 TIP3 H1   HT     0.417000        1.0080           0
   63739 WT3  8468 TIP3 H2   HT     0.417000        1.0080           0
   63740 WT3  8469 TIP3 OH2  OT    -0.834000       15.9994           0
   63741 WT3  8469 TIP3 H1   HT     0.417000        1.0080           0
   63742 WT3  8469 TIP3 H2   HT     0.417000        1.0080           0
   63743 WT3  8471 TIP3 OH2  OT    -0.834000       15.9994           0
   63744 WT3  8471 TIP3 H1   HT     0.417000        1.0080           0
   63745 WT3  8471 TIP3 H2   HT     0.417000        1.0080           0
   63746 WT3  8472 TIP3 OH2  OT    -0.834000       15.9994           0
   63747 WT3  8472 TIP3 H1   HT     0.417000        1.0080           0
   63748 WT3  8472 TIP3 H2   HT     0.417000        1.0080           0
   63749 WT3  8473 TIP3 OH2  OT    -0.834000       15.9994           0
   63750 WT3  8473 TIP3 H1   HT     0.417000        1.0080           0
   63751 WT3  8473 TIP3 H2   HT     0.417000        1.0080           0
   63752 WT3  8474 TIP3 OH2  OT    -0.834000       15.9994           0
   63753 WT3  8474 TIP3 H1   HT     0.417000        1.0080           0
   63754 WT3  8474 TIP3 H2   HT     0.417000        1.0080           0
   63755 WT3  8476 TIP3 OH2  OT    -0.834000       15.9994           0
   63756 WT3  8476 TIP3 H1   HT     0.417000        1.0080           0
   63757 WT3  8476 TIP3 H2   HT     0.417000        1.0080           0
   63758 WT3  8480 TIP3 OH2  OT    -0.834000       15.9994           0
   63759 WT3  8480 TIP3 H1   HT     0.417000        1.0080           0
   63760 WT3  8480 TIP3 H2   HT     0.417000        1.0080           0
   63761 WT3  8486 TIP3 OH2  OT    -0.834000       15.9994           0
   63762 WT3  8486 TIP3 H1   HT     0.417000        1.0080           0
   63763 WT3  8486 TIP3 H2   HT     0.417000        1.0080           0
   63764 WT3  8487 TIP3 OH2  OT    -0.834000       15.9994           0
   63765 WT3  8487 TIP3 H1   HT     0.417000        1.0080           0
   63766 WT3  8487 TIP3 H2   HT     0.417000        1.0080           0
   63767 WT3  8488 TIP3 OH2  OT    -0.834000       15.9994           0
   63768 WT3  8488 TIP3 H1   HT     0.417000        1.0080           0
   63769 WT3  8488 TIP3 H2   HT     0.417000        1.0080           0
   63770 WT3  8489 TIP3 OH2  OT    -0.834000       15.9994           0
   63771 WT3  8489 TIP3 H1   HT     0.417000        1.0080           0
   63772 WT3  8489 TIP3 H2   HT     0.417000        1.0080           0
   63773 WT3  8490 TIP3 OH2  OT    -0.834000       15.9994           0
   63774 WT3  8490 TIP3 H1   HT     0.417000        1.0080           0
   63775 WT3  8490 TIP3 H2   HT     0.417000        1.0080           0
   63776 WT3  8491 TIP3 OH2  OT    -0.834000       15.9994           0
   63777 WT3  8491 TIP3 H1   HT     0.417000        1.0080           0
   63778 WT3  8491 TIP3 H2   HT     0.417000        1.0080           0
   63779 WT3  8492 TIP3 OH2  OT    -0.834000       15.9994           0
   63780 WT3  8492 TIP3 H1   HT     0.417000        1.0080           0
   63781 WT3  8492 TIP3 H2   HT     0.417000        1.0080           0
   63782 WT3  8494 TIP3 OH2  OT    -0.834000       15.9994           0
   63783 WT3  8494 TIP3 H1   HT     0.417000        1.0080           0
   63784 WT3  8494 TIP3 H2   HT     0.417000        1.0080           0
   63785 WT3  8495 TIP3 OH2  OT    -0.834000       15.9994           0
   63786 WT3  8495 TIP3 H1   HT     0.417000        1.0080           0
   63787 WT3  8495 TIP3 H2   HT     0.417000        1.0080           0
   63788 WT3  8498 TIP3 OH2  OT    -0.834000       15.9994           0
   63789 WT3  8498 TIP3 H1   HT     0.417000        1.0080           0
   63790 WT3  8498 TIP3 H2   HT     0.417000        1.0080           0
   63791 WT3  8499 TIP3 OH2  OT    -0.834000       15.9994           0
   63792 WT3  8499 TIP3 H1   HT     0.417000        1.0080           0
   63793 WT3  8499 TIP3 H2   HT     0.417000        1.0080           0
   63794 WT3  8504 TIP3 OH2  OT    -0.834000       15.9994           0
   63795 WT3  8504 TIP3 H1   HT     0.417000        1.0080           0
   63796 WT3  8504 TIP3 H2   HT     0.417000        1.0080           0
   63797 WT3  8507 TIP3 OH2  OT    -0.834000       15.9994           0
   63798 WT3  8507 TIP3 H1   HT     0.417000        1.0080           0
   63799 WT3  8507 TIP3 H2   HT     0.417000        1.0080           0
   63800 WT3  8508 TIP3 OH2  OT    -0.834000       15.9994           0
   63801 WT3  8508 TIP3 H1   HT     0.417000        1.0080           0
   63802 WT3  8508 TIP3 H2   HT     0.417000        1.0080           0
   63803 WT3  8509 TIP3 OH2  OT    -0.834000       15.9994           0
   63804 WT3  8509 TIP3 H1   HT     0.417000        1.0080           0
   63805 WT3  8509 TIP3 H2   HT     0.417000        1.0080           0
   63806 WT3  8512 TIP3 OH2  OT    -0.834000       15.9994           0
   63807 WT3  8512 TIP3 H1   HT     0.417000        1.0080           0
   63808 WT3  8512 TIP3 H2   HT     0.417000        1.0080           0
   63809 WT3  8513 TIP3 OH2  OT    -0.834000       15.9994           0
   63810 WT3  8513 TIP3 H1   HT     0.417000        1.0080           0
   63811 WT3  8513 TIP3 H2   HT     0.417000        1.0080           0
   63812 WT3  8515 TIP3 OH2  OT    -0.834000       15.9994           0
   63813 WT3  8515 TIP3 H1   HT     0.417000        1.0080           0
   63814 WT3  8515 TIP3 H2   HT     0.417000        1.0080           0
   63815 WT3  8516 TIP3 OH2  OT    -0.834000       15.9994           0
   63816 WT3  8516 TIP3 H1   HT     0.417000        1.0080           0
   63817 WT3  8516 TIP3 H2   HT     0.417000        1.0080           0
   63818 WT3  8517 TIP3 OH2  OT    -0.834000       15.9994           0
   63819 WT3  8517 TIP3 H1   HT     0.417000        1.0080           0
   63820 WT3  8517 TIP3 H2   HT     0.417000        1.0080           0
   63821 WT3  8519 TIP3 OH2  OT    -0.834000       15.9994           0
   63822 WT3  8519 TIP3 H1   HT     0.417000        1.0080           0
   63823 WT3  8519 TIP3 H2   HT     0.417000        1.0080           0
   63824 WT3  8520 TIP3 OH2  OT    -0.834000       15.9994           0
   63825 WT3  8520 TIP3 H1   HT     0.417000        1.0080           0
   63826 WT3  8520 TIP3 H2   HT     0.417000        1.0080           0
   63827 WT3  8528 TIP3 OH2  OT    -0.834000       15.9994           0
   63828 WT3  8528 TIP3 H1   HT     0.417000        1.0080           0
   63829 WT3  8528 TIP3 H2   HT     0.417000        1.0080           0
   63830 WT3  8529 TIP3 OH2  OT    -0.834000       15.9994           0
   63831 WT3  8529 TIP3 H1   HT     0.417000        1.0080           0
   63832 WT3  8529 TIP3 H2   HT     0.417000        1.0080           0
   63833 WT3  8530 TIP3 OH2  OT    -0.834000       15.9994           0
   63834 WT3  8530 TIP3 H1   HT     0.417000        1.0080           0
   63835 WT3  8530 TIP3 H2   HT     0.417000        1.0080           0
   63836 WT3  8531 TIP3 OH2  OT    -0.834000       15.9994           0
   63837 WT3  8531 TIP3 H1   HT     0.417000        1.0080           0
   63838 WT3  8531 TIP3 H2   HT     0.417000        1.0080           0
   63839 WT3  8532 TIP3 OH2  OT    -0.834000       15.9994           0
   63840 WT3  8532 TIP3 H1   HT     0.417000        1.0080           0
   63841 WT3  8532 TIP3 H2   HT     0.417000        1.0080           0
   63842 WT3  8533 TIP3 OH2  OT    -0.834000       15.9994           0
   63843 WT3  8533 TIP3 H1   HT     0.417000        1.0080           0
   63844 WT3  8533 TIP3 H2   HT     0.417000        1.0080           0
   63845 WT3  8534 TIP3 OH2  OT    -0.834000       15.9994           0
   63846 WT3  8534 TIP3 H1   HT     0.417000        1.0080           0
   63847 WT3  8534 TIP3 H2   HT     0.417000        1.0080           0
   63848 WT3  8535 TIP3 OH2  OT    -0.834000       15.9994           0
   63849 WT3  8535 TIP3 H1   HT     0.417000        1.0080           0
   63850 WT3  8535 TIP3 H2   HT     0.417000        1.0080           0
   63851 WT3  8536 TIP3 OH2  OT    -0.834000       15.9994           0
   63852 WT3  8536 TIP3 H1   HT     0.417000        1.0080           0
   63853 WT3  8536 TIP3 H2   HT     0.417000        1.0080           0
   63854 WT3  8538 TIP3 OH2  OT    -0.834000       15.9994           0
   63855 WT3  8538 TIP3 H1   HT     0.417000        1.0080           0
   63856 WT3  8538 TIP3 H2   HT     0.417000        1.0080           0
   63857 WT3  8539 TIP3 OH2  OT    -0.834000       15.9994           0
   63858 WT3  8539 TIP3 H1   HT     0.417000        1.0080           0
   63859 WT3  8539 TIP3 H2   HT     0.417000        1.0080           0
   63860 WT3  8540 TIP3 OH2  OT    -0.834000       15.9994           0
   63861 WT3  8540 TIP3 H1   HT     0.417000        1.0080           0
   63862 WT3  8540 TIP3 H2   HT     0.417000        1.0080           0
   63863 WT3  8541 TIP3 OH2  OT    -0.834000       15.9994           0
   63864 WT3  8541 TIP3 H1   HT     0.417000        1.0080           0
   63865 WT3  8541 TIP3 H2   HT     0.417000        1.0080           0
   63866 WT3  8544 TIP3 OH2  OT    -0.834000       15.9994           0
   63867 WT3  8544 TIP3 H1   HT     0.417000        1.0080           0
   63868 WT3  8544 TIP3 H2   HT     0.417000        1.0080           0
   63869 WT3  8545 TIP3 OH2  OT    -0.834000       15.9994           0
   63870 WT3  8545 TIP3 H1   HT     0.417000        1.0080           0
   63871 WT3  8545 TIP3 H2   HT     0.417000        1.0080           0
   63872 WT3  8548 TIP3 OH2  OT    -0.834000       15.9994           0
   63873 WT3  8548 TIP3 H1   HT     0.417000        1.0080           0
   63874 WT3  8548 TIP3 H2   HT     0.417000        1.0080           0
   63875 WT3  8549 TIP3 OH2  OT    -0.834000       15.9994           0
   63876 WT3  8549 TIP3 H1   HT     0.417000        1.0080           0
   63877 WT3  8549 TIP3 H2   HT     0.417000        1.0080           0
   63878 WT3  8550 TIP3 OH2  OT    -0.834000       15.9994           0
   63879 WT3  8550 TIP3 H1   HT     0.417000        1.0080           0
   63880 WT3  8550 TIP3 H2   HT     0.417000        1.0080           0
   63881 WT3  8551 TIP3 OH2  OT    -0.834000       15.9994           0
   63882 WT3  8551 TIP3 H1   HT     0.417000        1.0080           0
   63883 WT3  8551 TIP3 H2   HT     0.417000        1.0080           0
   63884 WT3  8553 TIP3 OH2  OT    -0.834000       15.9994           0
   63885 WT3  8553 TIP3 H1   HT     0.417000        1.0080           0
   63886 WT3  8553 TIP3 H2   HT     0.417000        1.0080           0
   63887 WT3  8554 TIP3 OH2  OT    -0.834000       15.9994           0
   63888 WT3  8554 TIP3 H1   HT     0.417000        1.0080           0
   63889 WT3  8554 TIP3 H2   HT     0.417000        1.0080           0
   63890 WT3  8556 TIP3 OH2  OT    -0.834000       15.9994           0
   63891 WT3  8556 TIP3 H1   HT     0.417000        1.0080           0
   63892 WT3  8556 TIP3 H2   HT     0.417000        1.0080           0
   63893 WT3  8557 TIP3 OH2  OT    -0.834000       15.9994           0
   63894 WT3  8557 TIP3 H1   HT     0.417000        1.0080           0
   63895 WT3  8557 TIP3 H2   HT     0.417000        1.0080           0
   63896 WT3  8558 TIP3 OH2  OT    -0.834000       15.9994           0
   63897 WT3  8558 TIP3 H1   HT     0.417000        1.0080           0
   63898 WT3  8558 TIP3 H2   HT     0.417000        1.0080           0
   63899 WT3  8559 TIP3 OH2  OT    -0.834000       15.9994           0
   63900 WT3  8559 TIP3 H1   HT     0.417000        1.0080           0
   63901 WT3  8559 TIP3 H2   HT     0.417000        1.0080           0
   63902 WT3  8560 TIP3 OH2  OT    -0.834000       15.9994           0
   63903 WT3  8560 TIP3 H1   HT     0.417000        1.0080           0
   63904 WT3  8560 TIP3 H2   HT     0.417000        1.0080           0
   63905 WT3  8562 TIP3 OH2  OT    -0.834000       15.9994           0
   63906 WT3  8562 TIP3 H1   HT     0.417000        1.0080           0
   63907 WT3  8562 TIP3 H2   HT     0.417000        1.0080           0
   63908 WT3  8563 TIP3 OH2  OT    -0.834000       15.9994           0
   63909 WT3  8563 TIP3 H1   HT     0.417000        1.0080           0
   63910 WT3  8563 TIP3 H2   HT     0.417000        1.0080           0
   63911 WT3  8564 TIP3 OH2  OT    -0.834000       15.9994           0
   63912 WT3  8564 TIP3 H1   HT     0.417000        1.0080           0
   63913 WT3  8564 TIP3 H2   HT     0.417000        1.0080           0
   63914 WT3  8565 TIP3 OH2  OT    -0.834000       15.9994           0
   63915 WT3  8565 TIP3 H1   HT     0.417000        1.0080           0
   63916 WT3  8565 TIP3 H2   HT     0.417000        1.0080           0
   63917 WT3  8571 TIP3 OH2  OT    -0.834000       15.9994           0
   63918 WT3  8571 TIP3 H1   HT     0.417000        1.0080           0
   63919 WT3  8571 TIP3 H2   HT     0.417000        1.0080           0
   63920 WT3  8572 TIP3 OH2  OT    -0.834000       15.9994           0
   63921 WT3  8572 TIP3 H1   HT     0.417000        1.0080           0
   63922 WT3  8572 TIP3 H2   HT     0.417000        1.0080           0
   63923 WT3  8573 TIP3 OH2  OT    -0.834000       15.9994           0
   63924 WT3  8573 TIP3 H1   HT     0.417000        1.0080           0
   63925 WT3  8573 TIP3 H2   HT     0.417000        1.0080           0
   63926 WT3  8574 TIP3 OH2  OT    -0.834000       15.9994           0
   63927 WT3  8574 TIP3 H1   HT     0.417000        1.0080           0
   63928 WT3  8574 TIP3 H2   HT     0.417000        1.0080           0
   63929 WT3  8575 TIP3 OH2  OT    -0.834000       15.9994           0
   63930 WT3  8575 TIP3 H1   HT     0.417000        1.0080           0
   63931 WT3  8575 TIP3 H2   HT     0.417000        1.0080           0
   63932 WT3  8576 TIP3 OH2  OT    -0.834000       15.9994           0
   63933 WT3  8576 TIP3 H1   HT     0.417000        1.0080           0
   63934 WT3  8576 TIP3 H2   HT     0.417000        1.0080           0
   63935 WT3  8578 TIP3 OH2  OT    -0.834000       15.9994           0
   63936 WT3  8578 TIP3 H1   HT     0.417000        1.0080           0
   63937 WT3  8578 TIP3 H2   HT     0.417000        1.0080           0
   63938 WT3  8579 TIP3 OH2  OT    -0.834000       15.9994           0
   63939 WT3  8579 TIP3 H1   HT     0.417000        1.0080           0
   63940 WT3  8579 TIP3 H2   HT     0.417000        1.0080           0
   63941 WT3  8580 TIP3 OH2  OT    -0.834000       15.9994           0
   63942 WT3  8580 TIP3 H1   HT     0.417000        1.0080           0
   63943 WT3  8580 TIP3 H2   HT     0.417000        1.0080           0
   63944 WT3  8582 TIP3 OH2  OT    -0.834000       15.9994           0
   63945 WT3  8582 TIP3 H1   HT     0.417000        1.0080           0
   63946 WT3  8582 TIP3 H2   HT     0.417000        1.0080           0
   63947 WT3  8583 TIP3 OH2  OT    -0.834000       15.9994           0
   63948 WT3  8583 TIP3 H1   HT     0.417000        1.0080           0
   63949 WT3  8583 TIP3 H2   HT     0.417000        1.0080           0
   63950 WT3  8588 TIP3 OH2  OT    -0.834000       15.9994           0
   63951 WT3  8588 TIP3 H1   HT     0.417000        1.0080           0
   63952 WT3  8588 TIP3 H2   HT     0.417000        1.0080           0
   63953 WT3  8590 TIP3 OH2  OT    -0.834000       15.9994           0
   63954 WT3  8590 TIP3 H1   HT     0.417000        1.0080           0
   63955 WT3  8590 TIP3 H2   HT     0.417000        1.0080           0
   63956 WT3  8591 TIP3 OH2  OT    -0.834000       15.9994           0
   63957 WT3  8591 TIP3 H1   HT     0.417000        1.0080           0
   63958 WT3  8591 TIP3 H2   HT     0.417000        1.0080           0
   63959 WT3  8592 TIP3 OH2  OT    -0.834000       15.9994           0
   63960 WT3  8592 TIP3 H1   HT     0.417000        1.0080           0
   63961 WT3  8592 TIP3 H2   HT     0.417000        1.0080           0
   63962 WT3  8593 TIP3 OH2  OT    -0.834000       15.9994           0
   63963 WT3  8593 TIP3 H1   HT     0.417000        1.0080           0
   63964 WT3  8593 TIP3 H2   HT     0.417000        1.0080           0
   63965 WT3  8594 TIP3 OH2  OT    -0.834000       15.9994           0
   63966 WT3  8594 TIP3 H1   HT     0.417000        1.0080           0
   63967 WT3  8594 TIP3 H2   HT     0.417000        1.0080           0
   63968 WT3  8595 TIP3 OH2  OT    -0.834000       15.9994           0
   63969 WT3  8595 TIP3 H1   HT     0.417000        1.0080           0
   63970 WT3  8595 TIP3 H2   HT     0.417000        1.0080           0
   63971 WT3  8596 TIP3 OH2  OT    -0.834000       15.9994           0
   63972 WT3  8596 TIP3 H1   HT     0.417000        1.0080           0
   63973 WT3  8596 TIP3 H2   HT     0.417000        1.0080           0
   63974 WT3  8597 TIP3 OH2  OT    -0.834000       15.9994           0
   63975 WT3  8597 TIP3 H1   HT     0.417000        1.0080           0
   63976 WT3  8597 TIP3 H2   HT     0.417000        1.0080           0
   63977 WT3  8598 TIP3 OH2  OT    -0.834000       15.9994           0
   63978 WT3  8598 TIP3 H1   HT     0.417000        1.0080           0
   63979 WT3  8598 TIP3 H2   HT     0.417000        1.0080           0
   63980 WT3  8599 TIP3 OH2  OT    -0.834000       15.9994           0
   63981 WT3  8599 TIP3 H1   HT     0.417000        1.0080           0
   63982 WT3  8599 TIP3 H2   HT     0.417000        1.0080           0
   63983 WT3  8600 TIP3 OH2  OT    -0.834000       15.9994           0
   63984 WT3  8600 TIP3 H1   HT     0.417000        1.0080           0
   63985 WT3  8600 TIP3 H2   HT     0.417000        1.0080           0
   63986 WT3  8601 TIP3 OH2  OT    -0.834000       15.9994           0
   63987 WT3  8601 TIP3 H1   HT     0.417000        1.0080           0
   63988 WT3  8601 TIP3 H2   HT     0.417000        1.0080           0
   63989 WT3  8602 TIP3 OH2  OT    -0.834000       15.9994           0
   63990 WT3  8602 TIP3 H1   HT     0.417000        1.0080           0
   63991 WT3  8602 TIP3 H2   HT     0.417000        1.0080           0
   63992 WT3  8606 TIP3 OH2  OT    -0.834000       15.9994           0
   63993 WT3  8606 TIP3 H1   HT     0.417000        1.0080           0
   63994 WT3  8606 TIP3 H2   HT     0.417000        1.0080           0
   63995 WT3  8607 TIP3 OH2  OT    -0.834000       15.9994           0
   63996 WT3  8607 TIP3 H1   HT     0.417000        1.0080           0
   63997 WT3  8607 TIP3 H2   HT     0.417000        1.0080           0
   63998 WT3  8611 TIP3 OH2  OT    -0.834000       15.9994           0
   63999 WT3  8611 TIP3 H1   HT     0.417000        1.0080           0
   64000 WT3  8611 TIP3 H2   HT     0.417000        1.0080           0
   64001 WT3  8613 TIP3 OH2  OT    -0.834000       15.9994           0
   64002 WT3  8613 TIP3 H1   HT     0.417000        1.0080           0
   64003 WT3  8613 TIP3 H2   HT     0.417000        1.0080           0
   64004 WT3  8614 TIP3 OH2  OT    -0.834000       15.9994           0
   64005 WT3  8614 TIP3 H1   HT     0.417000        1.0080           0
   64006 WT3  8614 TIP3 H2   HT     0.417000        1.0080           0
   64007 WT3  8616 TIP3 OH2  OT    -0.834000       15.9994           0
   64008 WT3  8616 TIP3 H1   HT     0.417000        1.0080           0
   64009 WT3  8616 TIP3 H2   HT     0.417000        1.0080           0
   64010 WT3  8617 TIP3 OH2  OT    -0.834000       15.9994           0
   64011 WT3  8617 TIP3 H1   HT     0.417000        1.0080           0
   64012 WT3  8617 TIP3 H2   HT     0.417000        1.0080           0
   64013 WT3  8618 TIP3 OH2  OT    -0.834000       15.9994           0
   64014 WT3  8618 TIP3 H1   HT     0.417000        1.0080           0
   64015 WT3  8618 TIP3 H2   HT     0.417000        1.0080           0
   64016 WT3  8619 TIP3 OH2  OT    -0.834000       15.9994           0
   64017 WT3  8619 TIP3 H1   HT     0.417000        1.0080           0
   64018 WT3  8619 TIP3 H2   HT     0.417000        1.0080           0
   64019 WT3  8620 TIP3 OH2  OT    -0.834000       15.9994           0
   64020 WT3  8620 TIP3 H1   HT     0.417000        1.0080           0
   64021 WT3  8620 TIP3 H2   HT     0.417000        1.0080           0
   64022 WT3  8621 TIP3 OH2  OT    -0.834000       15.9994           0
   64023 WT3  8621 TIP3 H1   HT     0.417000        1.0080           0
   64024 WT3  8621 TIP3 H2   HT     0.417000        1.0080           0
   64025 WT3  8622 TIP3 OH2  OT    -0.834000       15.9994           0
   64026 WT3  8622 TIP3 H1   HT     0.417000        1.0080           0
   64027 WT3  8622 TIP3 H2   HT     0.417000        1.0080           0
   64028 WT3  8623 TIP3 OH2  OT    -0.834000       15.9994           0
   64029 WT3  8623 TIP3 H1   HT     0.417000        1.0080           0
   64030 WT3  8623 TIP3 H2   HT     0.417000        1.0080           0
   64031 WT3  8624 TIP3 OH2  OT    -0.834000       15.9994           0
   64032 WT3  8624 TIP3 H1   HT     0.417000        1.0080           0
   64033 WT3  8624 TIP3 H2   HT     0.417000        1.0080           0
   64034 WT3  8627 TIP3 OH2  OT    -0.834000       15.9994           0
   64035 WT3  8627 TIP3 H1   HT     0.417000        1.0080           0
   64036 WT3  8627 TIP3 H2   HT     0.417000        1.0080           0
   64037 WT3  8628 TIP3 OH2  OT    -0.834000       15.9994           0
   64038 WT3  8628 TIP3 H1   HT     0.417000        1.0080           0
   64039 WT3  8628 TIP3 H2   HT     0.417000        1.0080           0
   64040 WT3  8631 TIP3 OH2  OT    -0.834000       15.9994           0
   64041 WT3  8631 TIP3 H1   HT     0.417000        1.0080           0
   64042 WT3  8631 TIP3 H2   HT     0.417000        1.0080           0
   64043 WT3  8632 TIP3 OH2  OT    -0.834000       15.9994           0
   64044 WT3  8632 TIP3 H1   HT     0.417000        1.0080           0
   64045 WT3  8632 TIP3 H2   HT     0.417000        1.0080           0
   64046 WT3  8633 TIP3 OH2  OT    -0.834000       15.9994           0
   64047 WT3  8633 TIP3 H1   HT     0.417000        1.0080           0
   64048 WT3  8633 TIP3 H2   HT     0.417000        1.0080           0
   64049 WT3  8634 TIP3 OH2  OT    -0.834000       15.9994           0
   64050 WT3  8634 TIP3 H1   HT     0.417000        1.0080           0
   64051 WT3  8634 TIP3 H2   HT     0.417000        1.0080           0
   64052 WT3  8636 TIP3 OH2  OT    -0.834000       15.9994           0
   64053 WT3  8636 TIP3 H1   HT     0.417000        1.0080           0
   64054 WT3  8636 TIP3 H2   HT     0.417000        1.0080           0
   64055 WT3  8637 TIP3 OH2  OT    -0.834000       15.9994           0
   64056 WT3  8637 TIP3 H1   HT     0.417000        1.0080           0
   64057 WT3  8637 TIP3 H2   HT     0.417000        1.0080           0
   64058 WT3  8638 TIP3 OH2  OT    -0.834000       15.9994           0
   64059 WT3  8638 TIP3 H1   HT     0.417000        1.0080           0
   64060 WT3  8638 TIP3 H2   HT     0.417000        1.0080           0
   64061 WT3  8639 TIP3 OH2  OT    -0.834000       15.9994           0
   64062 WT3  8639 TIP3 H1   HT     0.417000        1.0080           0
   64063 WT3  8639 TIP3 H2   HT     0.417000        1.0080           0
   64064 WT3  8640 TIP3 OH2  OT    -0.834000       15.9994           0
   64065 WT3  8640 TIP3 H1   HT     0.417000        1.0080           0
   64066 WT3  8640 TIP3 H2   HT     0.417000        1.0080           0
   64067 WT3  8641 TIP3 OH2  OT    -0.834000       15.9994           0
   64068 WT3  8641 TIP3 H1   HT     0.417000        1.0080           0
   64069 WT3  8641 TIP3 H2   HT     0.417000        1.0080           0
   64070 WT3  8642 TIP3 OH2  OT    -0.834000       15.9994           0
   64071 WT3  8642 TIP3 H1   HT     0.417000        1.0080           0
   64072 WT3  8642 TIP3 H2   HT     0.417000        1.0080           0
   64073 WT3  8643 TIP3 OH2  OT    -0.834000       15.9994           0
   64074 WT3  8643 TIP3 H1   HT     0.417000        1.0080           0
   64075 WT3  8643 TIP3 H2   HT     0.417000        1.0080           0
   64076 WT3  8644 TIP3 OH2  OT    -0.834000       15.9994           0
   64077 WT3  8644 TIP3 H1   HT     0.417000        1.0080           0
   64078 WT3  8644 TIP3 H2   HT     0.417000        1.0080           0
   64079 WT3  8645 TIP3 OH2  OT    -0.834000       15.9994           0
   64080 WT3  8645 TIP3 H1   HT     0.417000        1.0080           0
   64081 WT3  8645 TIP3 H2   HT     0.417000        1.0080           0
   64082 WT3  8646 TIP3 OH2  OT    -0.834000       15.9994           0
   64083 WT3  8646 TIP3 H1   HT     0.417000        1.0080           0
   64084 WT3  8646 TIP3 H2   HT     0.417000        1.0080           0
   64085 WT3  8647 TIP3 OH2  OT    -0.834000       15.9994           0
   64086 WT3  8647 TIP3 H1   HT     0.417000        1.0080           0
   64087 WT3  8647 TIP3 H2   HT     0.417000        1.0080           0
   64088 WT3  8653 TIP3 OH2  OT    -0.834000       15.9994           0
   64089 WT3  8653 TIP3 H1   HT     0.417000        1.0080           0
   64090 WT3  8653 TIP3 H2   HT     0.417000        1.0080           0
   64091 WT3  8654 TIP3 OH2  OT    -0.834000       15.9994           0
   64092 WT3  8654 TIP3 H1   HT     0.417000        1.0080           0
   64093 WT3  8654 TIP3 H2   HT     0.417000        1.0080           0
   64094 WT3  8656 TIP3 OH2  OT    -0.834000       15.9994           0
   64095 WT3  8656 TIP3 H1   HT     0.417000        1.0080           0
   64096 WT3  8656 TIP3 H2   HT     0.417000        1.0080           0
   64097 WT3  8657 TIP3 OH2  OT    -0.834000       15.9994           0
   64098 WT3  8657 TIP3 H1   HT     0.417000        1.0080           0
   64099 WT3  8657 TIP3 H2   HT     0.417000        1.0080           0
   64100 WT3  8658 TIP3 OH2  OT    -0.834000       15.9994           0
   64101 WT3  8658 TIP3 H1   HT     0.417000        1.0080           0
   64102 WT3  8658 TIP3 H2   HT     0.417000        1.0080           0
   64103 WT3  8660 TIP3 OH2  OT    -0.834000       15.9994           0
   64104 WT3  8660 TIP3 H1   HT     0.417000        1.0080           0
   64105 WT3  8660 TIP3 H2   HT     0.417000        1.0080           0
   64106 WT3  8662 TIP3 OH2  OT    -0.834000       15.9994           0
   64107 WT3  8662 TIP3 H1   HT     0.417000        1.0080           0
   64108 WT3  8662 TIP3 H2   HT     0.417000        1.0080           0
   64109 WT3  8663 TIP3 OH2  OT    -0.834000       15.9994           0
   64110 WT3  8663 TIP3 H1   HT     0.417000        1.0080           0
   64111 WT3  8663 TIP3 H2   HT     0.417000        1.0080           0
   64112 WT3  8664 TIP3 OH2  OT    -0.834000       15.9994           0
   64113 WT3  8664 TIP3 H1   HT     0.417000        1.0080           0
   64114 WT3  8664 TIP3 H2   HT     0.417000        1.0080           0
   64115 WT3  8665 TIP3 OH2  OT    -0.834000       15.9994           0
   64116 WT3  8665 TIP3 H1   HT     0.417000        1.0080           0
   64117 WT3  8665 TIP3 H2   HT     0.417000        1.0080           0
   64118 WT3  8667 TIP3 OH2  OT    -0.834000       15.9994           0
   64119 WT3  8667 TIP3 H1   HT     0.417000        1.0080           0
   64120 WT3  8667 TIP3 H2   HT     0.417000        1.0080           0
   64121 WT3  8670 TIP3 OH2  OT    -0.834000       15.9994           0
   64122 WT3  8670 TIP3 H1   HT     0.417000        1.0080           0
   64123 WT3  8670 TIP3 H2   HT     0.417000        1.0080           0
   64124 WT3  8675 TIP3 OH2  OT    -0.834000       15.9994           0
   64125 WT3  8675 TIP3 H1   HT     0.417000        1.0080           0
   64126 WT3  8675 TIP3 H2   HT     0.417000        1.0080           0
   64127 WT3  8676 TIP3 OH2  OT    -0.834000       15.9994           0
   64128 WT3  8676 TIP3 H1   HT     0.417000        1.0080           0
   64129 WT3  8676 TIP3 H2   HT     0.417000        1.0080           0
   64130 WT3  8677 TIP3 OH2  OT    -0.834000       15.9994           0
   64131 WT3  8677 TIP3 H1   HT     0.417000        1.0080           0
   64132 WT3  8677 TIP3 H2   HT     0.417000        1.0080           0
   64133 WT3  8678 TIP3 OH2  OT    -0.834000       15.9994           0
   64134 WT3  8678 TIP3 H1   HT     0.417000        1.0080           0
   64135 WT3  8678 TIP3 H2   HT     0.417000        1.0080           0
   64136 WT3  8679 TIP3 OH2  OT    -0.834000       15.9994           0
   64137 WT3  8679 TIP3 H1   HT     0.417000        1.0080           0
   64138 WT3  8679 TIP3 H2   HT     0.417000        1.0080           0
   64139 WT3  8680 TIP3 OH2  OT    -0.834000       15.9994           0
   64140 WT3  8680 TIP3 H1   HT     0.417000        1.0080           0
   64141 WT3  8680 TIP3 H2   HT     0.417000        1.0080           0
   64142 WT3  8681 TIP3 OH2  OT    -0.834000       15.9994           0
   64143 WT3  8681 TIP3 H1   HT     0.417000        1.0080           0
   64144 WT3  8681 TIP3 H2   HT     0.417000        1.0080           0
   64145 WT3  8682 TIP3 OH2  OT    -0.834000       15.9994           0
   64146 WT3  8682 TIP3 H1   HT     0.417000        1.0080           0
   64147 WT3  8682 TIP3 H2   HT     0.417000        1.0080           0
   64148 WT3  8683 TIP3 OH2  OT    -0.834000       15.9994           0
   64149 WT3  8683 TIP3 H1   HT     0.417000        1.0080           0
   64150 WT3  8683 TIP3 H2   HT     0.417000        1.0080           0
   64151 WT3  8684 TIP3 OH2  OT    -0.834000       15.9994           0
   64152 WT3  8684 TIP3 H1   HT     0.417000        1.0080           0
   64153 WT3  8684 TIP3 H2   HT     0.417000        1.0080           0
   64154 WT3  8685 TIP3 OH2  OT    -0.834000       15.9994           0
   64155 WT3  8685 TIP3 H1   HT     0.417000        1.0080           0
   64156 WT3  8685 TIP3 H2   HT     0.417000        1.0080           0
   64157 WT3  8687 TIP3 OH2  OT    -0.834000       15.9994           0
   64158 WT3  8687 TIP3 H1   HT     0.417000        1.0080           0
   64159 WT3  8687 TIP3 H2   HT     0.417000        1.0080           0
   64160 WT3  8688 TIP3 OH2  OT    -0.834000       15.9994           0
   64161 WT3  8688 TIP3 H1   HT     0.417000        1.0080           0
   64162 WT3  8688 TIP3 H2   HT     0.417000        1.0080           0
   64163 WT3  8689 TIP3 OH2  OT    -0.834000       15.9994           0
   64164 WT3  8689 TIP3 H1   HT     0.417000        1.0080           0
   64165 WT3  8689 TIP3 H2   HT     0.417000        1.0080           0
   64166 WT3  8690 TIP3 OH2  OT    -0.834000       15.9994           0
   64167 WT3  8690 TIP3 H1   HT     0.417000        1.0080           0
   64168 WT3  8690 TIP3 H2   HT     0.417000        1.0080           0
   64169 WT3  8691 TIP3 OH2  OT    -0.834000       15.9994           0
   64170 WT3  8691 TIP3 H1   HT     0.417000        1.0080           0
   64171 WT3  8691 TIP3 H2   HT     0.417000        1.0080           0
   64172 WT3  8694 TIP3 OH2  OT    -0.834000       15.9994           0
   64173 WT3  8694 TIP3 H1   HT     0.417000        1.0080           0
   64174 WT3  8694 TIP3 H2   HT     0.417000        1.0080           0
   64175 WT3  8695 TIP3 OH2  OT    -0.834000       15.9994           0
   64176 WT3  8695 TIP3 H1   HT     0.417000        1.0080           0
   64177 WT3  8695 TIP3 H2   HT     0.417000        1.0080           0
   64178 WT3  8696 TIP3 OH2  OT    -0.834000       15.9994           0
   64179 WT3  8696 TIP3 H1   HT     0.417000        1.0080           0
   64180 WT3  8696 TIP3 H2   HT     0.417000        1.0080           0
   64181 WT3  8697 TIP3 OH2  OT    -0.834000       15.9994           0
   64182 WT3  8697 TIP3 H1   HT     0.417000        1.0080           0
   64183 WT3  8697 TIP3 H2   HT     0.417000        1.0080           0
   64184 WT3  8699 TIP3 OH2  OT    -0.834000       15.9994           0
   64185 WT3  8699 TIP3 H1   HT     0.417000        1.0080           0
   64186 WT3  8699 TIP3 H2   HT     0.417000        1.0080           0
   64187 WT3  8702 TIP3 OH2  OT    -0.834000       15.9994           0
   64188 WT3  8702 TIP3 H1   HT     0.417000        1.0080           0
   64189 WT3  8702 TIP3 H2   HT     0.417000        1.0080           0
   64190 WT3  8703 TIP3 OH2  OT    -0.834000       15.9994           0
   64191 WT3  8703 TIP3 H1   HT     0.417000        1.0080           0
   64192 WT3  8703 TIP3 H2   HT     0.417000        1.0080           0
   64193 WT3  8704 TIP3 OH2  OT    -0.834000       15.9994           0
   64194 WT3  8704 TIP3 H1   HT     0.417000        1.0080           0
   64195 WT3  8704 TIP3 H2   HT     0.417000        1.0080           0
   64196 WT3  8705 TIP3 OH2  OT    -0.834000       15.9994           0
   64197 WT3  8705 TIP3 H1   HT     0.417000        1.0080           0
   64198 WT3  8705 TIP3 H2   HT     0.417000        1.0080           0
   64199 WT3  8706 TIP3 OH2  OT    -0.834000       15.9994           0
   64200 WT3  8706 TIP3 H1   HT     0.417000        1.0080           0
   64201 WT3  8706 TIP3 H2   HT     0.417000        1.0080           0
   64202 WT3  8707 TIP3 OH2  OT    -0.834000       15.9994           0
   64203 WT3  8707 TIP3 H1   HT     0.417000        1.0080           0
   64204 WT3  8707 TIP3 H2   HT     0.417000        1.0080           0
   64205 WT3  8708 TIP3 OH2  OT    -0.834000       15.9994           0
   64206 WT3  8708 TIP3 H1   HT     0.417000        1.0080           0
   64207 WT3  8708 TIP3 H2   HT     0.417000        1.0080           0
   64208 WT3  8712 TIP3 OH2  OT    -0.834000       15.9994           0
   64209 WT3  8712 TIP3 H1   HT     0.417000        1.0080           0
   64210 WT3  8712 TIP3 H2   HT     0.417000        1.0080           0
   64211 WT3  8714 TIP3 OH2  OT    -0.834000       15.9994           0
   64212 WT3  8714 TIP3 H1   HT     0.417000        1.0080           0
   64213 WT3  8714 TIP3 H2   HT     0.417000        1.0080           0
   64214 WT3  8715 TIP3 OH2  OT    -0.834000       15.9994           0
   64215 WT3  8715 TIP3 H1   HT     0.417000        1.0080           0
   64216 WT3  8715 TIP3 H2   HT     0.417000        1.0080           0
   64217 WT3  8716 TIP3 OH2  OT    -0.834000       15.9994           0
   64218 WT3  8716 TIP3 H1   HT     0.417000        1.0080           0
   64219 WT3  8716 TIP3 H2   HT     0.417000        1.0080           0
   64220 WT3  8717 TIP3 OH2  OT    -0.834000       15.9994           0
   64221 WT3  8717 TIP3 H1   HT     0.417000        1.0080           0
   64222 WT3  8717 TIP3 H2   HT     0.417000        1.0080           0
   64223 WT3  8718 TIP3 OH2  OT    -0.834000       15.9994           0
   64224 WT3  8718 TIP3 H1   HT     0.417000        1.0080           0
   64225 WT3  8718 TIP3 H2   HT     0.417000        1.0080           0
   64226 WT3  8719 TIP3 OH2  OT    -0.834000       15.9994           0
   64227 WT3  8719 TIP3 H1   HT     0.417000        1.0080           0
   64228 WT3  8719 TIP3 H2   HT     0.417000        1.0080           0
   64229 WT3  8720 TIP3 OH2  OT    -0.834000       15.9994           0
   64230 WT3  8720 TIP3 H1   HT     0.417000        1.0080           0
   64231 WT3  8720 TIP3 H2   HT     0.417000        1.0080           0
   64232 WT3  8721 TIP3 OH2  OT    -0.834000       15.9994           0
   64233 WT3  8721 TIP3 H1   HT     0.417000        1.0080           0
   64234 WT3  8721 TIP3 H2   HT     0.417000        1.0080           0
   64235 WT3  8722 TIP3 OH2  OT    -0.834000       15.9994           0
   64236 WT3  8722 TIP3 H1   HT     0.417000        1.0080           0
   64237 WT3  8722 TIP3 H2   HT     0.417000        1.0080           0
   64238 WT3  8723 TIP3 OH2  OT    -0.834000       15.9994           0
   64239 WT3  8723 TIP3 H1   HT     0.417000        1.0080           0
   64240 WT3  8723 TIP3 H2   HT     0.417000        1.0080           0
   64241 WT3  8725 TIP3 OH2  OT    -0.834000       15.9994           0
   64242 WT3  8725 TIP3 H1   HT     0.417000        1.0080           0
   64243 WT3  8725 TIP3 H2   HT     0.417000        1.0080           0
   64244 WT3  8726 TIP3 OH2  OT    -0.834000       15.9994           0
   64245 WT3  8726 TIP3 H1   HT     0.417000        1.0080           0
   64246 WT3  8726 TIP3 H2   HT     0.417000        1.0080           0
   64247 WT3  8727 TIP3 OH2  OT    -0.834000       15.9994           0
   64248 WT3  8727 TIP3 H1   HT     0.417000        1.0080           0
   64249 WT3  8727 TIP3 H2   HT     0.417000        1.0080           0
   64250 WT3  8729 TIP3 OH2  OT    -0.834000       15.9994           0
   64251 WT3  8729 TIP3 H1   HT     0.417000        1.0080           0
   64252 WT3  8729 TIP3 H2   HT     0.417000        1.0080           0
   64253 WT3  8730 TIP3 OH2  OT    -0.834000       15.9994           0
   64254 WT3  8730 TIP3 H1   HT     0.417000        1.0080           0
   64255 WT3  8730 TIP3 H2   HT     0.417000        1.0080           0
   64256 WT3  8731 TIP3 OH2  OT    -0.834000       15.9994           0
   64257 WT3  8731 TIP3 H1   HT     0.417000        1.0080           0
   64258 WT3  8731 TIP3 H2   HT     0.417000        1.0080           0
   64259 WT3  8732 TIP3 OH2  OT    -0.834000       15.9994           0
   64260 WT3  8732 TIP3 H1   HT     0.417000        1.0080           0
   64261 WT3  8732 TIP3 H2   HT     0.417000        1.0080           0
   64262 WT3  8734 TIP3 OH2  OT    -0.834000       15.9994           0
   64263 WT3  8734 TIP3 H1   HT     0.417000        1.0080           0
   64264 WT3  8734 TIP3 H2   HT     0.417000        1.0080           0
   64265 WT3  8737 TIP3 OH2  OT    -0.834000       15.9994           0
   64266 WT3  8737 TIP3 H1   HT     0.417000        1.0080           0
   64267 WT3  8737 TIP3 H2   HT     0.417000        1.0080           0
   64268 WT3  8738 TIP3 OH2  OT    -0.834000       15.9994           0
   64269 WT3  8738 TIP3 H1   HT     0.417000        1.0080           0
   64270 WT3  8738 TIP3 H2   HT     0.417000        1.0080           0
   64271 WT3  8739 TIP3 OH2  OT    -0.834000       15.9994           0
   64272 WT3  8739 TIP3 H1   HT     0.417000        1.0080           0
   64273 WT3  8739 TIP3 H2   HT     0.417000        1.0080           0
   64274 WT3  8740 TIP3 OH2  OT    -0.834000       15.9994           0
   64275 WT3  8740 TIP3 H1   HT     0.417000        1.0080           0
   64276 WT3  8740 TIP3 H2   HT     0.417000        1.0080           0
   64277 WT3  8741 TIP3 OH2  OT    -0.834000       15.9994           0
   64278 WT3  8741 TIP3 H1   HT     0.417000        1.0080           0
   64279 WT3  8741 TIP3 H2   HT     0.417000        1.0080           0
   64280 WT3  8743 TIP3 OH2  OT    -0.834000       15.9994           0
   64281 WT3  8743 TIP3 H1   HT     0.417000        1.0080           0
   64282 WT3  8743 TIP3 H2   HT     0.417000        1.0080           0
   64283 WT3  8744 TIP3 OH2  OT    -0.834000       15.9994           0
   64284 WT3  8744 TIP3 H1   HT     0.417000        1.0080           0
   64285 WT3  8744 TIP3 H2   HT     0.417000        1.0080           0
   64286 WT3  8745 TIP3 OH2  OT    -0.834000       15.9994           0
   64287 WT3  8745 TIP3 H1   HT     0.417000        1.0080           0
   64288 WT3  8745 TIP3 H2   HT     0.417000        1.0080           0
   64289 WT3  8746 TIP3 OH2  OT    -0.834000       15.9994           0
   64290 WT3  8746 TIP3 H1   HT     0.417000        1.0080           0
   64291 WT3  8746 TIP3 H2   HT     0.417000        1.0080           0
   64292 WT3  8747 TIP3 OH2  OT    -0.834000       15.9994           0
   64293 WT3  8747 TIP3 H1   HT     0.417000        1.0080           0
   64294 WT3  8747 TIP3 H2   HT     0.417000        1.0080           0
   64295 WT3  8748 TIP3 OH2  OT    -0.834000       15.9994           0
   64296 WT3  8748 TIP3 H1   HT     0.417000        1.0080           0
   64297 WT3  8748 TIP3 H2   HT     0.417000        1.0080           0
   64298 WT3  8751 TIP3 OH2  OT    -0.834000       15.9994           0
   64299 WT3  8751 TIP3 H1   HT     0.417000        1.0080           0
   64300 WT3  8751 TIP3 H2   HT     0.417000        1.0080           0
   64301 WT3  8752 TIP3 OH2  OT    -0.834000       15.9994           0
   64302 WT3  8752 TIP3 H1   HT     0.417000        1.0080           0
   64303 WT3  8752 TIP3 H2   HT     0.417000        1.0080           0
   64304 WT3  8754 TIP3 OH2  OT    -0.834000       15.9994           0
   64305 WT3  8754 TIP3 H1   HT     0.417000        1.0080           0
   64306 WT3  8754 TIP3 H2   HT     0.417000        1.0080           0
   64307 WT3  8759 TIP3 OH2  OT    -0.834000       15.9994           0
   64308 WT3  8759 TIP3 H1   HT     0.417000        1.0080           0
   64309 WT3  8759 TIP3 H2   HT     0.417000        1.0080           0
   64310 WT3  8760 TIP3 OH2  OT    -0.834000       15.9994           0
   64311 WT3  8760 TIP3 H1   HT     0.417000        1.0080           0
   64312 WT3  8760 TIP3 H2   HT     0.417000        1.0080           0
   64313 WT3  8763 TIP3 OH2  OT    -0.834000       15.9994           0
   64314 WT3  8763 TIP3 H1   HT     0.417000        1.0080           0
   64315 WT3  8763 TIP3 H2   HT     0.417000        1.0080           0
   64316 WT3  8764 TIP3 OH2  OT    -0.834000       15.9994           0
   64317 WT3  8764 TIP3 H1   HT     0.417000        1.0080           0
   64318 WT3  8764 TIP3 H2   HT     0.417000        1.0080           0
   64319 WT3  8765 TIP3 OH2  OT    -0.834000       15.9994           0
   64320 WT3  8765 TIP3 H1   HT     0.417000        1.0080           0
   64321 WT3  8765 TIP3 H2   HT     0.417000        1.0080           0
   64322 WT3  8766 TIP3 OH2  OT    -0.834000       15.9994           0
   64323 WT3  8766 TIP3 H1   HT     0.417000        1.0080           0
   64324 WT3  8766 TIP3 H2   HT     0.417000        1.0080           0
   64325 WT3  8767 TIP3 OH2  OT    -0.834000       15.9994           0
   64326 WT3  8767 TIP3 H1   HT     0.417000        1.0080           0
   64327 WT3  8767 TIP3 H2   HT     0.417000        1.0080           0
   64328 WT3  8768 TIP3 OH2  OT    -0.834000       15.9994           0
   64329 WT3  8768 TIP3 H1   HT     0.417000        1.0080           0
   64330 WT3  8768 TIP3 H2   HT     0.417000        1.0080           0
   64331 WT3  8770 TIP3 OH2  OT    -0.834000       15.9994           0
   64332 WT3  8770 TIP3 H1   HT     0.417000        1.0080           0
   64333 WT3  8770 TIP3 H2   HT     0.417000        1.0080           0
   64334 WT3  8773 TIP3 OH2  OT    -0.834000       15.9994           0
   64335 WT3  8773 TIP3 H1   HT     0.417000        1.0080           0
   64336 WT3  8773 TIP3 H2   HT     0.417000        1.0080           0
   64337 WT3  8774 TIP3 OH2  OT    -0.834000       15.9994           0
   64338 WT3  8774 TIP3 H1   HT     0.417000        1.0080           0
   64339 WT3  8774 TIP3 H2   HT     0.417000        1.0080           0
   64340 WT3  8777 TIP3 OH2  OT    -0.834000       15.9994           0
   64341 WT3  8777 TIP3 H1   HT     0.417000        1.0080           0
   64342 WT3  8777 TIP3 H2   HT     0.417000        1.0080           0
   64343 WT3  8779 TIP3 OH2  OT    -0.834000       15.9994           0
   64344 WT3  8779 TIP3 H1   HT     0.417000        1.0080           0
   64345 WT3  8779 TIP3 H2   HT     0.417000        1.0080           0
   64346 WT3  8783 TIP3 OH2  OT    -0.834000       15.9994           0
   64347 WT3  8783 TIP3 H1   HT     0.417000        1.0080           0
   64348 WT3  8783 TIP3 H2   HT     0.417000        1.0080           0
   64349 WT3  8784 TIP3 OH2  OT    -0.834000       15.9994           0
   64350 WT3  8784 TIP3 H1   HT     0.417000        1.0080           0
   64351 WT3  8784 TIP3 H2   HT     0.417000        1.0080           0
   64352 WT3  8785 TIP3 OH2  OT    -0.834000       15.9994           0
   64353 WT3  8785 TIP3 H1   HT     0.417000        1.0080           0
   64354 WT3  8785 TIP3 H2   HT     0.417000        1.0080           0
   64355 WT3  8787 TIP3 OH2  OT    -0.834000       15.9994           0
   64356 WT3  8787 TIP3 H1   HT     0.417000        1.0080           0
   64357 WT3  8787 TIP3 H2   HT     0.417000        1.0080           0
   64358 WT3  8788 TIP3 OH2  OT    -0.834000       15.9994           0
   64359 WT3  8788 TIP3 H1   HT     0.417000        1.0080           0
   64360 WT3  8788 TIP3 H2   HT     0.417000        1.0080           0
   64361 WT3  8790 TIP3 OH2  OT    -0.834000       15.9994           0
   64362 WT3  8790 TIP3 H1   HT     0.417000        1.0080           0
   64363 WT3  8790 TIP3 H2   HT     0.417000        1.0080           0
   64364 WT3  8791 TIP3 OH2  OT    -0.834000       15.9994           0
   64365 WT3  8791 TIP3 H1   HT     0.417000        1.0080           0
   64366 WT3  8791 TIP3 H2   HT     0.417000        1.0080           0
   64367 WT3  8793 TIP3 OH2  OT    -0.834000       15.9994           0
   64368 WT3  8793 TIP3 H1   HT     0.417000        1.0080           0
   64369 WT3  8793 TIP3 H2   HT     0.417000        1.0080           0
   64370 WT3  8794 TIP3 OH2  OT    -0.834000       15.9994           0
   64371 WT3  8794 TIP3 H1   HT     0.417000        1.0080           0
   64372 WT3  8794 TIP3 H2   HT     0.417000        1.0080           0
   64373 WT3  8795 TIP3 OH2  OT    -0.834000       15.9994           0
   64374 WT3  8795 TIP3 H1   HT     0.417000        1.0080           0
   64375 WT3  8795 TIP3 H2   HT     0.417000        1.0080           0
   64376 WT3  8796 TIP3 OH2  OT    -0.834000       15.9994           0
   64377 WT3  8796 TIP3 H1   HT     0.417000        1.0080           0
   64378 WT3  8796 TIP3 H2   HT     0.417000        1.0080           0
   64379 WT3  8797 TIP3 OH2  OT    -0.834000       15.9994           0
   64380 WT3  8797 TIP3 H1   HT     0.417000        1.0080           0
   64381 WT3  8797 TIP3 H2   HT     0.417000        1.0080           0
   64382 WT3  8800 TIP3 OH2  OT    -0.834000       15.9994           0
   64383 WT3  8800 TIP3 H1   HT     0.417000        1.0080           0
   64384 WT3  8800 TIP3 H2   HT     0.417000        1.0080           0
   64385 WT3  8802 TIP3 OH2  OT    -0.834000       15.9994           0
   64386 WT3  8802 TIP3 H1   HT     0.417000        1.0080           0
   64387 WT3  8802 TIP3 H2   HT     0.417000        1.0080           0
   64388 WT3  8803 TIP3 OH2  OT    -0.834000       15.9994           0
   64389 WT3  8803 TIP3 H1   HT     0.417000        1.0080           0
   64390 WT3  8803 TIP3 H2   HT     0.417000        1.0080           0
   64391 WT3  8804 TIP3 OH2  OT    -0.834000       15.9994           0
   64392 WT3  8804 TIP3 H1   HT     0.417000        1.0080           0
   64393 WT3  8804 TIP3 H2   HT     0.417000        1.0080           0
   64394 WT3  8805 TIP3 OH2  OT    -0.834000       15.9994           0
   64395 WT3  8805 TIP3 H1   HT     0.417000        1.0080           0
   64396 WT3  8805 TIP3 H2   HT     0.417000        1.0080           0
   64397 WT3  8806 TIP3 OH2  OT    -0.834000       15.9994           0
   64398 WT3  8806 TIP3 H1   HT     0.417000        1.0080           0
   64399 WT3  8806 TIP3 H2   HT     0.417000        1.0080           0
   64400 WT3  8808 TIP3 OH2  OT    -0.834000       15.9994           0
   64401 WT3  8808 TIP3 H1   HT     0.417000        1.0080           0
   64402 WT3  8808 TIP3 H2   HT     0.417000        1.0080           0
   64403 WT3  8809 TIP3 OH2  OT    -0.834000       15.9994           0
   64404 WT3  8809 TIP3 H1   HT     0.417000        1.0080           0
   64405 WT3  8809 TIP3 H2   HT     0.417000        1.0080           0
   64406 WT3  8810 TIP3 OH2  OT    -0.834000       15.9994           0
   64407 WT3  8810 TIP3 H1   HT     0.417000        1.0080           0
   64408 WT3  8810 TIP3 H2   HT     0.417000        1.0080           0
   64409 WT3  8811 TIP3 OH2  OT    -0.834000       15.9994           0
   64410 WT3  8811 TIP3 H1   HT     0.417000        1.0080           0
   64411 WT3  8811 TIP3 H2   HT     0.417000        1.0080           0
   64412 WT3  8812 TIP3 OH2  OT    -0.834000       15.9994           0
   64413 WT3  8812 TIP3 H1   HT     0.417000        1.0080           0
   64414 WT3  8812 TIP3 H2   HT     0.417000        1.0080           0
   64415 WT3  8814 TIP3 OH2  OT    -0.834000       15.9994           0
   64416 WT3  8814 TIP3 H1   HT     0.417000        1.0080           0
   64417 WT3  8814 TIP3 H2   HT     0.417000        1.0080           0
   64418 WT3  8815 TIP3 OH2  OT    -0.834000       15.9994           0
   64419 WT3  8815 TIP3 H1   HT     0.417000        1.0080           0
   64420 WT3  8815 TIP3 H2   HT     0.417000        1.0080           0
   64421 WT3  8816 TIP3 OH2  OT    -0.834000       15.9994           0
   64422 WT3  8816 TIP3 H1   HT     0.417000        1.0080           0
   64423 WT3  8816 TIP3 H2   HT     0.417000        1.0080           0
   64424 WT3  8817 TIP3 OH2  OT    -0.834000       15.9994           0
   64425 WT3  8817 TIP3 H1   HT     0.417000        1.0080           0
   64426 WT3  8817 TIP3 H2   HT     0.417000        1.0080           0
   64427 WT3  8820 TIP3 OH2  OT    -0.834000       15.9994           0
   64428 WT3  8820 TIP3 H1   HT     0.417000        1.0080           0
   64429 WT3  8820 TIP3 H2   HT     0.417000        1.0080           0
   64430 WT3  8822 TIP3 OH2  OT    -0.834000       15.9994           0
   64431 WT3  8822 TIP3 H1   HT     0.417000        1.0080           0
   64432 WT3  8822 TIP3 H2   HT     0.417000        1.0080           0
   64433 WT3  8823 TIP3 OH2  OT    -0.834000       15.9994           0
   64434 WT3  8823 TIP3 H1   HT     0.417000        1.0080           0
   64435 WT3  8823 TIP3 H2   HT     0.417000        1.0080           0
   64436 WT3  8826 TIP3 OH2  OT    -0.834000       15.9994           0
   64437 WT3  8826 TIP3 H1   HT     0.417000        1.0080           0
   64438 WT3  8826 TIP3 H2   HT     0.417000        1.0080           0
   64439 WT3  8827 TIP3 OH2  OT    -0.834000       15.9994           0
   64440 WT3  8827 TIP3 H1   HT     0.417000        1.0080           0
   64441 WT3  8827 TIP3 H2   HT     0.417000        1.0080           0
   64442 WT3  8828 TIP3 OH2  OT    -0.834000       15.9994           0
   64443 WT3  8828 TIP3 H1   HT     0.417000        1.0080           0
   64444 WT3  8828 TIP3 H2   HT     0.417000        1.0080           0
   64445 WT3  8829 TIP3 OH2  OT    -0.834000       15.9994           0
   64446 WT3  8829 TIP3 H1   HT     0.417000        1.0080           0
   64447 WT3  8829 TIP3 H2   HT     0.417000        1.0080           0
   64448 WT3  8830 TIP3 OH2  OT    -0.834000       15.9994           0
   64449 WT3  8830 TIP3 H1   HT     0.417000        1.0080           0
   64450 WT3  8830 TIP3 H2   HT     0.417000        1.0080           0
   64451 WT3  8832 TIP3 OH2  OT    -0.834000       15.9994           0
   64452 WT3  8832 TIP3 H1   HT     0.417000        1.0080           0
   64453 WT3  8832 TIP3 H2   HT     0.417000        1.0080           0
   64454 WT3  8834 TIP3 OH2  OT    -0.834000       15.9994           0
   64455 WT3  8834 TIP3 H1   HT     0.417000        1.0080           0
   64456 WT3  8834 TIP3 H2   HT     0.417000        1.0080           0
   64457 WT3  8836 TIP3 OH2  OT    -0.834000       15.9994           0
   64458 WT3  8836 TIP3 H1   HT     0.417000        1.0080           0
   64459 WT3  8836 TIP3 H2   HT     0.417000        1.0080           0
   64460 WT3  8842 TIP3 OH2  OT    -0.834000       15.9994           0
   64461 WT3  8842 TIP3 H1   HT     0.417000        1.0080           0
   64462 WT3  8842 TIP3 H2   HT     0.417000        1.0080           0
   64463 WT3  8843 TIP3 OH2  OT    -0.834000       15.9994           0
   64464 WT3  8843 TIP3 H1   HT     0.417000        1.0080           0
   64465 WT3  8843 TIP3 H2   HT     0.417000        1.0080           0
   64466 WT3  8844 TIP3 OH2  OT    -0.834000       15.9994           0
   64467 WT3  8844 TIP3 H1   HT     0.417000        1.0080           0
   64468 WT3  8844 TIP3 H2   HT     0.417000        1.0080           0
   64469 WT3  8846 TIP3 OH2  OT    -0.834000       15.9994           0
   64470 WT3  8846 TIP3 H1   HT     0.417000        1.0080           0
   64471 WT3  8846 TIP3 H2   HT     0.417000        1.0080           0
   64472 WT3  8847 TIP3 OH2  OT    -0.834000       15.9994           0
   64473 WT3  8847 TIP3 H1   HT     0.417000        1.0080           0
   64474 WT3  8847 TIP3 H2   HT     0.417000        1.0080           0
   64475 WT3  8848 TIP3 OH2  OT    -0.834000       15.9994           0
   64476 WT3  8848 TIP3 H1   HT     0.417000        1.0080           0
   64477 WT3  8848 TIP3 H2   HT     0.417000        1.0080           0
   64478 WT3  8849 TIP3 OH2  OT    -0.834000       15.9994           0
   64479 WT3  8849 TIP3 H1   HT     0.417000        1.0080           0
   64480 WT3  8849 TIP3 H2   HT     0.417000        1.0080           0
   64481 WT3  8850 TIP3 OH2  OT    -0.834000       15.9994           0
   64482 WT3  8850 TIP3 H1   HT     0.417000        1.0080           0
   64483 WT3  8850 TIP3 H2   HT     0.417000        1.0080           0
   64484 WT3  8851 TIP3 OH2  OT    -0.834000       15.9994           0
   64485 WT3  8851 TIP3 H1   HT     0.417000        1.0080           0
   64486 WT3  8851 TIP3 H2   HT     0.417000        1.0080           0
   64487 WT3  8852 TIP3 OH2  OT    -0.834000       15.9994           0
   64488 WT3  8852 TIP3 H1   HT     0.417000        1.0080           0
   64489 WT3  8852 TIP3 H2   HT     0.417000        1.0080           0
   64490 WT3  8853 TIP3 OH2  OT    -0.834000       15.9994           0
   64491 WT3  8853 TIP3 H1   HT     0.417000        1.0080           0
   64492 WT3  8853 TIP3 H2   HT     0.417000        1.0080           0
   64493 WT3  8858 TIP3 OH2  OT    -0.834000       15.9994           0
   64494 WT3  8858 TIP3 H1   HT     0.417000        1.0080           0
   64495 WT3  8858 TIP3 H2   HT     0.417000        1.0080           0
   64496 WT3  8863 TIP3 OH2  OT    -0.834000       15.9994           0
   64497 WT3  8863 TIP3 H1   HT     0.417000        1.0080           0
   64498 WT3  8863 TIP3 H2   HT     0.417000        1.0080           0
   64499 WT3  8865 TIP3 OH2  OT    -0.834000       15.9994           0
   64500 WT3  8865 TIP3 H1   HT     0.417000        1.0080           0
   64501 WT3  8865 TIP3 H2   HT     0.417000        1.0080           0
   64502 WT3  8868 TIP3 OH2  OT    -0.834000       15.9994           0
   64503 WT3  8868 TIP3 H1   HT     0.417000        1.0080           0
   64504 WT3  8868 TIP3 H2   HT     0.417000        1.0080           0
   64505 WT3  8869 TIP3 OH2  OT    -0.834000       15.9994           0
   64506 WT3  8869 TIP3 H1   HT     0.417000        1.0080           0
   64507 WT3  8869 TIP3 H2   HT     0.417000        1.0080           0
   64508 WT3  8870 TIP3 OH2  OT    -0.834000       15.9994           0
   64509 WT3  8870 TIP3 H1   HT     0.417000        1.0080           0
   64510 WT3  8870 TIP3 H2   HT     0.417000        1.0080           0
   64511 WT3  8871 TIP3 OH2  OT    -0.834000       15.9994           0
   64512 WT3  8871 TIP3 H1   HT     0.417000        1.0080           0
   64513 WT3  8871 TIP3 H2   HT     0.417000        1.0080           0
   64514 WT3  8872 TIP3 OH2  OT    -0.834000       15.9994           0
   64515 WT3  8872 TIP3 H1   HT     0.417000        1.0080           0
   64516 WT3  8872 TIP3 H2   HT     0.417000        1.0080           0
   64517 WT3  8873 TIP3 OH2  OT    -0.834000       15.9994           0
   64518 WT3  8873 TIP3 H1   HT     0.417000        1.0080           0
   64519 WT3  8873 TIP3 H2   HT     0.417000        1.0080           0
   64520 WT3  8874 TIP3 OH2  OT    -0.834000       15.9994           0
   64521 WT3  8874 TIP3 H1   HT     0.417000        1.0080           0
   64522 WT3  8874 TIP3 H2   HT     0.417000        1.0080           0
   64523 WT3  8875 TIP3 OH2  OT    -0.834000       15.9994           0
   64524 WT3  8875 TIP3 H1   HT     0.417000        1.0080           0
   64525 WT3  8875 TIP3 H2   HT     0.417000        1.0080           0
   64526 WT3  8877 TIP3 OH2  OT    -0.834000       15.9994           0
   64527 WT3  8877 TIP3 H1   HT     0.417000        1.0080           0
   64528 WT3  8877 TIP3 H2   HT     0.417000        1.0080           0
   64529 WT3  8878 TIP3 OH2  OT    -0.834000       15.9994           0
   64530 WT3  8878 TIP3 H1   HT     0.417000        1.0080           0
   64531 WT3  8878 TIP3 H2   HT     0.417000        1.0080           0
   64532 WT3  8880 TIP3 OH2  OT    -0.834000       15.9994           0
   64533 WT3  8880 TIP3 H1   HT     0.417000        1.0080           0
   64534 WT3  8880 TIP3 H2   HT     0.417000        1.0080           0
   64535 WT3  8883 TIP3 OH2  OT    -0.834000       15.9994           0
   64536 WT3  8883 TIP3 H1   HT     0.417000        1.0080           0
   64537 WT3  8883 TIP3 H2   HT     0.417000        1.0080           0
   64538 WT3  8884 TIP3 OH2  OT    -0.834000       15.9994           0
   64539 WT3  8884 TIP3 H1   HT     0.417000        1.0080           0
   64540 WT3  8884 TIP3 H2   HT     0.417000        1.0080           0
   64541 WT3  8885 TIP3 OH2  OT    -0.834000       15.9994           0
   64542 WT3  8885 TIP3 H1   HT     0.417000        1.0080           0
   64543 WT3  8885 TIP3 H2   HT     0.417000        1.0080           0
   64544 WT3  8886 TIP3 OH2  OT    -0.834000       15.9994           0
   64545 WT3  8886 TIP3 H1   HT     0.417000        1.0080           0
   64546 WT3  8886 TIP3 H2   HT     0.417000        1.0080           0
   64547 WT3  8887 TIP3 OH2  OT    -0.834000       15.9994           0
   64548 WT3  8887 TIP3 H1   HT     0.417000        1.0080           0
   64549 WT3  8887 TIP3 H2   HT     0.417000        1.0080           0
   64550 WT3  8889 TIP3 OH2  OT    -0.834000       15.9994           0
   64551 WT3  8889 TIP3 H1   HT     0.417000        1.0080           0
   64552 WT3  8889 TIP3 H2   HT     0.417000        1.0080           0
   64553 WT3  8890 TIP3 OH2  OT    -0.834000       15.9994           0
   64554 WT3  8890 TIP3 H1   HT     0.417000        1.0080           0
   64555 WT3  8890 TIP3 H2   HT     0.417000        1.0080           0
   64556 WT3  8893 TIP3 OH2  OT    -0.834000       15.9994           0
   64557 WT3  8893 TIP3 H1   HT     0.417000        1.0080           0
   64558 WT3  8893 TIP3 H2   HT     0.417000        1.0080           0
   64559 WT3  8894 TIP3 OH2  OT    -0.834000       15.9994           0
   64560 WT3  8894 TIP3 H1   HT     0.417000        1.0080           0
   64561 WT3  8894 TIP3 H2   HT     0.417000        1.0080           0
   64562 WT3  8895 TIP3 OH2  OT    -0.834000       15.9994           0
   64563 WT3  8895 TIP3 H1   HT     0.417000        1.0080           0
   64564 WT3  8895 TIP3 H2   HT     0.417000        1.0080           0
   64565 WT3  8896 TIP3 OH2  OT    -0.834000       15.9994           0
   64566 WT3  8896 TIP3 H1   HT     0.417000        1.0080           0
   64567 WT3  8896 TIP3 H2   HT     0.417000        1.0080           0
   64568 WT3  8897 TIP3 OH2  OT    -0.834000       15.9994           0
   64569 WT3  8897 TIP3 H1   HT     0.417000        1.0080           0
   64570 WT3  8897 TIP3 H2   HT     0.417000        1.0080           0
   64571 WT3  8898 TIP3 OH2  OT    -0.834000       15.9994           0
   64572 WT3  8898 TIP3 H1   HT     0.417000        1.0080           0
   64573 WT3  8898 TIP3 H2   HT     0.417000        1.0080           0
   64574 WT3  8901 TIP3 OH2  OT    -0.834000       15.9994           0
   64575 WT3  8901 TIP3 H1   HT     0.417000        1.0080           0
   64576 WT3  8901 TIP3 H2   HT     0.417000        1.0080           0
   64577 WT3  8903 TIP3 OH2  OT    -0.834000       15.9994           0
   64578 WT3  8903 TIP3 H1   HT     0.417000        1.0080           0
   64579 WT3  8903 TIP3 H2   HT     0.417000        1.0080           0
   64580 WT3  8905 TIP3 OH2  OT    -0.834000       15.9994           0
   64581 WT3  8905 TIP3 H1   HT     0.417000        1.0080           0
   64582 WT3  8905 TIP3 H2   HT     0.417000        1.0080           0
   64583 WT3  8906 TIP3 OH2  OT    -0.834000       15.9994           0
   64584 WT3  8906 TIP3 H1   HT     0.417000        1.0080           0
   64585 WT3  8906 TIP3 H2   HT     0.417000        1.0080           0
   64586 WT3  8908 TIP3 OH2  OT    -0.834000       15.9994           0
   64587 WT3  8908 TIP3 H1   HT     0.417000        1.0080           0
   64588 WT3  8908 TIP3 H2   HT     0.417000        1.0080           0
   64589 WT3  8909 TIP3 OH2  OT    -0.834000       15.9994           0
   64590 WT3  8909 TIP3 H1   HT     0.417000        1.0080           0
   64591 WT3  8909 TIP3 H2   HT     0.417000        1.0080           0
   64592 WT3  8910 TIP3 OH2  OT    -0.834000       15.9994           0
   64593 WT3  8910 TIP3 H1   HT     0.417000        1.0080           0
   64594 WT3  8910 TIP3 H2   HT     0.417000        1.0080           0
   64595 WT3  8911 TIP3 OH2  OT    -0.834000       15.9994           0
   64596 WT3  8911 TIP3 H1   HT     0.417000        1.0080           0
   64597 WT3  8911 TIP3 H2   HT     0.417000        1.0080           0
   64598 WT3  8912 TIP3 OH2  OT    -0.834000       15.9994           0
   64599 WT3  8912 TIP3 H1   HT     0.417000        1.0080           0
   64600 WT3  8912 TIP3 H2   HT     0.417000        1.0080           0
   64601 WT3  8913 TIP3 OH2  OT    -0.834000       15.9994           0
   64602 WT3  8913 TIP3 H1   HT     0.417000        1.0080           0
   64603 WT3  8913 TIP3 H2   HT     0.417000        1.0080           0
   64604 WT3  8914 TIP3 OH2  OT    -0.834000       15.9994           0
   64605 WT3  8914 TIP3 H1   HT     0.417000        1.0080           0
   64606 WT3  8914 TIP3 H2   HT     0.417000        1.0080           0
   64607 WT3  8915 TIP3 OH2  OT    -0.834000       15.9994           0
   64608 WT3  8915 TIP3 H1   HT     0.417000        1.0080           0
   64609 WT3  8915 TIP3 H2   HT     0.417000        1.0080           0
   64610 WT3  8916 TIP3 OH2  OT    -0.834000       15.9994           0
   64611 WT3  8916 TIP3 H1   HT     0.417000        1.0080           0
   64612 WT3  8916 TIP3 H2   HT     0.417000        1.0080           0
   64613 WT3  8918 TIP3 OH2  OT    -0.834000       15.9994           0
   64614 WT3  8918 TIP3 H1   HT     0.417000        1.0080           0
   64615 WT3  8918 TIP3 H2   HT     0.417000        1.0080           0
   64616 WT3  8919 TIP3 OH2  OT    -0.834000       15.9994           0
   64617 WT3  8919 TIP3 H1   HT     0.417000        1.0080           0
   64618 WT3  8919 TIP3 H2   HT     0.417000        1.0080           0
   64619 WT3  8925 TIP3 OH2  OT    -0.834000       15.9994           0
   64620 WT3  8925 TIP3 H1   HT     0.417000        1.0080           0
   64621 WT3  8925 TIP3 H2   HT     0.417000        1.0080           0
   64622 WT3  8926 TIP3 OH2  OT    -0.834000       15.9994           0
   64623 WT3  8926 TIP3 H1   HT     0.417000        1.0080           0
   64624 WT3  8926 TIP3 H2   HT     0.417000        1.0080           0
   64625 WT3  8928 TIP3 OH2  OT    -0.834000       15.9994           0
   64626 WT3  8928 TIP3 H1   HT     0.417000        1.0080           0
   64627 WT3  8928 TIP3 H2   HT     0.417000        1.0080           0
   64628 WT3  8929 TIP3 OH2  OT    -0.834000       15.9994           0
   64629 WT3  8929 TIP3 H1   HT     0.417000        1.0080           0
   64630 WT3  8929 TIP3 H2   HT     0.417000        1.0080           0
   64631 WT3  8930 TIP3 OH2  OT    -0.834000       15.9994           0
   64632 WT3  8930 TIP3 H1   HT     0.417000        1.0080           0
   64633 WT3  8930 TIP3 H2   HT     0.417000        1.0080           0
   64634 WT3  8931 TIP3 OH2  OT    -0.834000       15.9994           0
   64635 WT3  8931 TIP3 H1   HT     0.417000        1.0080           0
   64636 WT3  8931 TIP3 H2   HT     0.417000        1.0080           0
   64637 WT3  8932 TIP3 OH2  OT    -0.834000       15.9994           0
   64638 WT3  8932 TIP3 H1   HT     0.417000        1.0080           0
   64639 WT3  8932 TIP3 H2   HT     0.417000        1.0080           0
   64640 WT3  8933 TIP3 OH2  OT    -0.834000       15.9994           0
   64641 WT3  8933 TIP3 H1   HT     0.417000        1.0080           0
   64642 WT3  8933 TIP3 H2   HT     0.417000        1.0080           0
   64643 WT3  8934 TIP3 OH2  OT    -0.834000       15.9994           0
   64644 WT3  8934 TIP3 H1   HT     0.417000        1.0080           0
   64645 WT3  8934 TIP3 H2   HT     0.417000        1.0080           0
   64646 WT3  8935 TIP3 OH2  OT    -0.834000       15.9994           0
   64647 WT3  8935 TIP3 H1   HT     0.417000        1.0080           0
   64648 WT3  8935 TIP3 H2   HT     0.417000        1.0080           0
   64649 WT3  8936 TIP3 OH2  OT    -0.834000       15.9994           0
   64650 WT3  8936 TIP3 H1   HT     0.417000        1.0080           0
   64651 WT3  8936 TIP3 H2   HT     0.417000        1.0080           0
   64652 WT3  8937 TIP3 OH2  OT    -0.834000       15.9994           0
   64653 WT3  8937 TIP3 H1   HT     0.417000        1.0080           0
   64654 WT3  8937 TIP3 H2   HT     0.417000        1.0080           0
   64655 WT3  8938 TIP3 OH2  OT    -0.834000       15.9994           0
   64656 WT3  8938 TIP3 H1   HT     0.417000        1.0080           0
   64657 WT3  8938 TIP3 H2   HT     0.417000        1.0080           0
   64658 WT3  8939 TIP3 OH2  OT    -0.834000       15.9994           0
   64659 WT3  8939 TIP3 H1   HT     0.417000        1.0080           0
   64660 WT3  8939 TIP3 H2   HT     0.417000        1.0080           0
   64661 WT3  8940 TIP3 OH2  OT    -0.834000       15.9994           0
   64662 WT3  8940 TIP3 H1   HT     0.417000        1.0080           0
   64663 WT3  8940 TIP3 H2   HT     0.417000        1.0080           0
   64664 WT3  8941 TIP3 OH2  OT    -0.834000       15.9994           0
   64665 WT3  8941 TIP3 H1   HT     0.417000        1.0080           0
   64666 WT3  8941 TIP3 H2   HT     0.417000        1.0080           0
   64667 WT3  8944 TIP3 OH2  OT    -0.834000       15.9994           0
   64668 WT3  8944 TIP3 H1   HT     0.417000        1.0080           0
   64669 WT3  8944 TIP3 H2   HT     0.417000        1.0080           0
   64670 WT3  8949 TIP3 OH2  OT    -0.834000       15.9994           0
   64671 WT3  8949 TIP3 H1   HT     0.417000        1.0080           0
   64672 WT3  8949 TIP3 H2   HT     0.417000        1.0080           0
   64673 WT3  8950 TIP3 OH2  OT    -0.834000       15.9994           0
   64674 WT3  8950 TIP3 H1   HT     0.417000        1.0080           0
   64675 WT3  8950 TIP3 H2   HT     0.417000        1.0080           0
   64676 WT3  8951 TIP3 OH2  OT    -0.834000       15.9994           0
   64677 WT3  8951 TIP3 H1   HT     0.417000        1.0080           0
   64678 WT3  8951 TIP3 H2   HT     0.417000        1.0080           0
   64679 WT3  8952 TIP3 OH2  OT    -0.834000       15.9994           0
   64680 WT3  8952 TIP3 H1   HT     0.417000        1.0080           0
   64681 WT3  8952 TIP3 H2   HT     0.417000        1.0080           0
   64682 WT3  8953 TIP3 OH2  OT    -0.834000       15.9994           0
   64683 WT3  8953 TIP3 H1   HT     0.417000        1.0080           0
   64684 WT3  8953 TIP3 H2   HT     0.417000        1.0080           0
   64685 WT3  8954 TIP3 OH2  OT    -0.834000       15.9994           0
   64686 WT3  8954 TIP3 H1   HT     0.417000        1.0080           0
   64687 WT3  8954 TIP3 H2   HT     0.417000        1.0080           0
   64688 WT3  8956 TIP3 OH2  OT    -0.834000       15.9994           0
   64689 WT3  8956 TIP3 H1   HT     0.417000        1.0080           0
   64690 WT3  8956 TIP3 H2   HT     0.417000        1.0080           0
   64691 WT3  8958 TIP3 OH2  OT    -0.834000       15.9994           0
   64692 WT3  8958 TIP3 H1   HT     0.417000        1.0080           0
   64693 WT3  8958 TIP3 H2   HT     0.417000        1.0080           0
   64694 WT3  8960 TIP3 OH2  OT    -0.834000       15.9994           0
   64695 WT3  8960 TIP3 H1   HT     0.417000        1.0080           0
   64696 WT3  8960 TIP3 H2   HT     0.417000        1.0080           0
   64697 WT3  8961 TIP3 OH2  OT    -0.834000       15.9994           0
   64698 WT3  8961 TIP3 H1   HT     0.417000        1.0080           0
   64699 WT3  8961 TIP3 H2   HT     0.417000        1.0080           0
   64700 WT3  8967 TIP3 OH2  OT    -0.834000       15.9994           0
   64701 WT3  8967 TIP3 H1   HT     0.417000        1.0080           0
   64702 WT3  8967 TIP3 H2   HT     0.417000        1.0080           0
   64703 WT3  8969 TIP3 OH2  OT    -0.834000       15.9994           0
   64704 WT3  8969 TIP3 H1   HT     0.417000        1.0080           0
   64705 WT3  8969 TIP3 H2   HT     0.417000        1.0080           0
   64706 WT3  8970 TIP3 OH2  OT    -0.834000       15.9994           0
   64707 WT3  8970 TIP3 H1   HT     0.417000        1.0080           0
   64708 WT3  8970 TIP3 H2   HT     0.417000        1.0080           0
   64709 WT3  8971 TIP3 OH2  OT    -0.834000       15.9994           0
   64710 WT3  8971 TIP3 H1   HT     0.417000        1.0080           0
   64711 WT3  8971 TIP3 H2   HT     0.417000        1.0080           0
   64712 WT3  8972 TIP3 OH2  OT    -0.834000       15.9994           0
   64713 WT3  8972 TIP3 H1   HT     0.417000        1.0080           0
   64714 WT3  8972 TIP3 H2   HT     0.417000        1.0080           0
   64715 WT3  8973 TIP3 OH2  OT    -0.834000       15.9994           0
   64716 WT3  8973 TIP3 H1   HT     0.417000        1.0080           0
   64717 WT3  8973 TIP3 H2   HT     0.417000        1.0080           0
   64718 WT3  8974 TIP3 OH2  OT    -0.834000       15.9994           0
   64719 WT3  8974 TIP3 H1   HT     0.417000        1.0080           0
   64720 WT3  8974 TIP3 H2   HT     0.417000        1.0080           0
   64721 WT3  8975 TIP3 OH2  OT    -0.834000       15.9994           0
   64722 WT3  8975 TIP3 H1   HT     0.417000        1.0080           0
   64723 WT3  8975 TIP3 H2   HT     0.417000        1.0080           0
   64724 WT3  8976 TIP3 OH2  OT    -0.834000       15.9994           0
   64725 WT3  8976 TIP3 H1   HT     0.417000        1.0080           0
   64726 WT3  8976 TIP3 H2   HT     0.417000        1.0080           0
   64727 WT3  8977 TIP3 OH2  OT    -0.834000       15.9994           0
   64728 WT3  8977 TIP3 H1   HT     0.417000        1.0080           0
   64729 WT3  8977 TIP3 H2   HT     0.417000        1.0080           0
   64730 WT3  8978 TIP3 OH2  OT    -0.834000       15.9994           0
   64731 WT3  8978 TIP3 H1   HT     0.417000        1.0080           0
   64732 WT3  8978 TIP3 H2   HT     0.417000        1.0080           0
   64733 WT3  8979 TIP3 OH2  OT    -0.834000       15.9994           0
   64734 WT3  8979 TIP3 H1   HT     0.417000        1.0080           0
   64735 WT3  8979 TIP3 H2   HT     0.417000        1.0080           0
   64736 WT3  8981 TIP3 OH2  OT    -0.834000       15.9994           0
   64737 WT3  8981 TIP3 H1   HT     0.417000        1.0080           0
   64738 WT3  8981 TIP3 H2   HT     0.417000        1.0080           0
   64739 WT3  8988 TIP3 OH2  OT    -0.834000       15.9994           0
   64740 WT3  8988 TIP3 H1   HT     0.417000        1.0080           0
   64741 WT3  8988 TIP3 H2   HT     0.417000        1.0080           0
   64742 WT3  8991 TIP3 OH2  OT    -0.834000       15.9994           0
   64743 WT3  8991 TIP3 H1   HT     0.417000        1.0080           0
   64744 WT3  8991 TIP3 H2   HT     0.417000        1.0080           0
   64745 WT3  8992 TIP3 OH2  OT    -0.834000       15.9994           0
   64746 WT3  8992 TIP3 H1   HT     0.417000        1.0080           0
   64747 WT3  8992 TIP3 H2   HT     0.417000        1.0080           0
   64748 WT3  8993 TIP3 OH2  OT    -0.834000       15.9994           0
   64749 WT3  8993 TIP3 H1   HT     0.417000        1.0080           0
   64750 WT3  8993 TIP3 H2   HT     0.417000        1.0080           0
   64751 WT3  8994 TIP3 OH2  OT    -0.834000       15.9994           0
   64752 WT3  8994 TIP3 H1   HT     0.417000        1.0080           0
   64753 WT3  8994 TIP3 H2   HT     0.417000        1.0080           0
   64754 WT3  8995 TIP3 OH2  OT    -0.834000       15.9994           0
   64755 WT3  8995 TIP3 H1   HT     0.417000        1.0080           0
   64756 WT3  8995 TIP3 H2   HT     0.417000        1.0080           0
   64757 WT3  8997 TIP3 OH2  OT    -0.834000       15.9994           0
   64758 WT3  8997 TIP3 H1   HT     0.417000        1.0080           0
   64759 WT3  8997 TIP3 H2   HT     0.417000        1.0080           0
   64760 WT3  8998 TIP3 OH2  OT    -0.834000       15.9994           0
   64761 WT3  8998 TIP3 H1   HT     0.417000        1.0080           0
   64762 WT3  8998 TIP3 H2   HT     0.417000        1.0080           0
   64763 WT3  8999 TIP3 OH2  OT    -0.834000       15.9994           0
   64764 WT3  8999 TIP3 H1   HT     0.417000        1.0080           0
   64765 WT3  8999 TIP3 H2   HT     0.417000        1.0080           0
   64766 WT3  9000 TIP3 OH2  OT    -0.834000       15.9994           0
   64767 WT3  9000 TIP3 H1   HT     0.417000        1.0080           0
   64768 WT3  9000 TIP3 H2   HT     0.417000        1.0080           0
   64769 WT3  9001 TIP3 OH2  OT    -0.834000       15.9994           0
   64770 WT3  9001 TIP3 H1   HT     0.417000        1.0080           0
   64771 WT3  9001 TIP3 H2   HT     0.417000        1.0080           0
   64772 WT3  9002 TIP3 OH2  OT    -0.834000       15.9994           0
   64773 WT3  9002 TIP3 H1   HT     0.417000        1.0080           0
   64774 WT3  9002 TIP3 H2   HT     0.417000        1.0080           0
   64775 WT3  9008 TIP3 OH2  OT    -0.834000       15.9994           0
   64776 WT3  9008 TIP3 H1   HT     0.417000        1.0080           0
   64777 WT3  9008 TIP3 H2   HT     0.417000        1.0080           0
   64778 WT3  9009 TIP3 OH2  OT    -0.834000       15.9994           0
   64779 WT3  9009 TIP3 H1   HT     0.417000        1.0080           0
   64780 WT3  9009 TIP3 H2   HT     0.417000        1.0080           0
   64781 WT3  9013 TIP3 OH2  OT    -0.834000       15.9994           0
   64782 WT3  9013 TIP3 H1   HT     0.417000        1.0080           0
   64783 WT3  9013 TIP3 H2   HT     0.417000        1.0080           0
   64784 WT3  9016 TIP3 OH2  OT    -0.834000       15.9994           0
   64785 WT3  9016 TIP3 H1   HT     0.417000        1.0080           0
   64786 WT3  9016 TIP3 H2   HT     0.417000        1.0080           0
   64787 WT3  9017 TIP3 OH2  OT    -0.834000       15.9994           0
   64788 WT3  9017 TIP3 H1   HT     0.417000        1.0080           0
   64789 WT3  9017 TIP3 H2   HT     0.417000        1.0080           0
   64790 WT3  9018 TIP3 OH2  OT    -0.834000       15.9994           0
   64791 WT3  9018 TIP3 H1   HT     0.417000        1.0080           0
   64792 WT3  9018 TIP3 H2   HT     0.417000        1.0080           0
   64793 WT3  9019 TIP3 OH2  OT    -0.834000       15.9994           0
   64794 WT3  9019 TIP3 H1   HT     0.417000        1.0080           0
   64795 WT3  9019 TIP3 H2   HT     0.417000        1.0080           0
   64796 WT3  9020 TIP3 OH2  OT    -0.834000       15.9994           0
   64797 WT3  9020 TIP3 H1   HT     0.417000        1.0080           0
   64798 WT3  9020 TIP3 H2   HT     0.417000        1.0080           0
   64799 WT3  9021 TIP3 OH2  OT    -0.834000       15.9994           0
   64800 WT3  9021 TIP3 H1   HT     0.417000        1.0080           0
   64801 WT3  9021 TIP3 H2   HT     0.417000        1.0080           0
   64802 WT3  9023 TIP3 OH2  OT    -0.834000       15.9994           0
   64803 WT3  9023 TIP3 H1   HT     0.417000        1.0080           0
   64804 WT3  9023 TIP3 H2   HT     0.417000        1.0080           0
   64805 WT3  9024 TIP3 OH2  OT    -0.834000       15.9994           0
   64806 WT3  9024 TIP3 H1   HT     0.417000        1.0080           0
   64807 WT3  9024 TIP3 H2   HT     0.417000        1.0080           0
   64808 WT3  9026 TIP3 OH2  OT    -0.834000       15.9994           0
   64809 WT3  9026 TIP3 H1   HT     0.417000        1.0080           0
   64810 WT3  9026 TIP3 H2   HT     0.417000        1.0080           0
   64811 WT3  9028 TIP3 OH2  OT    -0.834000       15.9994           0
   64812 WT3  9028 TIP3 H1   HT     0.417000        1.0080           0
   64813 WT3  9028 TIP3 H2   HT     0.417000        1.0080           0
   64814 WT3  9031 TIP3 OH2  OT    -0.834000       15.9994           0
   64815 WT3  9031 TIP3 H1   HT     0.417000        1.0080           0
   64816 WT3  9031 TIP3 H2   HT     0.417000        1.0080           0
   64817 WT3  9033 TIP3 OH2  OT    -0.834000       15.9994           0
   64818 WT3  9033 TIP3 H1   HT     0.417000        1.0080           0
   64819 WT3  9033 TIP3 H2   HT     0.417000        1.0080           0
   64820 WT3  9034 TIP3 OH2  OT    -0.834000       15.9994           0
   64821 WT3  9034 TIP3 H1   HT     0.417000        1.0080           0
   64822 WT3  9034 TIP3 H2   HT     0.417000        1.0080           0
   64823 WT3  9035 TIP3 OH2  OT    -0.834000       15.9994           0
   64824 WT3  9035 TIP3 H1   HT     0.417000        1.0080           0
   64825 WT3  9035 TIP3 H2   HT     0.417000        1.0080           0
   64826 WT3  9036 TIP3 OH2  OT    -0.834000       15.9994           0
   64827 WT3  9036 TIP3 H1   HT     0.417000        1.0080           0
   64828 WT3  9036 TIP3 H2   HT     0.417000        1.0080           0
   64829 WT3  9037 TIP3 OH2  OT    -0.834000       15.9994           0
   64830 WT3  9037 TIP3 H1   HT     0.417000        1.0080           0
   64831 WT3  9037 TIP3 H2   HT     0.417000        1.0080           0
   64832 WT3  9038 TIP3 OH2  OT    -0.834000       15.9994           0
   64833 WT3  9038 TIP3 H1   HT     0.417000        1.0080           0
   64834 WT3  9038 TIP3 H2   HT     0.417000        1.0080           0
   64835 WT3  9039 TIP3 OH2  OT    -0.834000       15.9994           0
   64836 WT3  9039 TIP3 H1   HT     0.417000        1.0080           0
   64837 WT3  9039 TIP3 H2   HT     0.417000        1.0080           0
   64838 WT3  9040 TIP3 OH2  OT    -0.834000       15.9994           0
   64839 WT3  9040 TIP3 H1   HT     0.417000        1.0080           0
   64840 WT3  9040 TIP3 H2   HT     0.417000        1.0080           0
   64841 WT3  9041 TIP3 OH2  OT    -0.834000       15.9994           0
   64842 WT3  9041 TIP3 H1   HT     0.417000        1.0080           0
   64843 WT3  9041 TIP3 H2   HT     0.417000        1.0080           0
   64844 WT3  9042 TIP3 OH2  OT    -0.834000       15.9994           0
   64845 WT3  9042 TIP3 H1   HT     0.417000        1.0080           0
   64846 WT3  9042 TIP3 H2   HT     0.417000        1.0080           0
   64847 WT3  9043 TIP3 OH2  OT    -0.834000       15.9994           0
   64848 WT3  9043 TIP3 H1   HT     0.417000        1.0080           0
   64849 WT3  9043 TIP3 H2   HT     0.417000        1.0080           0
   64850 WT3  9044 TIP3 OH2  OT    -0.834000       15.9994           0
   64851 WT3  9044 TIP3 H1   HT     0.417000        1.0080           0
   64852 WT3  9044 TIP3 H2   HT     0.417000        1.0080           0
   64853 WT3  9045 TIP3 OH2  OT    -0.834000       15.9994           0
   64854 WT3  9045 TIP3 H1   HT     0.417000        1.0080           0
   64855 WT3  9045 TIP3 H2   HT     0.417000        1.0080           0
   64856 WT3  9046 TIP3 OH2  OT    -0.834000       15.9994           0
   64857 WT3  9046 TIP3 H1   HT     0.417000        1.0080           0
   64858 WT3  9046 TIP3 H2   HT     0.417000        1.0080           0
   64859 WT3  9047 TIP3 OH2  OT    -0.834000       15.9994           0
   64860 WT3  9047 TIP3 H1   HT     0.417000        1.0080           0
   64861 WT3  9047 TIP3 H2   HT     0.417000        1.0080           0
   64862 WT3  9049 TIP3 OH2  OT    -0.834000       15.9994           0
   64863 WT3  9049 TIP3 H1   HT     0.417000        1.0080           0
   64864 WT3  9049 TIP3 H2   HT     0.417000        1.0080           0
   64865 WT3  9051 TIP3 OH2  OT    -0.834000       15.9994           0
   64866 WT3  9051 TIP3 H1   HT     0.417000        1.0080           0
   64867 WT3  9051 TIP3 H2   HT     0.417000        1.0080           0
   64868 WT3  9052 TIP3 OH2  OT    -0.834000       15.9994           0
   64869 WT3  9052 TIP3 H1   HT     0.417000        1.0080           0
   64870 WT3  9052 TIP3 H2   HT     0.417000        1.0080           0
   64871 WT3  9054 TIP3 OH2  OT    -0.834000       15.9994           0
   64872 WT3  9054 TIP3 H1   HT     0.417000        1.0080           0
   64873 WT3  9054 TIP3 H2   HT     0.417000        1.0080           0
   64874 WT3  9055 TIP3 OH2  OT    -0.834000       15.9994           0
   64875 WT3  9055 TIP3 H1   HT     0.417000        1.0080           0
   64876 WT3  9055 TIP3 H2   HT     0.417000        1.0080           0
   64877 WT3  9056 TIP3 OH2  OT    -0.834000       15.9994           0
   64878 WT3  9056 TIP3 H1   HT     0.417000        1.0080           0
   64879 WT3  9056 TIP3 H2   HT     0.417000        1.0080           0
   64880 WT3  9057 TIP3 OH2  OT    -0.834000       15.9994           0
   64881 WT3  9057 TIP3 H1   HT     0.417000        1.0080           0
   64882 WT3  9057 TIP3 H2   HT     0.417000        1.0080           0
   64883 WT3  9058 TIP3 OH2  OT    -0.834000       15.9994           0
   64884 WT3  9058 TIP3 H1   HT     0.417000        1.0080           0
   64885 WT3  9058 TIP3 H2   HT     0.417000        1.0080           0
   64886 WT3  9059 TIP3 OH2  OT    -0.834000       15.9994           0
   64887 WT3  9059 TIP3 H1   HT     0.417000        1.0080           0
   64888 WT3  9059 TIP3 H2   HT     0.417000        1.0080           0
   64889 WT3  9060 TIP3 OH2  OT    -0.834000       15.9994           0
   64890 WT3  9060 TIP3 H1   HT     0.417000        1.0080           0
   64891 WT3  9060 TIP3 H2   HT     0.417000        1.0080           0
   64892 WT3  9062 TIP3 OH2  OT    -0.834000       15.9994           0
   64893 WT3  9062 TIP3 H1   HT     0.417000        1.0080           0
   64894 WT3  9062 TIP3 H2   HT     0.417000        1.0080           0
   64895 WT3  9066 TIP3 OH2  OT    -0.834000       15.9994           0
   64896 WT3  9066 TIP3 H1   HT     0.417000        1.0080           0
   64897 WT3  9066 TIP3 H2   HT     0.417000        1.0080           0
   64898 WT3  9072 TIP3 OH2  OT    -0.834000       15.9994           0
   64899 WT3  9072 TIP3 H1   HT     0.417000        1.0080           0
   64900 WT3  9072 TIP3 H2   HT     0.417000        1.0080           0
   64901 WT3  9073 TIP3 OH2  OT    -0.834000       15.9994           0
   64902 WT3  9073 TIP3 H1   HT     0.417000        1.0080           0
   64903 WT3  9073 TIP3 H2   HT     0.417000        1.0080           0
   64904 WT3  9075 TIP3 OH2  OT    -0.834000       15.9994           0
   64905 WT3  9075 TIP3 H1   HT     0.417000        1.0080           0
   64906 WT3  9075 TIP3 H2   HT     0.417000        1.0080           0
   64907 WT3  9076 TIP3 OH2  OT    -0.834000       15.9994           0
   64908 WT3  9076 TIP3 H1   HT     0.417000        1.0080           0
   64909 WT3  9076 TIP3 H2   HT     0.417000        1.0080           0
   64910 WT3  9078 TIP3 OH2  OT    -0.834000       15.9994           0
   64911 WT3  9078 TIP3 H1   HT     0.417000        1.0080           0
   64912 WT3  9078 TIP3 H2   HT     0.417000        1.0080           0
   64913 WT3  9080 TIP3 OH2  OT    -0.834000       15.9994           0
   64914 WT3  9080 TIP3 H1   HT     0.417000        1.0080           0
   64915 WT3  9080 TIP3 H2   HT     0.417000        1.0080           0
   64916 WT3  9082 TIP3 OH2  OT    -0.834000       15.9994           0
   64917 WT3  9082 TIP3 H1   HT     0.417000        1.0080           0
   64918 WT3  9082 TIP3 H2   HT     0.417000        1.0080           0
   64919 WT3  9083 TIP3 OH2  OT    -0.834000       15.9994           0
   64920 WT3  9083 TIP3 H1   HT     0.417000        1.0080           0
   64921 WT3  9083 TIP3 H2   HT     0.417000        1.0080           0
   64922 WT3  9084 TIP3 OH2  OT    -0.834000       15.9994           0
   64923 WT3  9084 TIP3 H1   HT     0.417000        1.0080           0
   64924 WT3  9084 TIP3 H2   HT     0.417000        1.0080           0
   64925 WT3  9085 TIP3 OH2  OT    -0.834000       15.9994           0
   64926 WT3  9085 TIP3 H1   HT     0.417000        1.0080           0
   64927 WT3  9085 TIP3 H2   HT     0.417000        1.0080           0
   64928 WT3  9086 TIP3 OH2  OT    -0.834000       15.9994           0
   64929 WT3  9086 TIP3 H1   HT     0.417000        1.0080           0
   64930 WT3  9086 TIP3 H2   HT     0.417000        1.0080           0
   64931 WT3  9087 TIP3 OH2  OT    -0.834000       15.9994           0
   64932 WT3  9087 TIP3 H1   HT     0.417000        1.0080           0
   64933 WT3  9087 TIP3 H2   HT     0.417000        1.0080           0
   64934 WT3  9092 TIP3 OH2  OT    -0.834000       15.9994           0
   64935 WT3  9092 TIP3 H1   HT     0.417000        1.0080           0
   64936 WT3  9092 TIP3 H2   HT     0.417000        1.0080           0
   64937 WT3  9093 TIP3 OH2  OT    -0.834000       15.9994           0
   64938 WT3  9093 TIP3 H1   HT     0.417000        1.0080           0
   64939 WT3  9093 TIP3 H2   HT     0.417000        1.0080           0
   64940 WT3  9094 TIP3 OH2  OT    -0.834000       15.9994           0
   64941 WT3  9094 TIP3 H1   HT     0.417000        1.0080           0
   64942 WT3  9094 TIP3 H2   HT     0.417000        1.0080           0
   64943 WT3  9096 TIP3 OH2  OT    -0.834000       15.9994           0
   64944 WT3  9096 TIP3 H1   HT     0.417000        1.0080           0
   64945 WT3  9096 TIP3 H2   HT     0.417000        1.0080           0
   64946 WT3  9097 TIP3 OH2  OT    -0.834000       15.9994           0
   64947 WT3  9097 TIP3 H1   HT     0.417000        1.0080           0
   64948 WT3  9097 TIP3 H2   HT     0.417000        1.0080           0
   64949 WT3  9099 TIP3 OH2  OT    -0.834000       15.9994           0
   64950 WT3  9099 TIP3 H1   HT     0.417000        1.0080           0
   64951 WT3  9099 TIP3 H2   HT     0.417000        1.0080           0
   64952 WT3  9100 TIP3 OH2  OT    -0.834000       15.9994           0
   64953 WT3  9100 TIP3 H1   HT     0.417000        1.0080           0
   64954 WT3  9100 TIP3 H2   HT     0.417000        1.0080           0
   64955 WT3  9101 TIP3 OH2  OT    -0.834000       15.9994           0
   64956 WT3  9101 TIP3 H1   HT     0.417000        1.0080           0
   64957 WT3  9101 TIP3 H2   HT     0.417000        1.0080           0
   64958 WT3  9102 TIP3 OH2  OT    -0.834000       15.9994           0
   64959 WT3  9102 TIP3 H1   HT     0.417000        1.0080           0
   64960 WT3  9102 TIP3 H2   HT     0.417000        1.0080           0
   64961 WT3  9103 TIP3 OH2  OT    -0.834000       15.9994           0
   64962 WT3  9103 TIP3 H1   HT     0.417000        1.0080           0
   64963 WT3  9103 TIP3 H2   HT     0.417000        1.0080           0
   64964 WT3  9104 TIP3 OH2  OT    -0.834000       15.9994           0
   64965 WT3  9104 TIP3 H1   HT     0.417000        1.0080           0
   64966 WT3  9104 TIP3 H2   HT     0.417000        1.0080           0
   64967 WT3  9105 TIP3 OH2  OT    -0.834000       15.9994           0
   64968 WT3  9105 TIP3 H1   HT     0.417000        1.0080           0
   64969 WT3  9105 TIP3 H2   HT     0.417000        1.0080           0
   64970 WT3  9106 TIP3 OH2  OT    -0.834000       15.9994           0
   64971 WT3  9106 TIP3 H1   HT     0.417000        1.0080           0
   64972 WT3  9106 TIP3 H2   HT     0.417000        1.0080           0
   64973 WT3  9107 TIP3 OH2  OT    -0.834000       15.9994           0
   64974 WT3  9107 TIP3 H1   HT     0.417000        1.0080           0
   64975 WT3  9107 TIP3 H2   HT     0.417000        1.0080           0
   64976 WT3  9108 TIP3 OH2  OT    -0.834000       15.9994           0
   64977 WT3  9108 TIP3 H1   HT     0.417000        1.0080           0
   64978 WT3  9108 TIP3 H2   HT     0.417000        1.0080           0
   64979 WT3  9110 TIP3 OH2  OT    -0.834000       15.9994           0
   64980 WT3  9110 TIP3 H1   HT     0.417000        1.0080           0
   64981 WT3  9110 TIP3 H2   HT     0.417000        1.0080           0
   64982 WT3  9116 TIP3 OH2  OT    -0.834000       15.9994           0
   64983 WT3  9116 TIP3 H1   HT     0.417000        1.0080           0
   64984 WT3  9116 TIP3 H2   HT     0.417000        1.0080           0
   64985 WT3  9117 TIP3 OH2  OT    -0.834000       15.9994           0
   64986 WT3  9117 TIP3 H1   HT     0.417000        1.0080           0
   64987 WT3  9117 TIP3 H2   HT     0.417000        1.0080           0
   64988 WT3  9120 TIP3 OH2  OT    -0.834000       15.9994           0
   64989 WT3  9120 TIP3 H1   HT     0.417000        1.0080           0
   64990 WT3  9120 TIP3 H2   HT     0.417000        1.0080           0
   64991 WT3  9121 TIP3 OH2  OT    -0.834000       15.9994           0
   64992 WT3  9121 TIP3 H1   HT     0.417000        1.0080           0
   64993 WT3  9121 TIP3 H2   HT     0.417000        1.0080           0
   64994 WT3  9122 TIP3 OH2  OT    -0.834000       15.9994           0
   64995 WT3  9122 TIP3 H1   HT     0.417000        1.0080           0
   64996 WT3  9122 TIP3 H2   HT     0.417000        1.0080           0
   64997 WT3  9123 TIP3 OH2  OT    -0.834000       15.9994           0
   64998 WT3  9123 TIP3 H1   HT     0.417000        1.0080           0
   64999 WT3  9123 TIP3 H2   HT     0.417000        1.0080           0
   65000 WT3  9124 TIP3 OH2  OT    -0.834000       15.9994           0
   65001 WT3  9124 TIP3 H1   HT     0.417000        1.0080           0
   65002 WT3  9124 TIP3 H2   HT     0.417000        1.0080           0
   65003 WT3  9125 TIP3 OH2  OT    -0.834000       15.9994           0
   65004 WT3  9125 TIP3 H1   HT     0.417000        1.0080           0
   65005 WT3  9125 TIP3 H2   HT     0.417000        1.0080           0
   65006 WT3  9126 TIP3 OH2  OT    -0.834000       15.9994           0
   65007 WT3  9126 TIP3 H1   HT     0.417000        1.0080           0
   65008 WT3  9126 TIP3 H2   HT     0.417000        1.0080           0
   65009 WT3  9127 TIP3 OH2  OT    -0.834000       15.9994           0
   65010 WT3  9127 TIP3 H1   HT     0.417000        1.0080           0
   65011 WT3  9127 TIP3 H2   HT     0.417000        1.0080           0
   65012 WT3  9128 TIP3 OH2  OT    -0.834000       15.9994           0
   65013 WT3  9128 TIP3 H1   HT     0.417000        1.0080           0
   65014 WT3  9128 TIP3 H2   HT     0.417000        1.0080           0
   65015 WT3  9129 TIP3 OH2  OT    -0.834000       15.9994           0
   65016 WT3  9129 TIP3 H1   HT     0.417000        1.0080           0
   65017 WT3  9129 TIP3 H2   HT     0.417000        1.0080           0
   65018 WT3  9134 TIP3 OH2  OT    -0.834000       15.9994           0
   65019 WT3  9134 TIP3 H1   HT     0.417000        1.0080           0
   65020 WT3  9134 TIP3 H2   HT     0.417000        1.0080           0
   65021 WT3  9136 TIP3 OH2  OT    -0.834000       15.9994           0
   65022 WT3  9136 TIP3 H1   HT     0.417000        1.0080           0
   65023 WT3  9136 TIP3 H2   HT     0.417000        1.0080           0
   65024 WT3  9138 TIP3 OH2  OT    -0.834000       15.9994           0
   65025 WT3  9138 TIP3 H1   HT     0.417000        1.0080           0
   65026 WT3  9138 TIP3 H2   HT     0.417000        1.0080           0
   65027 WT3  9139 TIP3 OH2  OT    -0.834000       15.9994           0
   65028 WT3  9139 TIP3 H1   HT     0.417000        1.0080           0
   65029 WT3  9139 TIP3 H2   HT     0.417000        1.0080           0
   65030 WT3  9140 TIP3 OH2  OT    -0.834000       15.9994           0
   65031 WT3  9140 TIP3 H1   HT     0.417000        1.0080           0
   65032 WT3  9140 TIP3 H2   HT     0.417000        1.0080           0
   65033 WT3  9142 TIP3 OH2  OT    -0.834000       15.9994           0
   65034 WT3  9142 TIP3 H1   HT     0.417000        1.0080           0
   65035 WT3  9142 TIP3 H2   HT     0.417000        1.0080           0
   65036 WT3  9145 TIP3 OH2  OT    -0.834000       15.9994           0
   65037 WT3  9145 TIP3 H1   HT     0.417000        1.0080           0
   65038 WT3  9145 TIP3 H2   HT     0.417000        1.0080           0
   65039 WT3  9146 TIP3 OH2  OT    -0.834000       15.9994           0
   65040 WT3  9146 TIP3 H1   HT     0.417000        1.0080           0
   65041 WT3  9146 TIP3 H2   HT     0.417000        1.0080           0
   65042 WT3  9147 TIP3 OH2  OT    -0.834000       15.9994           0
   65043 WT3  9147 TIP3 H1   HT     0.417000        1.0080           0
   65044 WT3  9147 TIP3 H2   HT     0.417000        1.0080           0
   65045 WT3  9148 TIP3 OH2  OT    -0.834000       15.9994           0
   65046 WT3  9148 TIP3 H1   HT     0.417000        1.0080           0
   65047 WT3  9148 TIP3 H2   HT     0.417000        1.0080           0
   65048 WT3  9149 TIP3 OH2  OT    -0.834000       15.9994           0
   65049 WT3  9149 TIP3 H1   HT     0.417000        1.0080           0
   65050 WT3  9149 TIP3 H2   HT     0.417000        1.0080           0
   65051 WT3  9150 TIP3 OH2  OT    -0.834000       15.9994           0
   65052 WT3  9150 TIP3 H1   HT     0.417000        1.0080           0
   65053 WT3  9150 TIP3 H2   HT     0.417000        1.0080           0
   65054 WT3  9157 TIP3 OH2  OT    -0.834000       15.9994           0
   65055 WT3  9157 TIP3 H1   HT     0.417000        1.0080           0
   65056 WT3  9157 TIP3 H2   HT     0.417000        1.0080           0
   65057 WT3  9158 TIP3 OH2  OT    -0.834000       15.9994           0
   65058 WT3  9158 TIP3 H1   HT     0.417000        1.0080           0
   65059 WT3  9158 TIP3 H2   HT     0.417000        1.0080           0
   65060 WT3  9159 TIP3 OH2  OT    -0.834000       15.9994           0
   65061 WT3  9159 TIP3 H1   HT     0.417000        1.0080           0
   65062 WT3  9159 TIP3 H2   HT     0.417000        1.0080           0
   65063 WT3  9160 TIP3 OH2  OT    -0.834000       15.9994           0
   65064 WT3  9160 TIP3 H1   HT     0.417000        1.0080           0
   65065 WT3  9160 TIP3 H2   HT     0.417000        1.0080           0
   65066 WT3  9161 TIP3 OH2  OT    -0.834000       15.9994           0
   65067 WT3  9161 TIP3 H1   HT     0.417000        1.0080           0
   65068 WT3  9161 TIP3 H2   HT     0.417000        1.0080           0
   65069 WT3  9162 TIP3 OH2  OT    -0.834000       15.9994           0
   65070 WT3  9162 TIP3 H1   HT     0.417000        1.0080           0
   65071 WT3  9162 TIP3 H2   HT     0.417000        1.0080           0
   65072 WT3  9164 TIP3 OH2  OT    -0.834000       15.9994           0
   65073 WT3  9164 TIP3 H1   HT     0.417000        1.0080           0
   65074 WT3  9164 TIP3 H2   HT     0.417000        1.0080           0
   65075 WT3  9165 TIP3 OH2  OT    -0.834000       15.9994           0
   65076 WT3  9165 TIP3 H1   HT     0.417000        1.0080           0
   65077 WT3  9165 TIP3 H2   HT     0.417000        1.0080           0
   65078 WT3  9166 TIP3 OH2  OT    -0.834000       15.9994           0
   65079 WT3  9166 TIP3 H1   HT     0.417000        1.0080           0
   65080 WT3  9166 TIP3 H2   HT     0.417000        1.0080           0
   65081 WT3  9167 TIP3 OH2  OT    -0.834000       15.9994           0
   65082 WT3  9167 TIP3 H1   HT     0.417000        1.0080           0
   65083 WT3  9167 TIP3 H2   HT     0.417000        1.0080           0
   65084 WT3  9168 TIP3 OH2  OT    -0.834000       15.9994           0
   65085 WT3  9168 TIP3 H1   HT     0.417000        1.0080           0
   65086 WT3  9168 TIP3 H2   HT     0.417000        1.0080           0
   65087 WT3  9170 TIP3 OH2  OT    -0.834000       15.9994           0
   65088 WT3  9170 TIP3 H1   HT     0.417000        1.0080           0
   65089 WT3  9170 TIP3 H2   HT     0.417000        1.0080           0
   65090 WT3  9171 TIP3 OH2  OT    -0.834000       15.9994           0
   65091 WT3  9171 TIP3 H1   HT     0.417000        1.0080           0
   65092 WT3  9171 TIP3 H2   HT     0.417000        1.0080           0
   65093 WT3  9174 TIP3 OH2  OT    -0.834000       15.9994           0
   65094 WT3  9174 TIP3 H1   HT     0.417000        1.0080           0
   65095 WT3  9174 TIP3 H2   HT     0.417000        1.0080           0
   65096 WT3  9177 TIP3 OH2  OT    -0.834000       15.9994           0
   65097 WT3  9177 TIP3 H1   HT     0.417000        1.0080           0
   65098 WT3  9177 TIP3 H2   HT     0.417000        1.0080           0
   65099 WT3  9180 TIP3 OH2  OT    -0.834000       15.9994           0
   65100 WT3  9180 TIP3 H1   HT     0.417000        1.0080           0
   65101 WT3  9180 TIP3 H2   HT     0.417000        1.0080           0
   65102 WT3  9182 TIP3 OH2  OT    -0.834000       15.9994           0
   65103 WT3  9182 TIP3 H1   HT     0.417000        1.0080           0
   65104 WT3  9182 TIP3 H2   HT     0.417000        1.0080           0
   65105 WT3  9183 TIP3 OH2  OT    -0.834000       15.9994           0
   65106 WT3  9183 TIP3 H1   HT     0.417000        1.0080           0
   65107 WT3  9183 TIP3 H2   HT     0.417000        1.0080           0
   65108 WT3  9184 TIP3 OH2  OT    -0.834000       15.9994           0
   65109 WT3  9184 TIP3 H1   HT     0.417000        1.0080           0
   65110 WT3  9184 TIP3 H2   HT     0.417000        1.0080           0
   65111 WT3  9185 TIP3 OH2  OT    -0.834000       15.9994           0
   65112 WT3  9185 TIP3 H1   HT     0.417000        1.0080           0
   65113 WT3  9185 TIP3 H2   HT     0.417000        1.0080           0
   65114 WT3  9186 TIP3 OH2  OT    -0.834000       15.9994           0
   65115 WT3  9186 TIP3 H1   HT     0.417000        1.0080           0
   65116 WT3  9186 TIP3 H2   HT     0.417000        1.0080           0
   65117 WT3  9187 TIP3 OH2  OT    -0.834000       15.9994           0
   65118 WT3  9187 TIP3 H1   HT     0.417000        1.0080           0
   65119 WT3  9187 TIP3 H2   HT     0.417000        1.0080           0
   65120 WT3  9188 TIP3 OH2  OT    -0.834000       15.9994           0
   65121 WT3  9188 TIP3 H1   HT     0.417000        1.0080           0
   65122 WT3  9188 TIP3 H2   HT     0.417000        1.0080           0
   65123 WT3  9189 TIP3 OH2  OT    -0.834000       15.9994           0
   65124 WT3  9189 TIP3 H1   HT     0.417000        1.0080           0
   65125 WT3  9189 TIP3 H2   HT     0.417000        1.0080           0
   65126 WT3  9190 TIP3 OH2  OT    -0.834000       15.9994           0
   65127 WT3  9190 TIP3 H1   HT     0.417000        1.0080           0
   65128 WT3  9190 TIP3 H2   HT     0.417000        1.0080           0
   65129 WT3  9191 TIP3 OH2  OT    -0.834000       15.9994           0
   65130 WT3  9191 TIP3 H1   HT     0.417000        1.0080           0
   65131 WT3  9191 TIP3 H2   HT     0.417000        1.0080           0
   65132 WT3  9195 TIP3 OH2  OT    -0.834000       15.9994           0
   65133 WT3  9195 TIP3 H1   HT     0.417000        1.0080           0
   65134 WT3  9195 TIP3 H2   HT     0.417000        1.0080           0
   65135 WT3  9196 TIP3 OH2  OT    -0.834000       15.9994           0
   65136 WT3  9196 TIP3 H1   HT     0.417000        1.0080           0
   65137 WT3  9196 TIP3 H2   HT     0.417000        1.0080           0
   65138 WT3  9198 TIP3 OH2  OT    -0.834000       15.9994           0
   65139 WT3  9198 TIP3 H1   HT     0.417000        1.0080           0
   65140 WT3  9198 TIP3 H2   HT     0.417000        1.0080           0
   65141 WT3  9200 TIP3 OH2  OT    -0.834000       15.9994           0
   65142 WT3  9200 TIP3 H1   HT     0.417000        1.0080           0
   65143 WT3  9200 TIP3 H2   HT     0.417000        1.0080           0
   65144 WT3  9201 TIP3 OH2  OT    -0.834000       15.9994           0
   65145 WT3  9201 TIP3 H1   HT     0.417000        1.0080           0
   65146 WT3  9201 TIP3 H2   HT     0.417000        1.0080           0
   65147 WT3  9202 TIP3 OH2  OT    -0.834000       15.9994           0
   65148 WT3  9202 TIP3 H1   HT     0.417000        1.0080           0
   65149 WT3  9202 TIP3 H2   HT     0.417000        1.0080           0
   65150 WT3  9204 TIP3 OH2  OT    -0.834000       15.9994           0
   65151 WT3  9204 TIP3 H1   HT     0.417000        1.0080           0
   65152 WT3  9204 TIP3 H2   HT     0.417000        1.0080           0
   65153 WT3  9205 TIP3 OH2  OT    -0.834000       15.9994           0
   65154 WT3  9205 TIP3 H1   HT     0.417000        1.0080           0
   65155 WT3  9205 TIP3 H2   HT     0.417000        1.0080           0
   65156 WT3  9206 TIP3 OH2  OT    -0.834000       15.9994           0
   65157 WT3  9206 TIP3 H1   HT     0.417000        1.0080           0
   65158 WT3  9206 TIP3 H2   HT     0.417000        1.0080           0
   65159 WT3  9207 TIP3 OH2  OT    -0.834000       15.9994           0
   65160 WT3  9207 TIP3 H1   HT     0.417000        1.0080           0
   65161 WT3  9207 TIP3 H2   HT     0.417000        1.0080           0
   65162 WT3  9208 TIP3 OH2  OT    -0.834000       15.9994           0
   65163 WT3  9208 TIP3 H1   HT     0.417000        1.0080           0
   65164 WT3  9208 TIP3 H2   HT     0.417000        1.0080           0
   65165 WT3  9209 TIP3 OH2  OT    -0.834000       15.9994           0
   65166 WT3  9209 TIP3 H1   HT     0.417000        1.0080           0
   65167 WT3  9209 TIP3 H2   HT     0.417000        1.0080           0
   65168 WT3  9210 TIP3 OH2  OT    -0.834000       15.9994           0
   65169 WT3  9210 TIP3 H1   HT     0.417000        1.0080           0
   65170 WT3  9210 TIP3 H2   HT     0.417000        1.0080           0
   65171 WT3  9211 TIP3 OH2  OT    -0.834000       15.9994           0
   65172 WT3  9211 TIP3 H1   HT     0.417000        1.0080           0
   65173 WT3  9211 TIP3 H2   HT     0.417000        1.0080           0
   65174 WT3  9212 TIP3 OH2  OT    -0.834000       15.9994           0
   65175 WT3  9212 TIP3 H1   HT     0.417000        1.0080           0
   65176 WT3  9212 TIP3 H2   HT     0.417000        1.0080           0
   65177 WT3  9213 TIP3 OH2  OT    -0.834000       15.9994           0
   65178 WT3  9213 TIP3 H1   HT     0.417000        1.0080           0
   65179 WT3  9213 TIP3 H2   HT     0.417000        1.0080           0
   65180 WT3  9214 TIP3 OH2  OT    -0.834000       15.9994           0
   65181 WT3  9214 TIP3 H1   HT     0.417000        1.0080           0
   65182 WT3  9214 TIP3 H2   HT     0.417000        1.0080           0
   65183 WT3  9217 TIP3 OH2  OT    -0.834000       15.9994           0
   65184 WT3  9217 TIP3 H1   HT     0.417000        1.0080           0
   65185 WT3  9217 TIP3 H2   HT     0.417000        1.0080           0
   65186 WT3  9222 TIP3 OH2  OT    -0.834000       15.9994           0
   65187 WT3  9222 TIP3 H1   HT     0.417000        1.0080           0
   65188 WT3  9222 TIP3 H2   HT     0.417000        1.0080           0
   65189 WT3  9223 TIP3 OH2  OT    -0.834000       15.9994           0
   65190 WT3  9223 TIP3 H1   HT     0.417000        1.0080           0
   65191 WT3  9223 TIP3 H2   HT     0.417000        1.0080           0
   65192 WT3  9224 TIP3 OH2  OT    -0.834000       15.9994           0
   65193 WT3  9224 TIP3 H1   HT     0.417000        1.0080           0
   65194 WT3  9224 TIP3 H2   HT     0.417000        1.0080           0
   65195 WT3  9225 TIP3 OH2  OT    -0.834000       15.9994           0
   65196 WT3  9225 TIP3 H1   HT     0.417000        1.0080           0
   65197 WT3  9225 TIP3 H2   HT     0.417000        1.0080           0
   65198 WT3  9226 TIP3 OH2  OT    -0.834000       15.9994           0
   65199 WT3  9226 TIP3 H1   HT     0.417000        1.0080           0
   65200 WT3  9226 TIP3 H2   HT     0.417000        1.0080           0
   65201 WT3  9228 TIP3 OH2  OT    -0.834000       15.9994           0
   65202 WT3  9228 TIP3 H1   HT     0.417000        1.0080           0
   65203 WT3  9228 TIP3 H2   HT     0.417000        1.0080           0
   65204 WT3  9230 TIP3 OH2  OT    -0.834000       15.9994           0
   65205 WT3  9230 TIP3 H1   HT     0.417000        1.0080           0
   65206 WT3  9230 TIP3 H2   HT     0.417000        1.0080           0
   65207 WT3  9231 TIP3 OH2  OT    -0.834000       15.9994           0
   65208 WT3  9231 TIP3 H1   HT     0.417000        1.0080           0
   65209 WT3  9231 TIP3 H2   HT     0.417000        1.0080           0
   65210 WT3  9232 TIP3 OH2  OT    -0.834000       15.9994           0
   65211 WT3  9232 TIP3 H1   HT     0.417000        1.0080           0
   65212 WT3  9232 TIP3 H2   HT     0.417000        1.0080           0
   65213 WT3  9234 TIP3 OH2  OT    -0.834000       15.9994           0
   65214 WT3  9234 TIP3 H1   HT     0.417000        1.0080           0
   65215 WT3  9234 TIP3 H2   HT     0.417000        1.0080           0
   65216 WT3  9235 TIP3 OH2  OT    -0.834000       15.9994           0
   65217 WT3  9235 TIP3 H1   HT     0.417000        1.0080           0
   65218 WT3  9235 TIP3 H2   HT     0.417000        1.0080           0
   65219 WT3  9236 TIP3 OH2  OT    -0.834000       15.9994           0
   65220 WT3  9236 TIP3 H1   HT     0.417000        1.0080           0
   65221 WT3  9236 TIP3 H2   HT     0.417000        1.0080           0
   65222 WT3  9241 TIP3 OH2  OT    -0.834000       15.9994           0
   65223 WT3  9241 TIP3 H1   HT     0.417000        1.0080           0
   65224 WT3  9241 TIP3 H2   HT     0.417000        1.0080           0
   65225 WT3  9242 TIP3 OH2  OT    -0.834000       15.9994           0
   65226 WT3  9242 TIP3 H1   HT     0.417000        1.0080           0
   65227 WT3  9242 TIP3 H2   HT     0.417000        1.0080           0
   65228 WT3  9243 TIP3 OH2  OT    -0.834000       15.9994           0
   65229 WT3  9243 TIP3 H1   HT     0.417000        1.0080           0
   65230 WT3  9243 TIP3 H2   HT     0.417000        1.0080           0
   65231 WT3  9245 TIP3 OH2  OT    -0.834000       15.9994           0
   65232 WT3  9245 TIP3 H1   HT     0.417000        1.0080           0
   65233 WT3  9245 TIP3 H2   HT     0.417000        1.0080           0
   65234 WT3  9246 TIP3 OH2  OT    -0.834000       15.9994           0
   65235 WT3  9246 TIP3 H1   HT     0.417000        1.0080           0
   65236 WT3  9246 TIP3 H2   HT     0.417000        1.0080           0
   65237 WT3  9247 TIP3 OH2  OT    -0.834000       15.9994           0
   65238 WT3  9247 TIP3 H1   HT     0.417000        1.0080           0
   65239 WT3  9247 TIP3 H2   HT     0.417000        1.0080           0
   65240 WT3  9248 TIP3 OH2  OT    -0.834000       15.9994           0
   65241 WT3  9248 TIP3 H1   HT     0.417000        1.0080           0
   65242 WT3  9248 TIP3 H2   HT     0.417000        1.0080           0
   65243 WT3  9249 TIP3 OH2  OT    -0.834000       15.9994           0
   65244 WT3  9249 TIP3 H1   HT     0.417000        1.0080           0
   65245 WT3  9249 TIP3 H2   HT     0.417000        1.0080           0
   65246 WT3  9250 TIP3 OH2  OT    -0.834000       15.9994           0
   65247 WT3  9250 TIP3 H1   HT     0.417000        1.0080           0
   65248 WT3  9250 TIP3 H2   HT     0.417000        1.0080           0
   65249 WT3  9251 TIP3 OH2  OT    -0.834000       15.9994           0
   65250 WT3  9251 TIP3 H1   HT     0.417000        1.0080           0
   65251 WT3  9251 TIP3 H2   HT     0.417000        1.0080           0
   65252 WT3  9252 TIP3 OH2  OT    -0.834000       15.9994           0
   65253 WT3  9252 TIP3 H1   HT     0.417000        1.0080           0
   65254 WT3  9252 TIP3 H2   HT     0.417000        1.0080           0
   65255 WT3  9253 TIP3 OH2  OT    -0.834000       15.9994           0
   65256 WT3  9253 TIP3 H1   HT     0.417000        1.0080           0
   65257 WT3  9253 TIP3 H2   HT     0.417000        1.0080           0
   65258 WT3  9255 TIP3 OH2  OT    -0.834000       15.9994           0
   65259 WT3  9255 TIP3 H1   HT     0.417000        1.0080           0
   65260 WT3  9255 TIP3 H2   HT     0.417000        1.0080           0
   65261 WT3  9256 TIP3 OH2  OT    -0.834000       15.9994           0
   65262 WT3  9256 TIP3 H1   HT     0.417000        1.0080           0
   65263 WT3  9256 TIP3 H2   HT     0.417000        1.0080           0
   65264 WT3  9261 TIP3 OH2  OT    -0.834000       15.9994           0
   65265 WT3  9261 TIP3 H1   HT     0.417000        1.0080           0
   65266 WT3  9261 TIP3 H2   HT     0.417000        1.0080           0
   65267 WT4  7    TIP3 OH2  OT    -0.834000       15.9994           0
   65268 WT4  7    TIP3 H1   HT     0.417000        1.0080           0
   65269 WT4  7    TIP3 H2   HT     0.417000        1.0080           0
   65270 WT4  8    TIP3 OH2  OT    -0.834000       15.9994           0
   65271 WT4  8    TIP3 H1   HT     0.417000        1.0080           0
   65272 WT4  8    TIP3 H2   HT     0.417000        1.0080           0
   65273 WT4  10   TIP3 OH2  OT    -0.834000       15.9994           0
   65274 WT4  10   TIP3 H1   HT     0.417000        1.0080           0
   65275 WT4  10   TIP3 H2   HT     0.417000        1.0080           0
   65276 WT4  11   TIP3 OH2  OT    -0.834000       15.9994           0
   65277 WT4  11   TIP3 H1   HT     0.417000        1.0080           0
   65278 WT4  11   TIP3 H2   HT     0.417000        1.0080           0
   65279 WT4  13   TIP3 OH2  OT    -0.834000       15.9994           0
   65280 WT4  13   TIP3 H1   HT     0.417000        1.0080           0
   65281 WT4  13   TIP3 H2   HT     0.417000        1.0080           0
   65282 WT4  16   TIP3 OH2  OT    -0.834000       15.9994           0
   65283 WT4  16   TIP3 H1   HT     0.417000        1.0080           0
   65284 WT4  16   TIP3 H2   HT     0.417000        1.0080           0
   65285 WT4  17   TIP3 OH2  OT    -0.834000       15.9994           0
   65286 WT4  17   TIP3 H1   HT     0.417000        1.0080           0
   65287 WT4  17   TIP3 H2   HT     0.417000        1.0080           0
   65288 WT4  18   TIP3 OH2  OT    -0.834000       15.9994           0
   65289 WT4  18   TIP3 H1   HT     0.417000        1.0080           0
   65290 WT4  18   TIP3 H2   HT     0.417000        1.0080           0
   65291 WT4  19   TIP3 OH2  OT    -0.834000       15.9994           0
   65292 WT4  19   TIP3 H1   HT     0.417000        1.0080           0
   65293 WT4  19   TIP3 H2   HT     0.417000        1.0080           0
   65294 WT4  20   TIP3 OH2  OT    -0.834000       15.9994           0
   65295 WT4  20   TIP3 H1   HT     0.417000        1.0080           0
   65296 WT4  20   TIP3 H2   HT     0.417000        1.0080           0
   65297 WT4  22   TIP3 OH2  OT    -0.834000       15.9994           0
   65298 WT4  22   TIP3 H1   HT     0.417000        1.0080           0
   65299 WT4  22   TIP3 H2   HT     0.417000        1.0080           0
   65300 WT4  32   TIP3 OH2  OT    -0.834000       15.9994           0
   65301 WT4  32   TIP3 H1   HT     0.417000        1.0080           0
   65302 WT4  32   TIP3 H2   HT     0.417000        1.0080           0
   65303 WT4  33   TIP3 OH2  OT    -0.834000       15.9994           0
   65304 WT4  33   TIP3 H1   HT     0.417000        1.0080           0
   65305 WT4  33   TIP3 H2   HT     0.417000        1.0080           0
   65306 WT4  34   TIP3 OH2  OT    -0.834000       15.9994           0
   65307 WT4  34   TIP3 H1   HT     0.417000        1.0080           0
   65308 WT4  34   TIP3 H2   HT     0.417000        1.0080           0
   65309 WT4  37   TIP3 OH2  OT    -0.834000       15.9994           0
   65310 WT4  37   TIP3 H1   HT     0.417000        1.0080           0
   65311 WT4  37   TIP3 H2   HT     0.417000        1.0080           0
   65312 WT4  39   TIP3 OH2  OT    -0.834000       15.9994           0
   65313 WT4  39   TIP3 H1   HT     0.417000        1.0080           0
   65314 WT4  39   TIP3 H2   HT     0.417000        1.0080           0
   65315 WT4  67   TIP3 OH2  OT    -0.834000       15.9994           0
   65316 WT4  67   TIP3 H1   HT     0.417000        1.0080           0
   65317 WT4  67   TIP3 H2   HT     0.417000        1.0080           0
   65318 WT4  69   TIP3 OH2  OT    -0.834000       15.9994           0
   65319 WT4  69   TIP3 H1   HT     0.417000        1.0080           0
   65320 WT4  69   TIP3 H2   HT     0.417000        1.0080           0
   65321 WT4  71   TIP3 OH2  OT    -0.834000       15.9994           0
   65322 WT4  71   TIP3 H1   HT     0.417000        1.0080           0
   65323 WT4  71   TIP3 H2   HT     0.417000        1.0080           0
   65324 WT4  76   TIP3 OH2  OT    -0.834000       15.9994           0
   65325 WT4  76   TIP3 H1   HT     0.417000        1.0080           0
   65326 WT4  76   TIP3 H2   HT     0.417000        1.0080           0
   65327 WT4  93   TIP3 OH2  OT    -0.834000       15.9994           0
   65328 WT4  93   TIP3 H1   HT     0.417000        1.0080           0
   65329 WT4  93   TIP3 H2   HT     0.417000        1.0080           0
   65330 WT4  94   TIP3 OH2  OT    -0.834000       15.9994           0
   65331 WT4  94   TIP3 H1   HT     0.417000        1.0080           0
   65332 WT4  94   TIP3 H2   HT     0.417000        1.0080           0
   65333 WT4  107  TIP3 OH2  OT    -0.834000       15.9994           0
   65334 WT4  107  TIP3 H1   HT     0.417000        1.0080           0
   65335 WT4  107  TIP3 H2   HT     0.417000        1.0080           0
   65336 WT4  116  TIP3 OH2  OT    -0.834000       15.9994           0
   65337 WT4  116  TIP3 H1   HT     0.417000        1.0080           0
   65338 WT4  116  TIP3 H2   HT     0.417000        1.0080           0
   65339 WT4  125  TIP3 OH2  OT    -0.834000       15.9994           0
   65340 WT4  125  TIP3 H1   HT     0.417000        1.0080           0
   65341 WT4  125  TIP3 H2   HT     0.417000        1.0080           0
   65342 WT4  130  TIP3 OH2  OT    -0.834000       15.9994           0
   65343 WT4  130  TIP3 H1   HT     0.417000        1.0080           0
   65344 WT4  130  TIP3 H2   HT     0.417000        1.0080           0
   65345 WT4  133  TIP3 OH2  OT    -0.834000       15.9994           0
   65346 WT4  133  TIP3 H1   HT     0.417000        1.0080           0
   65347 WT4  133  TIP3 H2   HT     0.417000        1.0080           0
   65348 WT4  143  TIP3 OH2  OT    -0.834000       15.9994           0
   65349 WT4  143  TIP3 H1   HT     0.417000        1.0080           0
   65350 WT4  143  TIP3 H2   HT     0.417000        1.0080           0
   65351 WT4  360  TIP3 OH2  OT    -0.834000       15.9994           0
   65352 WT4  360  TIP3 H1   HT     0.417000        1.0080           0
   65353 WT4  360  TIP3 H2   HT     0.417000        1.0080           0
   65354 WT4  365  TIP3 OH2  OT    -0.834000       15.9994           0
   65355 WT4  365  TIP3 H1   HT     0.417000        1.0080           0
   65356 WT4  365  TIP3 H2   HT     0.417000        1.0080           0
   65357 WT4  400  TIP3 OH2  OT    -0.834000       15.9994           0
   65358 WT4  400  TIP3 H1   HT     0.417000        1.0080           0
   65359 WT4  400  TIP3 H2   HT     0.417000        1.0080           0
   65360 WT4  407  TIP3 OH2  OT    -0.834000       15.9994           0
   65361 WT4  407  TIP3 H1   HT     0.417000        1.0080           0
   65362 WT4  407  TIP3 H2   HT     0.417000        1.0080           0
   65363 WT4  408  TIP3 OH2  OT    -0.834000       15.9994           0
   65364 WT4  408  TIP3 H1   HT     0.417000        1.0080           0
   65365 WT4  408  TIP3 H2   HT     0.417000        1.0080           0
   65366 WT4  421  TIP3 OH2  OT    -0.834000       15.9994           0
   65367 WT4  421  TIP3 H1   HT     0.417000        1.0080           0
   65368 WT4  421  TIP3 H2   HT     0.417000        1.0080           0
   65369 WT4  429  TIP3 OH2  OT    -0.834000       15.9994           0
   65370 WT4  429  TIP3 H1   HT     0.417000        1.0080           0
   65371 WT4  429  TIP3 H2   HT     0.417000        1.0080           0
   65372 WT4  432  TIP3 OH2  OT    -0.834000       15.9994           0
   65373 WT4  432  TIP3 H1   HT     0.417000        1.0080           0
   65374 WT4  432  TIP3 H2   HT     0.417000        1.0080           0
   65375 WT4  434  TIP3 OH2  OT    -0.834000       15.9994           0
   65376 WT4  434  TIP3 H1   HT     0.417000        1.0080           0
   65377 WT4  434  TIP3 H2   HT     0.417000        1.0080           0
   65378 WT4  440  TIP3 OH2  OT    -0.834000       15.9994           0
   65379 WT4  440  TIP3 H1   HT     0.417000        1.0080           0
   65380 WT4  440  TIP3 H2   HT     0.417000        1.0080           0
   65381 WT4  441  TIP3 OH2  OT    -0.834000       15.9994           0
   65382 WT4  441  TIP3 H1   HT     0.417000        1.0080           0
   65383 WT4  441  TIP3 H2   HT     0.417000        1.0080           0
   65384 WT4  447  TIP3 OH2  OT    -0.834000       15.9994           0
   65385 WT4  447  TIP3 H1   HT     0.417000        1.0080           0
   65386 WT4  447  TIP3 H2   HT     0.417000        1.0080           0
   65387 WT4  449  TIP3 OH2  OT    -0.834000       15.9994           0
   65388 WT4  449  TIP3 H1   HT     0.417000        1.0080           0
   65389 WT4  449  TIP3 H2   HT     0.417000        1.0080           0
   65390 WT4  450  TIP3 OH2  OT    -0.834000       15.9994           0
   65391 WT4  450  TIP3 H1   HT     0.417000        1.0080           0
   65392 WT4  450  TIP3 H2   HT     0.417000        1.0080           0
   65393 WT4  451  TIP3 OH2  OT    -0.834000       15.9994           0
   65394 WT4  451  TIP3 H1   HT     0.417000        1.0080           0
   65395 WT4  451  TIP3 H2   HT     0.417000        1.0080           0
   65396 WT4  453  TIP3 OH2  OT    -0.834000       15.9994           0
   65397 WT4  453  TIP3 H1   HT     0.417000        1.0080           0
   65398 WT4  453  TIP3 H2   HT     0.417000        1.0080           0
   65399 WT4  462  TIP3 OH2  OT    -0.834000       15.9994           0
   65400 WT4  462  TIP3 H1   HT     0.417000        1.0080           0
   65401 WT4  462  TIP3 H2   HT     0.417000        1.0080           0
   65402 WT4  465  TIP3 OH2  OT    -0.834000       15.9994           0
   65403 WT4  465  TIP3 H1   HT     0.417000        1.0080           0
   65404 WT4  465  TIP3 H2   HT     0.417000        1.0080           0
   65405 WT4  467  TIP3 OH2  OT    -0.834000       15.9994           0
   65406 WT4  467  TIP3 H1   HT     0.417000        1.0080           0
   65407 WT4  467  TIP3 H2   HT     0.417000        1.0080           0
   65408 WT4  474  TIP3 OH2  OT    -0.834000       15.9994           0
   65409 WT4  474  TIP3 H1   HT     0.417000        1.0080           0
   65410 WT4  474  TIP3 H2   HT     0.417000        1.0080           0
   65411 WT4  484  TIP3 OH2  OT    -0.834000       15.9994           0
   65412 WT4  484  TIP3 H1   HT     0.417000        1.0080           0
   65413 WT4  484  TIP3 H2   HT     0.417000        1.0080           0
   65414 WT4  486  TIP3 OH2  OT    -0.834000       15.9994           0
   65415 WT4  486  TIP3 H1   HT     0.417000        1.0080           0
   65416 WT4  486  TIP3 H2   HT     0.417000        1.0080           0
   65417 WT4  488  TIP3 OH2  OT    -0.834000       15.9994           0
   65418 WT4  488  TIP3 H1   HT     0.417000        1.0080           0
   65419 WT4  488  TIP3 H2   HT     0.417000        1.0080           0
   65420 WT4  490  TIP3 OH2  OT    -0.834000       15.9994           0
   65421 WT4  490  TIP3 H1   HT     0.417000        1.0080           0
   65422 WT4  490  TIP3 H2   HT     0.417000        1.0080           0
   65423 WT4  498  TIP3 OH2  OT    -0.834000       15.9994           0
   65424 WT4  498  TIP3 H1   HT     0.417000        1.0080           0
   65425 WT4  498  TIP3 H2   HT     0.417000        1.0080           0
   65426 WT4  501  TIP3 OH2  OT    -0.834000       15.9994           0
   65427 WT4  501  TIP3 H1   HT     0.417000        1.0080           0
   65428 WT4  501  TIP3 H2   HT     0.417000        1.0080           0
   65429 WT4  509  TIP3 OH2  OT    -0.834000       15.9994           0
   65430 WT4  509  TIP3 H1   HT     0.417000        1.0080           0
   65431 WT4  509  TIP3 H2   HT     0.417000        1.0080           0
   65432 WT4  510  TIP3 OH2  OT    -0.834000       15.9994           0
   65433 WT4  510  TIP3 H1   HT     0.417000        1.0080           0
   65434 WT4  510  TIP3 H2   HT     0.417000        1.0080           0
   65435 WT4  514  TIP3 OH2  OT    -0.834000       15.9994           0
   65436 WT4  514  TIP3 H1   HT     0.417000        1.0080           0
   65437 WT4  514  TIP3 H2   HT     0.417000        1.0080           0
   65438 WT4  516  TIP3 OH2  OT    -0.834000       15.9994           0
   65439 WT4  516  TIP3 H1   HT     0.417000        1.0080           0
   65440 WT4  516  TIP3 H2   HT     0.417000        1.0080           0
   65441 WT4  525  TIP3 OH2  OT    -0.834000       15.9994           0
   65442 WT4  525  TIP3 H1   HT     0.417000        1.0080           0
   65443 WT4  525  TIP3 H2   HT     0.417000        1.0080           0
   65444 WT4  538  TIP3 OH2  OT    -0.834000       15.9994           0
   65445 WT4  538  TIP3 H1   HT     0.417000        1.0080           0
   65446 WT4  538  TIP3 H2   HT     0.417000        1.0080           0
   65447 WT4  550  TIP3 OH2  OT    -0.834000       15.9994           0
   65448 WT4  550  TIP3 H1   HT     0.417000        1.0080           0
   65449 WT4  550  TIP3 H2   HT     0.417000        1.0080           0
   65450 WT4  582  TIP3 OH2  OT    -0.834000       15.9994           0
   65451 WT4  582  TIP3 H1   HT     0.417000        1.0080           0
   65452 WT4  582  TIP3 H2   HT     0.417000        1.0080           0
   65453 WT4  597  TIP3 OH2  OT    -0.834000       15.9994           0
   65454 WT4  597  TIP3 H1   HT     0.417000        1.0080           0
   65455 WT4  597  TIP3 H2   HT     0.417000        1.0080           0
   65456 WT4  758  TIP3 OH2  OT    -0.834000       15.9994           0
   65457 WT4  758  TIP3 H1   HT     0.417000        1.0080           0
   65458 WT4  758  TIP3 H2   HT     0.417000        1.0080           0
   65459 WT4  805  TIP3 OH2  OT    -0.834000       15.9994           0
   65460 WT4  805  TIP3 H1   HT     0.417000        1.0080           0
   65461 WT4  805  TIP3 H2   HT     0.417000        1.0080           0
   65462 WT4  821  TIP3 OH2  OT    -0.834000       15.9994           0
   65463 WT4  821  TIP3 H1   HT     0.417000        1.0080           0
   65464 WT4  821  TIP3 H2   HT     0.417000        1.0080           0
   65465 WT4  822  TIP3 OH2  OT    -0.834000       15.9994           0
   65466 WT4  822  TIP3 H1   HT     0.417000        1.0080           0
   65467 WT4  822  TIP3 H2   HT     0.417000        1.0080           0
   65468 WT4  835  TIP3 OH2  OT    -0.834000       15.9994           0
   65469 WT4  835  TIP3 H1   HT     0.417000        1.0080           0
   65470 WT4  835  TIP3 H2   HT     0.417000        1.0080           0
   65471 WT4  849  TIP3 OH2  OT    -0.834000       15.9994           0
   65472 WT4  849  TIP3 H1   HT     0.417000        1.0080           0
   65473 WT4  849  TIP3 H2   HT     0.417000        1.0080           0
   65474 WT4  852  TIP3 OH2  OT    -0.834000       15.9994           0
   65475 WT4  852  TIP3 H1   HT     0.417000        1.0080           0
   65476 WT4  852  TIP3 H2   HT     0.417000        1.0080           0
   65477 WT4  858  TIP3 OH2  OT    -0.834000       15.9994           0
   65478 WT4  858  TIP3 H1   HT     0.417000        1.0080           0
   65479 WT4  858  TIP3 H2   HT     0.417000        1.0080           0
   65480 WT4  879  TIP3 OH2  OT    -0.834000       15.9994           0
   65481 WT4  879  TIP3 H1   HT     0.417000        1.0080           0
   65482 WT4  879  TIP3 H2   HT     0.417000        1.0080           0
   65483 WT4  881  TIP3 OH2  OT    -0.834000       15.9994           0
   65484 WT4  881  TIP3 H1   HT     0.417000        1.0080           0
   65485 WT4  881  TIP3 H2   HT     0.417000        1.0080           0
   65486 WT4  882  TIP3 OH2  OT    -0.834000       15.9994           0
   65487 WT4  882  TIP3 H1   HT     0.417000        1.0080           0
   65488 WT4  882  TIP3 H2   HT     0.417000        1.0080           0
   65489 WT4  889  TIP3 OH2  OT    -0.834000       15.9994           0
   65490 WT4  889  TIP3 H1   HT     0.417000        1.0080           0
   65491 WT4  889  TIP3 H2   HT     0.417000        1.0080           0
   65492 WT4  896  TIP3 OH2  OT    -0.834000       15.9994           0
   65493 WT4  896  TIP3 H1   HT     0.417000        1.0080           0
   65494 WT4  896  TIP3 H2   HT     0.417000        1.0080           0
   65495 WT4  903  TIP3 OH2  OT    -0.834000       15.9994           0
   65496 WT4  903  TIP3 H1   HT     0.417000        1.0080           0
   65497 WT4  903  TIP3 H2   HT     0.417000        1.0080           0
   65498 WT4  906  TIP3 OH2  OT    -0.834000       15.9994           0
   65499 WT4  906  TIP3 H1   HT     0.417000        1.0080           0
   65500 WT4  906  TIP3 H2   HT     0.417000        1.0080           0
   65501 WT4  907  TIP3 OH2  OT    -0.834000       15.9994           0
   65502 WT4  907  TIP3 H1   HT     0.417000        1.0080           0
   65503 WT4  907  TIP3 H2   HT     0.417000        1.0080           0
   65504 WT4  912  TIP3 OH2  OT    -0.834000       15.9994           0
   65505 WT4  912  TIP3 H1   HT     0.417000        1.0080           0
   65506 WT4  912  TIP3 H2   HT     0.417000        1.0080           0
   65507 WT4  918  TIP3 OH2  OT    -0.834000       15.9994           0
   65508 WT4  918  TIP3 H1   HT     0.417000        1.0080           0
   65509 WT4  918  TIP3 H2   HT     0.417000        1.0080           0
   65510 WT4  919  TIP3 OH2  OT    -0.834000       15.9994           0
   65511 WT4  919  TIP3 H1   HT     0.417000        1.0080           0
   65512 WT4  919  TIP3 H2   HT     0.417000        1.0080           0
   65513 WT4  928  TIP3 OH2  OT    -0.834000       15.9994           0
   65514 WT4  928  TIP3 H1   HT     0.417000        1.0080           0
   65515 WT4  928  TIP3 H2   HT     0.417000        1.0080           0
   65516 WT4  936  TIP3 OH2  OT    -0.834000       15.9994           0
   65517 WT4  936  TIP3 H1   HT     0.417000        1.0080           0
   65518 WT4  936  TIP3 H2   HT     0.417000        1.0080           0
   65519 WT4  938  TIP3 OH2  OT    -0.834000       15.9994           0
   65520 WT4  938  TIP3 H1   HT     0.417000        1.0080           0
   65521 WT4  938  TIP3 H2   HT     0.417000        1.0080           0
   65522 WT4  940  TIP3 OH2  OT    -0.834000       15.9994           0
   65523 WT4  940  TIP3 H1   HT     0.417000        1.0080           0
   65524 WT4  940  TIP3 H2   HT     0.417000        1.0080           0
   65525 WT4  946  TIP3 OH2  OT    -0.834000       15.9994           0
   65526 WT4  946  TIP3 H1   HT     0.417000        1.0080           0
   65527 WT4  946  TIP3 H2   HT     0.417000        1.0080           0
   65528 WT4  947  TIP3 OH2  OT    -0.834000       15.9994           0
   65529 WT4  947  TIP3 H1   HT     0.417000        1.0080           0
   65530 WT4  947  TIP3 H2   HT     0.417000        1.0080           0
   65531 WT4  948  TIP3 OH2  OT    -0.834000       15.9994           0
   65532 WT4  948  TIP3 H1   HT     0.417000        1.0080           0
   65533 WT4  948  TIP3 H2   HT     0.417000        1.0080           0
   65534 WT4  949  TIP3 OH2  OT    -0.834000       15.9994           0
   65535 WT4  949  TIP3 H1   HT     0.417000        1.0080           0
   65536 WT4  949  TIP3 H2   HT     0.417000        1.0080           0
   65537 WT4  953  TIP3 OH2  OT    -0.834000       15.9994           0
   65538 WT4  953  TIP3 H1   HT     0.417000        1.0080           0
   65539 WT4  953  TIP3 H2   HT     0.417000        1.0080           0
   65540 WT4  963  TIP3 OH2  OT    -0.834000       15.9994           0
   65541 WT4  963  TIP3 H1   HT     0.417000        1.0080           0
   65542 WT4  963  TIP3 H2   HT     0.417000        1.0080           0
   65543 WT4  975  TIP3 OH2  OT    -0.834000       15.9994           0
   65544 WT4  975  TIP3 H1   HT     0.417000        1.0080           0
   65545 WT4  975  TIP3 H2   HT     0.417000        1.0080           0
   65546 WT4  992  TIP3 OH2  OT    -0.834000       15.9994           0
   65547 WT4  992  TIP3 H1   HT     0.417000        1.0080           0
   65548 WT4  992  TIP3 H2   HT     0.417000        1.0080           0
   65549 WT4  993  TIP3 OH2  OT    -0.834000       15.9994           0
   65550 WT4  993  TIP3 H1   HT     0.417000        1.0080           0
   65551 WT4  993  TIP3 H2   HT     0.417000        1.0080           0
   65552 WT4  1272 TIP3 OH2  OT    -0.834000       15.9994           0
   65553 WT4  1272 TIP3 H1   HT     0.417000        1.0080           0
   65554 WT4  1272 TIP3 H2   HT     0.417000        1.0080           0
   65555 WT4  1274 TIP3 OH2  OT    -0.834000       15.9994           0
   65556 WT4  1274 TIP3 H1   HT     0.417000        1.0080           0
   65557 WT4  1274 TIP3 H2   HT     0.417000        1.0080           0
   65558 WT4  1298 TIP3 OH2  OT    -0.834000       15.9994           0
   65559 WT4  1298 TIP3 H1   HT     0.417000        1.0080           0
   65560 WT4  1298 TIP3 H2   HT     0.417000        1.0080           0
   65561 WT4  1301 TIP3 OH2  OT    -0.834000       15.9994           0
   65562 WT4  1301 TIP3 H1   HT     0.417000        1.0080           0
   65563 WT4  1301 TIP3 H2   HT     0.417000        1.0080           0
   65564 WT4  1305 TIP3 OH2  OT    -0.834000       15.9994           0
   65565 WT4  1305 TIP3 H1   HT     0.417000        1.0080           0
   65566 WT4  1305 TIP3 H2   HT     0.417000        1.0080           0
   65567 WT4  1309 TIP3 OH2  OT    -0.834000       15.9994           0
   65568 WT4  1309 TIP3 H1   HT     0.417000        1.0080           0
   65569 WT4  1309 TIP3 H2   HT     0.417000        1.0080           0
   65570 WT4  1310 TIP3 OH2  OT    -0.834000       15.9994           0
   65571 WT4  1310 TIP3 H1   HT     0.417000        1.0080           0
   65572 WT4  1310 TIP3 H2   HT     0.417000        1.0080           0
   65573 WT4  1311 TIP3 OH2  OT    -0.834000       15.9994           0
   65574 WT4  1311 TIP3 H1   HT     0.417000        1.0080           0
   65575 WT4  1311 TIP3 H2   HT     0.417000        1.0080           0
   65576 WT4  1317 TIP3 OH2  OT    -0.834000       15.9994           0
   65577 WT4  1317 TIP3 H1   HT     0.417000        1.0080           0
   65578 WT4  1317 TIP3 H2   HT     0.417000        1.0080           0
   65579 WT4  1322 TIP3 OH2  OT    -0.834000       15.9994           0
   65580 WT4  1322 TIP3 H1   HT     0.417000        1.0080           0
   65581 WT4  1322 TIP3 H2   HT     0.417000        1.0080           0
   65582 WT4  1326 TIP3 OH2  OT    -0.834000       15.9994           0
   65583 WT4  1326 TIP3 H1   HT     0.417000        1.0080           0
   65584 WT4  1326 TIP3 H2   HT     0.417000        1.0080           0
   65585 WT4  1328 TIP3 OH2  OT    -0.834000       15.9994           0
   65586 WT4  1328 TIP3 H1   HT     0.417000        1.0080           0
   65587 WT4  1328 TIP3 H2   HT     0.417000        1.0080           0
   65588 WT4  1331 TIP3 OH2  OT    -0.834000       15.9994           0
   65589 WT4  1331 TIP3 H1   HT     0.417000        1.0080           0
   65590 WT4  1331 TIP3 H2   HT     0.417000        1.0080           0
   65591 WT4  1332 TIP3 OH2  OT    -0.834000       15.9994           0
   65592 WT4  1332 TIP3 H1   HT     0.417000        1.0080           0
   65593 WT4  1332 TIP3 H2   HT     0.417000        1.0080           0
   65594 WT4  1339 TIP3 OH2  OT    -0.834000       15.9994           0
   65595 WT4  1339 TIP3 H1   HT     0.417000        1.0080           0
   65596 WT4  1339 TIP3 H2   HT     0.417000        1.0080           0
   65597 WT4  1340 TIP3 OH2  OT    -0.834000       15.9994           0
   65598 WT4  1340 TIP3 H1   HT     0.417000        1.0080           0
   65599 WT4  1340 TIP3 H2   HT     0.417000        1.0080           0
   65600 WT4  1341 TIP3 OH2  OT    -0.834000       15.9994           0
   65601 WT4  1341 TIP3 H1   HT     0.417000        1.0080           0
   65602 WT4  1341 TIP3 H2   HT     0.417000        1.0080           0
   65603 WT4  1362 TIP3 OH2  OT    -0.834000       15.9994           0
   65604 WT4  1362 TIP3 H1   HT     0.417000        1.0080           0
   65605 WT4  1362 TIP3 H2   HT     0.417000        1.0080           0
   65606 WT4  1370 TIP3 OH2  OT    -0.834000       15.9994           0
   65607 WT4  1370 TIP3 H1   HT     0.417000        1.0080           0
   65608 WT4  1370 TIP3 H2   HT     0.417000        1.0080           0
   65609 WT4  1372 TIP3 OH2  OT    -0.834000       15.9994           0
   65610 WT4  1372 TIP3 H1   HT     0.417000        1.0080           0
   65611 WT4  1372 TIP3 H2   HT     0.417000        1.0080           0
   65612 WT4  1379 TIP3 OH2  OT    -0.834000       15.9994           0
   65613 WT4  1379 TIP3 H1   HT     0.417000        1.0080           0
   65614 WT4  1379 TIP3 H2   HT     0.417000        1.0080           0
   65615 WT4  1382 TIP3 OH2  OT    -0.834000       15.9994           0
   65616 WT4  1382 TIP3 H1   HT     0.417000        1.0080           0
   65617 WT4  1382 TIP3 H2   HT     0.417000        1.0080           0
   65618 WT4  1398 TIP3 OH2  OT    -0.834000       15.9994           0
   65619 WT4  1398 TIP3 H1   HT     0.417000        1.0080           0
   65620 WT4  1398 TIP3 H2   HT     0.417000        1.0080           0
   65621 WT4  1418 TIP3 OH2  OT    -0.834000       15.9994           0
   65622 WT4  1418 TIP3 H1   HT     0.417000        1.0080           0
   65623 WT4  1418 TIP3 H2   HT     0.417000        1.0080           0
   65624 WT4  1428 TIP3 OH2  OT    -0.834000       15.9994           0
   65625 WT4  1428 TIP3 H1   HT     0.417000        1.0080           0
   65626 WT4  1428 TIP3 H2   HT     0.417000        1.0080           0
   65627 WT4  1437 TIP3 OH2  OT    -0.834000       15.9994           0
   65628 WT4  1437 TIP3 H1   HT     0.417000        1.0080           0
   65629 WT4  1437 TIP3 H2   HT     0.417000        1.0080           0
   65630 WT4  1440 TIP3 OH2  OT    -0.834000       15.9994           0
   65631 WT4  1440 TIP3 H1   HT     0.417000        1.0080           0
   65632 WT4  1440 TIP3 H2   HT     0.417000        1.0080           0
   65633 WT4  1650 TIP3 OH2  OT    -0.834000       15.9994           0
   65634 WT4  1650 TIP3 H1   HT     0.417000        1.0080           0
   65635 WT4  1650 TIP3 H2   HT     0.417000        1.0080           0
   65636 WT4  1711 TIP3 OH2  OT    -0.834000       15.9994           0
   65637 WT4  1711 TIP3 H1   HT     0.417000        1.0080           0
   65638 WT4  1711 TIP3 H2   HT     0.417000        1.0080           0
   65639 WT4  1712 TIP3 OH2  OT    -0.834000       15.9994           0
   65640 WT4  1712 TIP3 H1   HT     0.417000        1.0080           0
   65641 WT4  1712 TIP3 H2   HT     0.417000        1.0080           0
   65642 WT4  1715 TIP3 OH2  OT    -0.834000       15.9994           0
   65643 WT4  1715 TIP3 H1   HT     0.417000        1.0080           0
   65644 WT4  1715 TIP3 H2   HT     0.417000        1.0080           0
   65645 WT4  1718 TIP3 OH2  OT    -0.834000       15.9994           0
   65646 WT4  1718 TIP3 H1   HT     0.417000        1.0080           0
   65647 WT4  1718 TIP3 H2   HT     0.417000        1.0080           0
   65648 WT4  1723 TIP3 OH2  OT    -0.834000       15.9994           0
   65649 WT4  1723 TIP3 H1   HT     0.417000        1.0080           0
   65650 WT4  1723 TIP3 H2   HT     0.417000        1.0080           0
   65651 WT4  1725 TIP3 OH2  OT    -0.834000       15.9994           0
   65652 WT4  1725 TIP3 H1   HT     0.417000        1.0080           0
   65653 WT4  1725 TIP3 H2   HT     0.417000        1.0080           0
   65654 WT4  1733 TIP3 OH2  OT    -0.834000       15.9994           0
   65655 WT4  1733 TIP3 H1   HT     0.417000        1.0080           0
   65656 WT4  1733 TIP3 H2   HT     0.417000        1.0080           0
   65657 WT4  1740 TIP3 OH2  OT    -0.834000       15.9994           0
   65658 WT4  1740 TIP3 H1   HT     0.417000        1.0080           0
   65659 WT4  1740 TIP3 H2   HT     0.417000        1.0080           0
   65660 WT4  1741 TIP3 OH2  OT    -0.834000       15.9994           0
   65661 WT4  1741 TIP3 H1   HT     0.417000        1.0080           0
   65662 WT4  1741 TIP3 H2   HT     0.417000        1.0080           0
   65663 WT4  1744 TIP3 OH2  OT    -0.834000       15.9994           0
   65664 WT4  1744 TIP3 H1   HT     0.417000        1.0080           0
   65665 WT4  1744 TIP3 H2   HT     0.417000        1.0080           0
   65666 WT4  1748 TIP3 OH2  OT    -0.834000       15.9994           0
   65667 WT4  1748 TIP3 H1   HT     0.417000        1.0080           0
   65668 WT4  1748 TIP3 H2   HT     0.417000        1.0080           0
   65669 WT4  1755 TIP3 OH2  OT    -0.834000       15.9994           0
   65670 WT4  1755 TIP3 H1   HT     0.417000        1.0080           0
   65671 WT4  1755 TIP3 H2   HT     0.417000        1.0080           0
   65672 WT4  1756 TIP3 OH2  OT    -0.834000       15.9994           0
   65673 WT4  1756 TIP3 H1   HT     0.417000        1.0080           0
   65674 WT4  1756 TIP3 H2   HT     0.417000        1.0080           0
   65675 WT4  1771 TIP3 OH2  OT    -0.834000       15.9994           0
   65676 WT4  1771 TIP3 H1   HT     0.417000        1.0080           0
   65677 WT4  1771 TIP3 H2   HT     0.417000        1.0080           0
   65678 WT4  1772 TIP3 OH2  OT    -0.834000       15.9994           0
   65679 WT4  1772 TIP3 H1   HT     0.417000        1.0080           0
   65680 WT4  1772 TIP3 H2   HT     0.417000        1.0080           0
   65681 WT4  1773 TIP3 OH2  OT    -0.834000       15.9994           0
   65682 WT4  1773 TIP3 H1   HT     0.417000        1.0080           0
   65683 WT4  1773 TIP3 H2   HT     0.417000        1.0080           0
   65684 WT4  1775 TIP3 OH2  OT    -0.834000       15.9994           0
   65685 WT4  1775 TIP3 H1   HT     0.417000        1.0080           0
   65686 WT4  1775 TIP3 H2   HT     0.417000        1.0080           0
   65687 WT4  1776 TIP3 OH2  OT    -0.834000       15.9994           0
   65688 WT4  1776 TIP3 H1   HT     0.417000        1.0080           0
   65689 WT4  1776 TIP3 H2   HT     0.417000        1.0080           0
   65690 WT4  1782 TIP3 OH2  OT    -0.834000       15.9994           0
   65691 WT4  1782 TIP3 H1   HT     0.417000        1.0080           0
   65692 WT4  1782 TIP3 H2   HT     0.417000        1.0080           0
   65693 WT4  1794 TIP3 OH2  OT    -0.834000       15.9994           0
   65694 WT4  1794 TIP3 H1   HT     0.417000        1.0080           0
   65695 WT4  1794 TIP3 H2   HT     0.417000        1.0080           0
   65696 WT4  1795 TIP3 OH2  OT    -0.834000       15.9994           0
   65697 WT4  1795 TIP3 H1   HT     0.417000        1.0080           0
   65698 WT4  1795 TIP3 H2   HT     0.417000        1.0080           0
   65699 WT4  1796 TIP3 OH2  OT    -0.834000       15.9994           0
   65700 WT4  1796 TIP3 H1   HT     0.417000        1.0080           0
   65701 WT4  1796 TIP3 H2   HT     0.417000        1.0080           0
   65702 WT4  1802 TIP3 OH2  OT    -0.834000       15.9994           0
   65703 WT4  1802 TIP3 H1   HT     0.417000        1.0080           0
   65704 WT4  1802 TIP3 H2   HT     0.417000        1.0080           0
   65705 WT4  1811 TIP3 OH2  OT    -0.834000       15.9994           0
   65706 WT4  1811 TIP3 H1   HT     0.417000        1.0080           0
   65707 WT4  1811 TIP3 H2   HT     0.417000        1.0080           0
   65708 WT4  1818 TIP3 OH2  OT    -0.834000       15.9994           0
   65709 WT4  1818 TIP3 H1   HT     0.417000        1.0080           0
   65710 WT4  1818 TIP3 H2   HT     0.417000        1.0080           0
   65711 WT4  1824 TIP3 OH2  OT    -0.834000       15.9994           0
   65712 WT4  1824 TIP3 H1   HT     0.417000        1.0080           0
   65713 WT4  1824 TIP3 H2   HT     0.417000        1.0080           0
   65714 WT4  1827 TIP3 OH2  OT    -0.834000       15.9994           0
   65715 WT4  1827 TIP3 H1   HT     0.417000        1.0080           0
   65716 WT4  1827 TIP3 H2   HT     0.417000        1.0080           0
   65717 WT4  1831 TIP3 OH2  OT    -0.834000       15.9994           0
   65718 WT4  1831 TIP3 H1   HT     0.417000        1.0080           0
   65719 WT4  1831 TIP3 H2   HT     0.417000        1.0080           0
   65720 WT4  1845 TIP3 OH2  OT    -0.834000       15.9994           0
   65721 WT4  1845 TIP3 H1   HT     0.417000        1.0080           0
   65722 WT4  1845 TIP3 H2   HT     0.417000        1.0080           0
   65723 WT4  1862 TIP3 OH2  OT    -0.834000       15.9994           0
   65724 WT4  1862 TIP3 H1   HT     0.417000        1.0080           0
   65725 WT4  1862 TIP3 H2   HT     0.417000        1.0080           0
   65726 WT4  1863 TIP3 OH2  OT    -0.834000       15.9994           0
   65727 WT4  1863 TIP3 H1   HT     0.417000        1.0080           0
   65728 WT4  1863 TIP3 H2   HT     0.417000        1.0080           0
   65729 WT4  1888 TIP3 OH2  OT    -0.834000       15.9994           0
   65730 WT4  1888 TIP3 H1   HT     0.417000        1.0080           0
   65731 WT4  1888 TIP3 H2   HT     0.417000        1.0080           0
   65732 WT4  1938 TIP3 OH2  OT    -0.834000       15.9994           0
   65733 WT4  1938 TIP3 H1   HT     0.417000        1.0080           0
   65734 WT4  1938 TIP3 H2   HT     0.417000        1.0080           0
   65735 WT4  2123 TIP3 OH2  OT    -0.834000       15.9994           0
   65736 WT4  2123 TIP3 H1   HT     0.417000        1.0080           0
   65737 WT4  2123 TIP3 H2   HT     0.417000        1.0080           0
   65738 WT4  2133 TIP3 OH2  OT    -0.834000       15.9994           0
   65739 WT4  2133 TIP3 H1   HT     0.417000        1.0080           0
   65740 WT4  2133 TIP3 H2   HT     0.417000        1.0080           0
   65741 WT4  2145 TIP3 OH2  OT    -0.834000       15.9994           0
   65742 WT4  2145 TIP3 H1   HT     0.417000        1.0080           0
   65743 WT4  2145 TIP3 H2   HT     0.417000        1.0080           0
   65744 WT4  2151 TIP3 OH2  OT    -0.834000       15.9994           0
   65745 WT4  2151 TIP3 H1   HT     0.417000        1.0080           0
   65746 WT4  2151 TIP3 H2   HT     0.417000        1.0080           0
   65747 WT4  2165 TIP3 OH2  OT    -0.834000       15.9994           0
   65748 WT4  2165 TIP3 H1   HT     0.417000        1.0080           0
   65749 WT4  2165 TIP3 H2   HT     0.417000        1.0080           0
   65750 WT4  2167 TIP3 OH2  OT    -0.834000       15.9994           0
   65751 WT4  2167 TIP3 H1   HT     0.417000        1.0080           0
   65752 WT4  2167 TIP3 H2   HT     0.417000        1.0080           0
   65753 WT4  2172 TIP3 OH2  OT    -0.834000       15.9994           0
   65754 WT4  2172 TIP3 H1   HT     0.417000        1.0080           0
   65755 WT4  2172 TIP3 H2   HT     0.417000        1.0080           0
   65756 WT4  2180 TIP3 OH2  OT    -0.834000       15.9994           0
   65757 WT4  2180 TIP3 H1   HT     0.417000        1.0080           0
   65758 WT4  2180 TIP3 H2   HT     0.417000        1.0080           0
   65759 WT4  2186 TIP3 OH2  OT    -0.834000       15.9994           0
   65760 WT4  2186 TIP3 H1   HT     0.417000        1.0080           0
   65761 WT4  2186 TIP3 H2   HT     0.417000        1.0080           0
   65762 WT4  2187 TIP3 OH2  OT    -0.834000       15.9994           0
   65763 WT4  2187 TIP3 H1   HT     0.417000        1.0080           0
   65764 WT4  2187 TIP3 H2   HT     0.417000        1.0080           0
   65765 WT4  2198 TIP3 OH2  OT    -0.834000       15.9994           0
   65766 WT4  2198 TIP3 H1   HT     0.417000        1.0080           0
   65767 WT4  2198 TIP3 H2   HT     0.417000        1.0080           0
   65768 WT4  2211 TIP3 OH2  OT    -0.834000       15.9994           0
   65769 WT4  2211 TIP3 H1   HT     0.417000        1.0080           0
   65770 WT4  2211 TIP3 H2   HT     0.417000        1.0080           0
   65771 WT4  2227 TIP3 OH2  OT    -0.834000       15.9994           0
   65772 WT4  2227 TIP3 H1   HT     0.417000        1.0080           0
   65773 WT4  2227 TIP3 H2   HT     0.417000        1.0080           0
   65774 WT4  2231 TIP3 OH2  OT    -0.834000       15.9994           0
   65775 WT4  2231 TIP3 H1   HT     0.417000        1.0080           0
   65776 WT4  2231 TIP3 H2   HT     0.417000        1.0080           0
   65777 WT4  2237 TIP3 OH2  OT    -0.834000       15.9994           0
   65778 WT4  2237 TIP3 H1   HT     0.417000        1.0080           0
   65779 WT4  2237 TIP3 H2   HT     0.417000        1.0080           0
   65780 WT4  2240 TIP3 OH2  OT    -0.834000       15.9994           0
   65781 WT4  2240 TIP3 H1   HT     0.417000        1.0080           0
   65782 WT4  2240 TIP3 H2   HT     0.417000        1.0080           0
   65783 WT4  2244 TIP3 OH2  OT    -0.834000       15.9994           0
   65784 WT4  2244 TIP3 H1   HT     0.417000        1.0080           0
   65785 WT4  2244 TIP3 H2   HT     0.417000        1.0080           0
   65786 WT4  2246 TIP3 OH2  OT    -0.834000       15.9994           0
   65787 WT4  2246 TIP3 H1   HT     0.417000        1.0080           0
   65788 WT4  2246 TIP3 H2   HT     0.417000        1.0080           0
   65789 WT4  2248 TIP3 OH2  OT    -0.834000       15.9994           0
   65790 WT4  2248 TIP3 H1   HT     0.417000        1.0080           0
   65791 WT4  2248 TIP3 H2   HT     0.417000        1.0080           0
   65792 WT4  2250 TIP3 OH2  OT    -0.834000       15.9994           0
   65793 WT4  2250 TIP3 H1   HT     0.417000        1.0080           0
   65794 WT4  2250 TIP3 H2   HT     0.417000        1.0080           0
   65795 WT4  2257 TIP3 OH2  OT    -0.834000       15.9994           0
   65796 WT4  2257 TIP3 H1   HT     0.417000        1.0080           0
   65797 WT4  2257 TIP3 H2   HT     0.417000        1.0080           0
   65798 WT4  2258 TIP3 OH2  OT    -0.834000       15.9994           0
   65799 WT4  2258 TIP3 H1   HT     0.417000        1.0080           0
   65800 WT4  2258 TIP3 H2   HT     0.417000        1.0080           0
   65801 WT4  2263 TIP3 OH2  OT    -0.834000       15.9994           0
   65802 WT4  2263 TIP3 H1   HT     0.417000        1.0080           0
   65803 WT4  2263 TIP3 H2   HT     0.417000        1.0080           0
   65804 WT4  2268 TIP3 OH2  OT    -0.834000       15.9994           0
   65805 WT4  2268 TIP3 H1   HT     0.417000        1.0080           0
   65806 WT4  2268 TIP3 H2   HT     0.417000        1.0080           0
   65807 WT4  2272 TIP3 OH2  OT    -0.834000       15.9994           0
   65808 WT4  2272 TIP3 H1   HT     0.417000        1.0080           0
   65809 WT4  2272 TIP3 H2   HT     0.417000        1.0080           0
   65810 WT4  2278 TIP3 OH2  OT    -0.834000       15.9994           0
   65811 WT4  2278 TIP3 H1   HT     0.417000        1.0080           0
   65812 WT4  2278 TIP3 H2   HT     0.417000        1.0080           0
   65813 WT4  2280 TIP3 OH2  OT    -0.834000       15.9994           0
   65814 WT4  2280 TIP3 H1   HT     0.417000        1.0080           0
   65815 WT4  2280 TIP3 H2   HT     0.417000        1.0080           0
   65816 WT4  2285 TIP3 OH2  OT    -0.834000       15.9994           0
   65817 WT4  2285 TIP3 H1   HT     0.417000        1.0080           0
   65818 WT4  2285 TIP3 H2   HT     0.417000        1.0080           0
   65819 WT4  2289 TIP3 OH2  OT    -0.834000       15.9994           0
   65820 WT4  2289 TIP3 H1   HT     0.417000        1.0080           0
   65821 WT4  2289 TIP3 H2   HT     0.417000        1.0080           0
   65822 WT4  2295 TIP3 OH2  OT    -0.834000       15.9994           0
   65823 WT4  2295 TIP3 H1   HT     0.417000        1.0080           0
   65824 WT4  2295 TIP3 H2   HT     0.417000        1.0080           0
   65825 WT4  2298 TIP3 OH2  OT    -0.834000       15.9994           0
   65826 WT4  2298 TIP3 H1   HT     0.417000        1.0080           0
   65827 WT4  2298 TIP3 H2   HT     0.417000        1.0080           0
   65828 WT4  2304 TIP3 OH2  OT    -0.834000       15.9994           0
   65829 WT4  2304 TIP3 H1   HT     0.417000        1.0080           0
   65830 WT4  2304 TIP3 H2   HT     0.417000        1.0080           0
   65831 WT4  2305 TIP3 OH2  OT    -0.834000       15.9994           0
   65832 WT4  2305 TIP3 H1   HT     0.417000        1.0080           0
   65833 WT4  2305 TIP3 H2   HT     0.417000        1.0080           0
   65834 WT4  2316 TIP3 OH2  OT    -0.834000       15.9994           0
   65835 WT4  2316 TIP3 H1   HT     0.417000        1.0080           0
   65836 WT4  2316 TIP3 H2   HT     0.417000        1.0080           0
   65837 WT4  2334 TIP3 OH2  OT    -0.834000       15.9994           0
   65838 WT4  2334 TIP3 H1   HT     0.417000        1.0080           0
   65839 WT4  2334 TIP3 H2   HT     0.417000        1.0080           0
   65840 WT4  2362 TIP3 OH2  OT    -0.834000       15.9994           0
   65841 WT4  2362 TIP3 H1   HT     0.417000        1.0080           0
   65842 WT4  2362 TIP3 H2   HT     0.417000        1.0080           0
   65843 WT4  2561 TIP3 OH2  OT    -0.834000       15.9994           0
   65844 WT4  2561 TIP3 H1   HT     0.417000        1.0080           0
   65845 WT4  2561 TIP3 H2   HT     0.417000        1.0080           0
   65846 WT4  2587 TIP3 OH2  OT    -0.834000       15.9994           0
   65847 WT4  2587 TIP3 H1   HT     0.417000        1.0080           0
   65848 WT4  2587 TIP3 H2   HT     0.417000        1.0080           0
   65849 WT4  2590 TIP3 OH2  OT    -0.834000       15.9994           0
   65850 WT4  2590 TIP3 H1   HT     0.417000        1.0080           0
   65851 WT4  2590 TIP3 H2   HT     0.417000        1.0080           0
   65852 WT4  2591 TIP3 OH2  OT    -0.834000       15.9994           0
   65853 WT4  2591 TIP3 H1   HT     0.417000        1.0080           0
   65854 WT4  2591 TIP3 H2   HT     0.417000        1.0080           0
   65855 WT4  2606 TIP3 OH2  OT    -0.834000       15.9994           0
   65856 WT4  2606 TIP3 H1   HT     0.417000        1.0080           0
   65857 WT4  2606 TIP3 H2   HT     0.417000        1.0080           0
   65858 WT4  2607 TIP3 OH2  OT    -0.834000       15.9994           0
   65859 WT4  2607 TIP3 H1   HT     0.417000        1.0080           0
   65860 WT4  2607 TIP3 H2   HT     0.417000        1.0080           0
   65861 WT4  2610 TIP3 OH2  OT    -0.834000       15.9994           0
   65862 WT4  2610 TIP3 H1   HT     0.417000        1.0080           0
   65863 WT4  2610 TIP3 H2   HT     0.417000        1.0080           0
   65864 WT4  2624 TIP3 OH2  OT    -0.834000       15.9994           0
   65865 WT4  2624 TIP3 H1   HT     0.417000        1.0080           0
   65866 WT4  2624 TIP3 H2   HT     0.417000        1.0080           0
   65867 WT4  2629 TIP3 OH2  OT    -0.834000       15.9994           0
   65868 WT4  2629 TIP3 H1   HT     0.417000        1.0080           0
   65869 WT4  2629 TIP3 H2   HT     0.417000        1.0080           0
   65870 WT4  2630 TIP3 OH2  OT    -0.834000       15.9994           0
   65871 WT4  2630 TIP3 H1   HT     0.417000        1.0080           0
   65872 WT4  2630 TIP3 H2   HT     0.417000        1.0080           0
   65873 WT4  2634 TIP3 OH2  OT    -0.834000       15.9994           0
   65874 WT4  2634 TIP3 H1   HT     0.417000        1.0080           0
   65875 WT4  2634 TIP3 H2   HT     0.417000        1.0080           0
   65876 WT4  2635 TIP3 OH2  OT    -0.834000       15.9994           0
   65877 WT4  2635 TIP3 H1   HT     0.417000        1.0080           0
   65878 WT4  2635 TIP3 H2   HT     0.417000        1.0080           0
   65879 WT4  2638 TIP3 OH2  OT    -0.834000       15.9994           0
   65880 WT4  2638 TIP3 H1   HT     0.417000        1.0080           0
   65881 WT4  2638 TIP3 H2   HT     0.417000        1.0080           0
   65882 WT4  2641 TIP3 OH2  OT    -0.834000       15.9994           0
   65883 WT4  2641 TIP3 H1   HT     0.417000        1.0080           0
   65884 WT4  2641 TIP3 H2   HT     0.417000        1.0080           0
   65885 WT4  2650 TIP3 OH2  OT    -0.834000       15.9994           0
   65886 WT4  2650 TIP3 H1   HT     0.417000        1.0080           0
   65887 WT4  2650 TIP3 H2   HT     0.417000        1.0080           0
   65888 WT4  2652 TIP3 OH2  OT    -0.834000       15.9994           0
   65889 WT4  2652 TIP3 H1   HT     0.417000        1.0080           0
   65890 WT4  2652 TIP3 H2   HT     0.417000        1.0080           0
   65891 WT4  2657 TIP3 OH2  OT    -0.834000       15.9994           0
   65892 WT4  2657 TIP3 H1   HT     0.417000        1.0080           0
   65893 WT4  2657 TIP3 H2   HT     0.417000        1.0080           0
   65894 WT4  2660 TIP3 OH2  OT    -0.834000       15.9994           0
   65895 WT4  2660 TIP3 H1   HT     0.417000        1.0080           0
   65896 WT4  2660 TIP3 H2   HT     0.417000        1.0080           0
   65897 WT4  2661 TIP3 OH2  OT    -0.834000       15.9994           0
   65898 WT4  2661 TIP3 H1   HT     0.417000        1.0080           0
   65899 WT4  2661 TIP3 H2   HT     0.417000        1.0080           0
   65900 WT4  2662 TIP3 OH2  OT    -0.834000       15.9994           0
   65901 WT4  2662 TIP3 H1   HT     0.417000        1.0080           0
   65902 WT4  2662 TIP3 H2   HT     0.417000        1.0080           0
   65903 WT4  2666 TIP3 OH2  OT    -0.834000       15.9994           0
   65904 WT4  2666 TIP3 H1   HT     0.417000        1.0080           0
   65905 WT4  2666 TIP3 H2   HT     0.417000        1.0080           0
   65906 WT4  2667 TIP3 OH2  OT    -0.834000       15.9994           0
   65907 WT4  2667 TIP3 H1   HT     0.417000        1.0080           0
   65908 WT4  2667 TIP3 H2   HT     0.417000        1.0080           0
   65909 WT4  2673 TIP3 OH2  OT    -0.834000       15.9994           0
   65910 WT4  2673 TIP3 H1   HT     0.417000        1.0080           0
   65911 WT4  2673 TIP3 H2   HT     0.417000        1.0080           0
   65912 WT4  2674 TIP3 OH2  OT    -0.834000       15.9994           0
   65913 WT4  2674 TIP3 H1   HT     0.417000        1.0080           0
   65914 WT4  2674 TIP3 H2   HT     0.417000        1.0080           0
   65915 WT4  2675 TIP3 OH2  OT    -0.834000       15.9994           0
   65916 WT4  2675 TIP3 H1   HT     0.417000        1.0080           0
   65917 WT4  2675 TIP3 H2   HT     0.417000        1.0080           0
   65918 WT4  2676 TIP3 OH2  OT    -0.834000       15.9994           0
   65919 WT4  2676 TIP3 H1   HT     0.417000        1.0080           0
   65920 WT4  2676 TIP3 H2   HT     0.417000        1.0080           0
   65921 WT4  2681 TIP3 OH2  OT    -0.834000       15.9994           0
   65922 WT4  2681 TIP3 H1   HT     0.417000        1.0080           0
   65923 WT4  2681 TIP3 H2   HT     0.417000        1.0080           0
   65924 WT4  2683 TIP3 OH2  OT    -0.834000       15.9994           0
   65925 WT4  2683 TIP3 H1   HT     0.417000        1.0080           0
   65926 WT4  2683 TIP3 H2   HT     0.417000        1.0080           0
   65927 WT4  2684 TIP3 OH2  OT    -0.834000       15.9994           0
   65928 WT4  2684 TIP3 H1   HT     0.417000        1.0080           0
   65929 WT4  2684 TIP3 H2   HT     0.417000        1.0080           0
   65930 WT4  2689 TIP3 OH2  OT    -0.834000       15.9994           0
   65931 WT4  2689 TIP3 H1   HT     0.417000        1.0080           0
   65932 WT4  2689 TIP3 H2   HT     0.417000        1.0080           0
   65933 WT4  2690 TIP3 OH2  OT    -0.834000       15.9994           0
   65934 WT4  2690 TIP3 H1   HT     0.417000        1.0080           0
   65935 WT4  2690 TIP3 H2   HT     0.417000        1.0080           0
   65936 WT4  2691 TIP3 OH2  OT    -0.834000       15.9994           0
   65937 WT4  2691 TIP3 H1   HT     0.417000        1.0080           0
   65938 WT4  2691 TIP3 H2   HT     0.417000        1.0080           0
   65939 WT4  2694 TIP3 OH2  OT    -0.834000       15.9994           0
   65940 WT4  2694 TIP3 H1   HT     0.417000        1.0080           0
   65941 WT4  2694 TIP3 H2   HT     0.417000        1.0080           0
   65942 WT4  2696 TIP3 OH2  OT    -0.834000       15.9994           0
   65943 WT4  2696 TIP3 H1   HT     0.417000        1.0080           0
   65944 WT4  2696 TIP3 H2   HT     0.417000        1.0080           0
   65945 WT4  2702 TIP3 OH2  OT    -0.834000       15.9994           0
   65946 WT4  2702 TIP3 H1   HT     0.417000        1.0080           0
   65947 WT4  2702 TIP3 H2   HT     0.417000        1.0080           0
   65948 WT4  2705 TIP3 OH2  OT    -0.834000       15.9994           0
   65949 WT4  2705 TIP3 H1   HT     0.417000        1.0080           0
   65950 WT4  2705 TIP3 H2   HT     0.417000        1.0080           0
   65951 WT4  2708 TIP3 OH2  OT    -0.834000       15.9994           0
   65952 WT4  2708 TIP3 H1   HT     0.417000        1.0080           0
   65953 WT4  2708 TIP3 H2   HT     0.417000        1.0080           0
   65954 WT4  2711 TIP3 OH2  OT    -0.834000       15.9994           0
   65955 WT4  2711 TIP3 H1   HT     0.417000        1.0080           0
   65956 WT4  2711 TIP3 H2   HT     0.417000        1.0080           0
   65957 WT4  2722 TIP3 OH2  OT    -0.834000       15.9994           0
   65958 WT4  2722 TIP3 H1   HT     0.417000        1.0080           0
   65959 WT4  2722 TIP3 H2   HT     0.417000        1.0080           0
   65960 WT4  2729 TIP3 OH2  OT    -0.834000       15.9994           0
   65961 WT4  2729 TIP3 H1   HT     0.417000        1.0080           0
   65962 WT4  2729 TIP3 H2   HT     0.417000        1.0080           0
   65963 WT4  2748 TIP3 OH2  OT    -0.834000       15.9994           0
   65964 WT4  2748 TIP3 H1   HT     0.417000        1.0080           0
   65965 WT4  2748 TIP3 H2   HT     0.417000        1.0080           0
   65966 WT4  2751 TIP3 OH2  OT    -0.834000       15.9994           0
   65967 WT4  2751 TIP3 H1   HT     0.417000        1.0080           0
   65968 WT4  2751 TIP3 H2   HT     0.417000        1.0080           0
   65969 WT4  2764 TIP3 OH2  OT    -0.834000       15.9994           0
   65970 WT4  2764 TIP3 H1   HT     0.417000        1.0080           0
   65971 WT4  2764 TIP3 H2   HT     0.417000        1.0080           0
   65972 WT4  2766 TIP3 OH2  OT    -0.834000       15.9994           0
   65973 WT4  2766 TIP3 H1   HT     0.417000        1.0080           0
   65974 WT4  2766 TIP3 H2   HT     0.417000        1.0080           0
   65975 WT4  2985 TIP3 OH2  OT    -0.834000       15.9994           0
   65976 WT4  2985 TIP3 H1   HT     0.417000        1.0080           0
   65977 WT4  2985 TIP3 H2   HT     0.417000        1.0080           0
   65978 WT4  3005 TIP3 OH2  OT    -0.834000       15.9994           0
   65979 WT4  3005 TIP3 H1   HT     0.417000        1.0080           0
   65980 WT4  3005 TIP3 H2   HT     0.417000        1.0080           0
   65981 WT4  3010 TIP3 OH2  OT    -0.834000       15.9994           0
   65982 WT4  3010 TIP3 H1   HT     0.417000        1.0080           0
   65983 WT4  3010 TIP3 H2   HT     0.417000        1.0080           0
   65984 WT4  3012 TIP3 OH2  OT    -0.834000       15.9994           0
   65985 WT4  3012 TIP3 H1   HT     0.417000        1.0080           0
   65986 WT4  3012 TIP3 H2   HT     0.417000        1.0080           0
   65987 WT4  3016 TIP3 OH2  OT    -0.834000       15.9994           0
   65988 WT4  3016 TIP3 H1   HT     0.417000        1.0080           0
   65989 WT4  3016 TIP3 H2   HT     0.417000        1.0080           0
   65990 WT4  3027 TIP3 OH2  OT    -0.834000       15.9994           0
   65991 WT4  3027 TIP3 H1   HT     0.417000        1.0080           0
   65992 WT4  3027 TIP3 H2   HT     0.417000        1.0080           0
   65993 WT4  3033 TIP3 OH2  OT    -0.834000       15.9994           0
   65994 WT4  3033 TIP3 H1   HT     0.417000        1.0080           0
   65995 WT4  3033 TIP3 H2   HT     0.417000        1.0080           0
   65996 WT4  3036 TIP3 OH2  OT    -0.834000       15.9994           0
   65997 WT4  3036 TIP3 H1   HT     0.417000        1.0080           0
   65998 WT4  3036 TIP3 H2   HT     0.417000        1.0080           0
   65999 WT4  3049 TIP3 OH2  OT    -0.834000       15.9994           0
   66000 WT4  3049 TIP3 H1   HT     0.417000        1.0080           0
   66001 WT4  3049 TIP3 H2   HT     0.417000        1.0080           0
   66002 WT4  3050 TIP3 OH2  OT    -0.834000       15.9994           0
   66003 WT4  3050 TIP3 H1   HT     0.417000        1.0080           0
   66004 WT4  3050 TIP3 H2   HT     0.417000        1.0080           0
   66005 WT4  3053 TIP3 OH2  OT    -0.834000       15.9994           0
   66006 WT4  3053 TIP3 H1   HT     0.417000        1.0080           0
   66007 WT4  3053 TIP3 H2   HT     0.417000        1.0080           0
   66008 WT4  3057 TIP3 OH2  OT    -0.834000       15.9994           0
   66009 WT4  3057 TIP3 H1   HT     0.417000        1.0080           0
   66010 WT4  3057 TIP3 H2   HT     0.417000        1.0080           0
   66011 WT4  3058 TIP3 OH2  OT    -0.834000       15.9994           0
   66012 WT4  3058 TIP3 H1   HT     0.417000        1.0080           0
   66013 WT4  3058 TIP3 H2   HT     0.417000        1.0080           0
   66014 WT4  3066 TIP3 OH2  OT    -0.834000       15.9994           0
   66015 WT4  3066 TIP3 H1   HT     0.417000        1.0080           0
   66016 WT4  3066 TIP3 H2   HT     0.417000        1.0080           0
   66017 WT4  3072 TIP3 OH2  OT    -0.834000       15.9994           0
   66018 WT4  3072 TIP3 H1   HT     0.417000        1.0080           0
   66019 WT4  3072 TIP3 H2   HT     0.417000        1.0080           0
   66020 WT4  3073 TIP3 OH2  OT    -0.834000       15.9994           0
   66021 WT4  3073 TIP3 H1   HT     0.417000        1.0080           0
   66022 WT4  3073 TIP3 H2   HT     0.417000        1.0080           0
   66023 WT4  3075 TIP3 OH2  OT    -0.834000       15.9994           0
   66024 WT4  3075 TIP3 H1   HT     0.417000        1.0080           0
   66025 WT4  3075 TIP3 H2   HT     0.417000        1.0080           0
   66026 WT4  3084 TIP3 OH2  OT    -0.834000       15.9994           0
   66027 WT4  3084 TIP3 H1   HT     0.417000        1.0080           0
   66028 WT4  3084 TIP3 H2   HT     0.417000        1.0080           0
   66029 WT4  3085 TIP3 OH2  OT    -0.834000       15.9994           0
   66030 WT4  3085 TIP3 H1   HT     0.417000        1.0080           0
   66031 WT4  3085 TIP3 H2   HT     0.417000        1.0080           0
   66032 WT4  3086 TIP3 OH2  OT    -0.834000       15.9994           0
   66033 WT4  3086 TIP3 H1   HT     0.417000        1.0080           0
   66034 WT4  3086 TIP3 H2   HT     0.417000        1.0080           0
   66035 WT4  3090 TIP3 OH2  OT    -0.834000       15.9994           0
   66036 WT4  3090 TIP3 H1   HT     0.417000        1.0080           0
   66037 WT4  3090 TIP3 H2   HT     0.417000        1.0080           0
   66038 WT4  3096 TIP3 OH2  OT    -0.834000       15.9994           0
   66039 WT4  3096 TIP3 H1   HT     0.417000        1.0080           0
   66040 WT4  3096 TIP3 H2   HT     0.417000        1.0080           0
   66041 WT4  3097 TIP3 OH2  OT    -0.834000       15.9994           0
   66042 WT4  3097 TIP3 H1   HT     0.417000        1.0080           0
   66043 WT4  3097 TIP3 H2   HT     0.417000        1.0080           0
   66044 WT4  3099 TIP3 OH2  OT    -0.834000       15.9994           0
   66045 WT4  3099 TIP3 H1   HT     0.417000        1.0080           0
   66046 WT4  3099 TIP3 H2   HT     0.417000        1.0080           0
   66047 WT4  3101 TIP3 OH2  OT    -0.834000       15.9994           0
   66048 WT4  3101 TIP3 H1   HT     0.417000        1.0080           0
   66049 WT4  3101 TIP3 H2   HT     0.417000        1.0080           0
   66050 WT4  3103 TIP3 OH2  OT    -0.834000       15.9994           0
   66051 WT4  3103 TIP3 H1   HT     0.417000        1.0080           0
   66052 WT4  3103 TIP3 H2   HT     0.417000        1.0080           0
   66053 WT4  3106 TIP3 OH2  OT    -0.834000       15.9994           0
   66054 WT4  3106 TIP3 H1   HT     0.417000        1.0080           0
   66055 WT4  3106 TIP3 H2   HT     0.417000        1.0080           0
   66056 WT4  3117 TIP3 OH2  OT    -0.834000       15.9994           0
   66057 WT4  3117 TIP3 H1   HT     0.417000        1.0080           0
   66058 WT4  3117 TIP3 H2   HT     0.417000        1.0080           0
   66059 WT4  3121 TIP3 OH2  OT    -0.834000       15.9994           0
   66060 WT4  3121 TIP3 H1   HT     0.417000        1.0080           0
   66061 WT4  3121 TIP3 H2   HT     0.417000        1.0080           0
   66062 WT4  3124 TIP3 OH2  OT    -0.834000       15.9994           0
   66063 WT4  3124 TIP3 H1   HT     0.417000        1.0080           0
   66064 WT4  3124 TIP3 H2   HT     0.417000        1.0080           0
   66065 WT4  3130 TIP3 OH2  OT    -0.834000       15.9994           0
   66066 WT4  3130 TIP3 H1   HT     0.417000        1.0080           0
   66067 WT4  3130 TIP3 H2   HT     0.417000        1.0080           0
   66068 WT4  3136 TIP3 OH2  OT    -0.834000       15.9994           0
   66069 WT4  3136 TIP3 H1   HT     0.417000        1.0080           0
   66070 WT4  3136 TIP3 H2   HT     0.417000        1.0080           0
   66071 WT4  3139 TIP3 OH2  OT    -0.834000       15.9994           0
   66072 WT4  3139 TIP3 H1   HT     0.417000        1.0080           0
   66073 WT4  3139 TIP3 H2   HT     0.417000        1.0080           0
   66074 WT4  3140 TIP3 OH2  OT    -0.834000       15.9994           0
   66075 WT4  3140 TIP3 H1   HT     0.417000        1.0080           0
   66076 WT4  3140 TIP3 H2   HT     0.417000        1.0080           0
   66077 WT4  3141 TIP3 OH2  OT    -0.834000       15.9994           0
   66078 WT4  3141 TIP3 H1   HT     0.417000        1.0080           0
   66079 WT4  3141 TIP3 H2   HT     0.417000        1.0080           0
   66080 WT4  3142 TIP3 OH2  OT    -0.834000       15.9994           0
   66081 WT4  3142 TIP3 H1   HT     0.417000        1.0080           0
   66082 WT4  3142 TIP3 H2   HT     0.417000        1.0080           0
   66083 WT4  3145 TIP3 OH2  OT    -0.834000       15.9994           0
   66084 WT4  3145 TIP3 H1   HT     0.417000        1.0080           0
   66085 WT4  3145 TIP3 H2   HT     0.417000        1.0080           0
   66086 WT4  3147 TIP3 OH2  OT    -0.834000       15.9994           0
   66087 WT4  3147 TIP3 H1   HT     0.417000        1.0080           0
   66088 WT4  3147 TIP3 H2   HT     0.417000        1.0080           0
   66089 WT4  3148 TIP3 OH2  OT    -0.834000       15.9994           0
   66090 WT4  3148 TIP3 H1   HT     0.417000        1.0080           0
   66091 WT4  3148 TIP3 H2   HT     0.417000        1.0080           0
   66092 WT4  3149 TIP3 OH2  OT    -0.834000       15.9994           0
   66093 WT4  3149 TIP3 H1   HT     0.417000        1.0080           0
   66094 WT4  3149 TIP3 H2   HT     0.417000        1.0080           0
   66095 WT4  3152 TIP3 OH2  OT    -0.834000       15.9994           0
   66096 WT4  3152 TIP3 H1   HT     0.417000        1.0080           0
   66097 WT4  3152 TIP3 H2   HT     0.417000        1.0080           0
   66098 WT4  3162 TIP3 OH2  OT    -0.834000       15.9994           0
   66099 WT4  3162 TIP3 H1   HT     0.417000        1.0080           0
   66100 WT4  3162 TIP3 H2   HT     0.417000        1.0080           0
   66101 WT4  3163 TIP3 OH2  OT    -0.834000       15.9994           0
   66102 WT4  3163 TIP3 H1   HT     0.417000        1.0080           0
   66103 WT4  3163 TIP3 H2   HT     0.417000        1.0080           0
   66104 WT4  3171 TIP3 OH2  OT    -0.834000       15.9994           0
   66105 WT4  3171 TIP3 H1   HT     0.417000        1.0080           0
   66106 WT4  3171 TIP3 H2   HT     0.417000        1.0080           0
   66107 WT4  3173 TIP3 OH2  OT    -0.834000       15.9994           0
   66108 WT4  3173 TIP3 H1   HT     0.417000        1.0080           0
   66109 WT4  3173 TIP3 H2   HT     0.417000        1.0080           0
   66110 WT4  3177 TIP3 OH2  OT    -0.834000       15.9994           0
   66111 WT4  3177 TIP3 H1   HT     0.417000        1.0080           0
   66112 WT4  3177 TIP3 H2   HT     0.417000        1.0080           0
   66113 WT4  3186 TIP3 OH2  OT    -0.834000       15.9994           0
   66114 WT4  3186 TIP3 H1   HT     0.417000        1.0080           0
   66115 WT4  3186 TIP3 H2   HT     0.417000        1.0080           0
   66116 WT4  3209 TIP3 OH2  OT    -0.834000       15.9994           0
   66117 WT4  3209 TIP3 H1   HT     0.417000        1.0080           0
   66118 WT4  3209 TIP3 H2   HT     0.417000        1.0080           0
   66119 WT4  3426 TIP3 OH2  OT    -0.834000       15.9994           0
   66120 WT4  3426 TIP3 H1   HT     0.417000        1.0080           0
   66121 WT4  3426 TIP3 H2   HT     0.417000        1.0080           0
   66122 WT4  3434 TIP3 OH2  OT    -0.834000       15.9994           0
   66123 WT4  3434 TIP3 H1   HT     0.417000        1.0080           0
   66124 WT4  3434 TIP3 H2   HT     0.417000        1.0080           0
   66125 WT4  3440 TIP3 OH2  OT    -0.834000       15.9994           0
   66126 WT4  3440 TIP3 H1   HT     0.417000        1.0080           0
   66127 WT4  3440 TIP3 H2   HT     0.417000        1.0080           0
   66128 WT4  3447 TIP3 OH2  OT    -0.834000       15.9994           0
   66129 WT4  3447 TIP3 H1   HT     0.417000        1.0080           0
   66130 WT4  3447 TIP3 H2   HT     0.417000        1.0080           0
   66131 WT4  3474 TIP3 OH2  OT    -0.834000       15.9994           0
   66132 WT4  3474 TIP3 H1   HT     0.417000        1.0080           0
   66133 WT4  3474 TIP3 H2   HT     0.417000        1.0080           0
   66134 WT4  3476 TIP3 OH2  OT    -0.834000       15.9994           0
   66135 WT4  3476 TIP3 H1   HT     0.417000        1.0080           0
   66136 WT4  3476 TIP3 H2   HT     0.417000        1.0080           0
   66137 WT4  3480 TIP3 OH2  OT    -0.834000       15.9994           0
   66138 WT4  3480 TIP3 H1   HT     0.417000        1.0080           0
   66139 WT4  3480 TIP3 H2   HT     0.417000        1.0080           0
   66140 WT4  3484 TIP3 OH2  OT    -0.834000       15.9994           0
   66141 WT4  3484 TIP3 H1   HT     0.417000        1.0080           0
   66142 WT4  3484 TIP3 H2   HT     0.417000        1.0080           0
   66143 WT4  3496 TIP3 OH2  OT    -0.834000       15.9994           0
   66144 WT4  3496 TIP3 H1   HT     0.417000        1.0080           0
   66145 WT4  3496 TIP3 H2   HT     0.417000        1.0080           0
   66146 WT4  3497 TIP3 OH2  OT    -0.834000       15.9994           0
   66147 WT4  3497 TIP3 H1   HT     0.417000        1.0080           0
   66148 WT4  3497 TIP3 H2   HT     0.417000        1.0080           0
   66149 WT4  3504 TIP3 OH2  OT    -0.834000       15.9994           0
   66150 WT4  3504 TIP3 H1   HT     0.417000        1.0080           0
   66151 WT4  3504 TIP3 H2   HT     0.417000        1.0080           0
   66152 WT4  3507 TIP3 OH2  OT    -0.834000       15.9994           0
   66153 WT4  3507 TIP3 H1   HT     0.417000        1.0080           0
   66154 WT4  3507 TIP3 H2   HT     0.417000        1.0080           0
   66155 WT4  3517 TIP3 OH2  OT    -0.834000       15.9994           0
   66156 WT4  3517 TIP3 H1   HT     0.417000        1.0080           0
   66157 WT4  3517 TIP3 H2   HT     0.417000        1.0080           0
   66158 WT4  3521 TIP3 OH2  OT    -0.834000       15.9994           0
   66159 WT4  3521 TIP3 H1   HT     0.417000        1.0080           0
   66160 WT4  3521 TIP3 H2   HT     0.417000        1.0080           0
   66161 WT4  3529 TIP3 OH2  OT    -0.834000       15.9994           0
   66162 WT4  3529 TIP3 H1   HT     0.417000        1.0080           0
   66163 WT4  3529 TIP3 H2   HT     0.417000        1.0080           0
   66164 WT4  3533 TIP3 OH2  OT    -0.834000       15.9994           0
   66165 WT4  3533 TIP3 H1   HT     0.417000        1.0080           0
   66166 WT4  3533 TIP3 H2   HT     0.417000        1.0080           0
   66167 WT4  3543 TIP3 OH2  OT    -0.834000       15.9994           0
   66168 WT4  3543 TIP3 H1   HT     0.417000        1.0080           0
   66169 WT4  3543 TIP3 H2   HT     0.417000        1.0080           0
   66170 WT4  3544 TIP3 OH2  OT    -0.834000       15.9994           0
   66171 WT4  3544 TIP3 H1   HT     0.417000        1.0080           0
   66172 WT4  3544 TIP3 H2   HT     0.417000        1.0080           0
   66173 WT4  3546 TIP3 OH2  OT    -0.834000       15.9994           0
   66174 WT4  3546 TIP3 H1   HT     0.417000        1.0080           0
   66175 WT4  3546 TIP3 H2   HT     0.417000        1.0080           0
   66176 WT4  3555 TIP3 OH2  OT    -0.834000       15.9994           0
   66177 WT4  3555 TIP3 H1   HT     0.417000        1.0080           0
   66178 WT4  3555 TIP3 H2   HT     0.417000        1.0080           0
   66179 WT4  3561 TIP3 OH2  OT    -0.834000       15.9994           0
   66180 WT4  3561 TIP3 H1   HT     0.417000        1.0080           0
   66181 WT4  3561 TIP3 H2   HT     0.417000        1.0080           0
   66182 WT4  3562 TIP3 OH2  OT    -0.834000       15.9994           0
   66183 WT4  3562 TIP3 H1   HT     0.417000        1.0080           0
   66184 WT4  3562 TIP3 H2   HT     0.417000        1.0080           0
   66185 WT4  3569 TIP3 OH2  OT    -0.834000       15.9994           0
   66186 WT4  3569 TIP3 H1   HT     0.417000        1.0080           0
   66187 WT4  3569 TIP3 H2   HT     0.417000        1.0080           0
   66188 WT4  3579 TIP3 OH2  OT    -0.834000       15.9994           0
   66189 WT4  3579 TIP3 H1   HT     0.417000        1.0080           0
   66190 WT4  3579 TIP3 H2   HT     0.417000        1.0080           0
   66191 WT4  3587 TIP3 OH2  OT    -0.834000       15.9994           0
   66192 WT4  3587 TIP3 H1   HT     0.417000        1.0080           0
   66193 WT4  3587 TIP3 H2   HT     0.417000        1.0080           0
   66194 WT4  3611 TIP3 OH2  OT    -0.834000       15.9994           0
   66195 WT4  3611 TIP3 H1   HT     0.417000        1.0080           0
   66196 WT4  3611 TIP3 H2   HT     0.417000        1.0080           0
   66197 WT4  3612 TIP3 OH2  OT    -0.834000       15.9994           0
   66198 WT4  3612 TIP3 H1   HT     0.417000        1.0080           0
   66199 WT4  3612 TIP3 H2   HT     0.417000        1.0080           0
   66200 WT4  3619 TIP3 OH2  OT    -0.834000       15.9994           0
   66201 WT4  3619 TIP3 H1   HT     0.417000        1.0080           0
   66202 WT4  3619 TIP3 H2   HT     0.417000        1.0080           0
   66203 WT4  3696 TIP3 OH2  OT    -0.834000       15.9994           0
   66204 WT4  3696 TIP3 H1   HT     0.417000        1.0080           0
   66205 WT4  3696 TIP3 H2   HT     0.417000        1.0080           0
   66206 WT4  3906 TIP3 OH2  OT    -0.834000       15.9994           0
   66207 WT4  3906 TIP3 H1   HT     0.417000        1.0080           0
   66208 WT4  3906 TIP3 H2   HT     0.417000        1.0080           0
   66209 WT4  3919 TIP3 OH2  OT    -0.834000       15.9994           0
   66210 WT4  3919 TIP3 H1   HT     0.417000        1.0080           0
   66211 WT4  3919 TIP3 H2   HT     0.417000        1.0080           0
   66212 WT4  3925 TIP3 OH2  OT    -0.834000       15.9994           0
   66213 WT4  3925 TIP3 H1   HT     0.417000        1.0080           0
   66214 WT4  3925 TIP3 H2   HT     0.417000        1.0080           0
   66215 WT4  3933 TIP3 OH2  OT    -0.834000       15.9994           0
   66216 WT4  3933 TIP3 H1   HT     0.417000        1.0080           0
   66217 WT4  3933 TIP3 H2   HT     0.417000        1.0080           0
   66218 WT4  3943 TIP3 OH2  OT    -0.834000       15.9994           0
   66219 WT4  3943 TIP3 H1   HT     0.417000        1.0080           0
   66220 WT4  3943 TIP3 H2   HT     0.417000        1.0080           0
   66221 WT4  3950 TIP3 OH2  OT    -0.834000       15.9994           0
   66222 WT4  3950 TIP3 H1   HT     0.417000        1.0080           0
   66223 WT4  3950 TIP3 H2   HT     0.417000        1.0080           0
   66224 WT4  3951 TIP3 OH2  OT    -0.834000       15.9994           0
   66225 WT4  3951 TIP3 H1   HT     0.417000        1.0080           0
   66226 WT4  3951 TIP3 H2   HT     0.417000        1.0080           0
   66227 WT4  3953 TIP3 OH2  OT    -0.834000       15.9994           0
   66228 WT4  3953 TIP3 H1   HT     0.417000        1.0080           0
   66229 WT4  3953 TIP3 H2   HT     0.417000        1.0080           0
   66230 WT4  3964 TIP3 OH2  OT    -0.834000       15.9994           0
   66231 WT4  3964 TIP3 H1   HT     0.417000        1.0080           0
   66232 WT4  3964 TIP3 H2   HT     0.417000        1.0080           0
   66233 WT4  3967 TIP3 OH2  OT    -0.834000       15.9994           0
   66234 WT4  3967 TIP3 H1   HT     0.417000        1.0080           0
   66235 WT4  3967 TIP3 H2   HT     0.417000        1.0080           0
   66236 WT4  3968 TIP3 OH2  OT    -0.834000       15.9994           0
   66237 WT4  3968 TIP3 H1   HT     0.417000        1.0080           0
   66238 WT4  3968 TIP3 H2   HT     0.417000        1.0080           0
   66239 WT4  3974 TIP3 OH2  OT    -0.834000       15.9994           0
   66240 WT4  3974 TIP3 H1   HT     0.417000        1.0080           0
   66241 WT4  3974 TIP3 H2   HT     0.417000        1.0080           0
   66242 WT4  3983 TIP3 OH2  OT    -0.834000       15.9994           0
   66243 WT4  3983 TIP3 H1   HT     0.417000        1.0080           0
   66244 WT4  3983 TIP3 H2   HT     0.417000        1.0080           0
   66245 WT4  3985 TIP3 OH2  OT    -0.834000       15.9994           0
   66246 WT4  3985 TIP3 H1   HT     0.417000        1.0080           0
   66247 WT4  3985 TIP3 H2   HT     0.417000        1.0080           0
   66248 WT4  3986 TIP3 OH2  OT    -0.834000       15.9994           0
   66249 WT4  3986 TIP3 H1   HT     0.417000        1.0080           0
   66250 WT4  3986 TIP3 H2   HT     0.417000        1.0080           0
   66251 WT4  3989 TIP3 OH2  OT    -0.834000       15.9994           0
   66252 WT4  3989 TIP3 H1   HT     0.417000        1.0080           0
   66253 WT4  3989 TIP3 H2   HT     0.417000        1.0080           0
   66254 WT4  3990 TIP3 OH2  OT    -0.834000       15.9994           0
   66255 WT4  3990 TIP3 H1   HT     0.417000        1.0080           0
   66256 WT4  3990 TIP3 H2   HT     0.417000        1.0080           0
   66257 WT4  3991 TIP3 OH2  OT    -0.834000       15.9994           0
   66258 WT4  3991 TIP3 H1   HT     0.417000        1.0080           0
   66259 WT4  3991 TIP3 H2   HT     0.417000        1.0080           0
   66260 WT4  3997 TIP3 OH2  OT    -0.834000       15.9994           0
   66261 WT4  3997 TIP3 H1   HT     0.417000        1.0080           0
   66262 WT4  3997 TIP3 H2   HT     0.417000        1.0080           0
   66263 WT4  3999 TIP3 OH2  OT    -0.834000       15.9994           0
   66264 WT4  3999 TIP3 H1   HT     0.417000        1.0080           0
   66265 WT4  3999 TIP3 H2   HT     0.417000        1.0080           0
   66266 WT4  4001 TIP3 OH2  OT    -0.834000       15.9994           0
   66267 WT4  4001 TIP3 H1   HT     0.417000        1.0080           0
   66268 WT4  4001 TIP3 H2   HT     0.417000        1.0080           0
   66269 WT4  4003 TIP3 OH2  OT    -0.834000       15.9994           0
   66270 WT4  4003 TIP3 H1   HT     0.417000        1.0080           0
   66271 WT4  4003 TIP3 H2   HT     0.417000        1.0080           0
   66272 WT4  4004 TIP3 OH2  OT    -0.834000       15.9994           0
   66273 WT4  4004 TIP3 H1   HT     0.417000        1.0080           0
   66274 WT4  4004 TIP3 H2   HT     0.417000        1.0080           0
   66275 WT4  4005 TIP3 OH2  OT    -0.834000       15.9994           0
   66276 WT4  4005 TIP3 H1   HT     0.417000        1.0080           0
   66277 WT4  4005 TIP3 H2   HT     0.417000        1.0080           0
   66278 WT4  4006 TIP3 OH2  OT    -0.834000       15.9994           0
   66279 WT4  4006 TIP3 H1   HT     0.417000        1.0080           0
   66280 WT4  4006 TIP3 H2   HT     0.417000        1.0080           0
   66281 WT4  4013 TIP3 OH2  OT    -0.834000       15.9994           0
   66282 WT4  4013 TIP3 H1   HT     0.417000        1.0080           0
   66283 WT4  4013 TIP3 H2   HT     0.417000        1.0080           0
   66284 WT4  4017 TIP3 OH2  OT    -0.834000       15.9994           0
   66285 WT4  4017 TIP3 H1   HT     0.417000        1.0080           0
   66286 WT4  4017 TIP3 H2   HT     0.417000        1.0080           0
   66287 WT4  4021 TIP3 OH2  OT    -0.834000       15.9994           0
   66288 WT4  4021 TIP3 H1   HT     0.417000        1.0080           0
   66289 WT4  4021 TIP3 H2   HT     0.417000        1.0080           0
   66290 WT4  4023 TIP3 OH2  OT    -0.834000       15.9994           0
   66291 WT4  4023 TIP3 H1   HT     0.417000        1.0080           0
   66292 WT4  4023 TIP3 H2   HT     0.417000        1.0080           0
   66293 WT4  4031 TIP3 OH2  OT    -0.834000       15.9994           0
   66294 WT4  4031 TIP3 H1   HT     0.417000        1.0080           0
   66295 WT4  4031 TIP3 H2   HT     0.417000        1.0080           0
   66296 WT4  4035 TIP3 OH2  OT    -0.834000       15.9994           0
   66297 WT4  4035 TIP3 H1   HT     0.417000        1.0080           0
   66298 WT4  4035 TIP3 H2   HT     0.417000        1.0080           0
   66299 WT4  4036 TIP3 OH2  OT    -0.834000       15.9994           0
   66300 WT4  4036 TIP3 H1   HT     0.417000        1.0080           0
   66301 WT4  4036 TIP3 H2   HT     0.417000        1.0080           0
   66302 WT4  4040 TIP3 OH2  OT    -0.834000       15.9994           0
   66303 WT4  4040 TIP3 H1   HT     0.417000        1.0080           0
   66304 WT4  4040 TIP3 H2   HT     0.417000        1.0080           0
   66305 WT4  4041 TIP3 OH2  OT    -0.834000       15.9994           0
   66306 WT4  4041 TIP3 H1   HT     0.417000        1.0080           0
   66307 WT4  4041 TIP3 H2   HT     0.417000        1.0080           0
   66308 WT4  4042 TIP3 OH2  OT    -0.834000       15.9994           0
   66309 WT4  4042 TIP3 H1   HT     0.417000        1.0080           0
   66310 WT4  4042 TIP3 H2   HT     0.417000        1.0080           0
   66311 WT4  4052 TIP3 OH2  OT    -0.834000       15.9994           0
   66312 WT4  4052 TIP3 H1   HT     0.417000        1.0080           0
   66313 WT4  4052 TIP3 H2   HT     0.417000        1.0080           0
   66314 WT4  4062 TIP3 OH2  OT    -0.834000       15.9994           0
   66315 WT4  4062 TIP3 H1   HT     0.417000        1.0080           0
   66316 WT4  4062 TIP3 H2   HT     0.417000        1.0080           0
   66317 WT4  4090 TIP3 OH2  OT    -0.834000       15.9994           0
   66318 WT4  4090 TIP3 H1   HT     0.417000        1.0080           0
   66319 WT4  4090 TIP3 H2   HT     0.417000        1.0080           0
   66320 WT4  4286 TIP3 OH2  OT    -0.834000       15.9994           0
   66321 WT4  4286 TIP3 H1   HT     0.417000        1.0080           0
   66322 WT4  4286 TIP3 H2   HT     0.417000        1.0080           0
   66323 WT4  4323 TIP3 OH2  OT    -0.834000       15.9994           0
   66324 WT4  4323 TIP3 H1   HT     0.417000        1.0080           0
   66325 WT4  4323 TIP3 H2   HT     0.417000        1.0080           0
   66326 WT4  4356 TIP3 OH2  OT    -0.834000       15.9994           0
   66327 WT4  4356 TIP3 H1   HT     0.417000        1.0080           0
   66328 WT4  4356 TIP3 H2   HT     0.417000        1.0080           0
   66329 WT4  4374 TIP3 OH2  OT    -0.834000       15.9994           0
   66330 WT4  4374 TIP3 H1   HT     0.417000        1.0080           0
   66331 WT4  4374 TIP3 H2   HT     0.417000        1.0080           0
   66332 WT4  4380 TIP3 OH2  OT    -0.834000       15.9994           0
   66333 WT4  4380 TIP3 H1   HT     0.417000        1.0080           0
   66334 WT4  4380 TIP3 H2   HT     0.417000        1.0080           0
   66335 WT4  4382 TIP3 OH2  OT    -0.834000       15.9994           0
   66336 WT4  4382 TIP3 H1   HT     0.417000        1.0080           0
   66337 WT4  4382 TIP3 H2   HT     0.417000        1.0080           0
   66338 WT4  4386 TIP3 OH2  OT    -0.834000       15.9994           0
   66339 WT4  4386 TIP3 H1   HT     0.417000        1.0080           0
   66340 WT4  4386 TIP3 H2   HT     0.417000        1.0080           0
   66341 WT4  4390 TIP3 OH2  OT    -0.834000       15.9994           0
   66342 WT4  4390 TIP3 H1   HT     0.417000        1.0080           0
   66343 WT4  4390 TIP3 H2   HT     0.417000        1.0080           0
   66344 WT4  4404 TIP3 OH2  OT    -0.834000       15.9994           0
   66345 WT4  4404 TIP3 H1   HT     0.417000        1.0080           0
   66346 WT4  4404 TIP3 H2   HT     0.417000        1.0080           0
   66347 WT4  4407 TIP3 OH2  OT    -0.834000       15.9994           0
   66348 WT4  4407 TIP3 H1   HT     0.417000        1.0080           0
   66349 WT4  4407 TIP3 H2   HT     0.417000        1.0080           0
   66350 WT4  4409 TIP3 OH2  OT    -0.834000       15.9994           0
   66351 WT4  4409 TIP3 H1   HT     0.417000        1.0080           0
   66352 WT4  4409 TIP3 H2   HT     0.417000        1.0080           0
   66353 WT4  4412 TIP3 OH2  OT    -0.834000       15.9994           0
   66354 WT4  4412 TIP3 H1   HT     0.417000        1.0080           0
   66355 WT4  4412 TIP3 H2   HT     0.417000        1.0080           0
   66356 WT4  4414 TIP3 OH2  OT    -0.834000       15.9994           0
   66357 WT4  4414 TIP3 H1   HT     0.417000        1.0080           0
   66358 WT4  4414 TIP3 H2   HT     0.417000        1.0080           0
   66359 WT4  4419 TIP3 OH2  OT    -0.834000       15.9994           0
   66360 WT4  4419 TIP3 H1   HT     0.417000        1.0080           0
   66361 WT4  4419 TIP3 H2   HT     0.417000        1.0080           0
   66362 WT4  4420 TIP3 OH2  OT    -0.834000       15.9994           0
   66363 WT4  4420 TIP3 H1   HT     0.417000        1.0080           0
   66364 WT4  4420 TIP3 H2   HT     0.417000        1.0080           0
   66365 WT4  4422 TIP3 OH2  OT    -0.834000       15.9994           0
   66366 WT4  4422 TIP3 H1   HT     0.417000        1.0080           0
   66367 WT4  4422 TIP3 H2   HT     0.417000        1.0080           0
   66368 WT4  4433 TIP3 OH2  OT    -0.834000       15.9994           0
   66369 WT4  4433 TIP3 H1   HT     0.417000        1.0080           0
   66370 WT4  4433 TIP3 H2   HT     0.417000        1.0080           0
   66371 WT4  4434 TIP3 OH2  OT    -0.834000       15.9994           0
   66372 WT4  4434 TIP3 H1   HT     0.417000        1.0080           0
   66373 WT4  4434 TIP3 H2   HT     0.417000        1.0080           0
   66374 WT4  4449 TIP3 OH2  OT    -0.834000       15.9994           0
   66375 WT4  4449 TIP3 H1   HT     0.417000        1.0080           0
   66376 WT4  4449 TIP3 H2   HT     0.417000        1.0080           0
   66377 WT4  4463 TIP3 OH2  OT    -0.834000       15.9994           0
   66378 WT4  4463 TIP3 H1   HT     0.417000        1.0080           0
   66379 WT4  4463 TIP3 H2   HT     0.417000        1.0080           0
   66380 WT4  4472 TIP3 OH2  OT    -0.834000       15.9994           0
   66381 WT4  4472 TIP3 H1   HT     0.417000        1.0080           0
   66382 WT4  4472 TIP3 H2   HT     0.417000        1.0080           0
   66383 WT4  4485 TIP3 OH2  OT    -0.834000       15.9994           0
   66384 WT4  4485 TIP3 H1   HT     0.417000        1.0080           0
   66385 WT4  4485 TIP3 H2   HT     0.417000        1.0080           0
   66386 WT4  4493 TIP3 OH2  OT    -0.834000       15.9994           0
   66387 WT4  4493 TIP3 H1   HT     0.417000        1.0080           0
   66388 WT4  4493 TIP3 H2   HT     0.417000        1.0080           0
   66389 WT4  4522 TIP3 OH2  OT    -0.834000       15.9994           0
   66390 WT4  4522 TIP3 H1   HT     0.417000        1.0080           0
   66391 WT4  4522 TIP3 H2   HT     0.417000        1.0080           0
   66392 WT4  4527 TIP3 OH2  OT    -0.834000       15.9994           0
   66393 WT4  4527 TIP3 H1   HT     0.417000        1.0080           0
   66394 WT4  4527 TIP3 H2   HT     0.417000        1.0080           0
   66395 WT4  4528 TIP3 OH2  OT    -0.834000       15.9994           0
   66396 WT4  4528 TIP3 H1   HT     0.417000        1.0080           0
   66397 WT4  4528 TIP3 H2   HT     0.417000        1.0080           0
   66398 WT4  4529 TIP3 OH2  OT    -0.834000       15.9994           0
   66399 WT4  4529 TIP3 H1   HT     0.417000        1.0080           0
   66400 WT4  4529 TIP3 H2   HT     0.417000        1.0080           0
   66401 WT4  4530 TIP3 OH2  OT    -0.834000       15.9994           0
   66402 WT4  4530 TIP3 H1   HT     0.417000        1.0080           0
   66403 WT4  4530 TIP3 H2   HT     0.417000        1.0080           0
   66404 WT4  4531 TIP3 OH2  OT    -0.834000       15.9994           0
   66405 WT4  4531 TIP3 H1   HT     0.417000        1.0080           0
   66406 WT4  4531 TIP3 H2   HT     0.417000        1.0080           0
   66407 WT4  4739 TIP3 OH2  OT    -0.834000       15.9994           0
   66408 WT4  4739 TIP3 H1   HT     0.417000        1.0080           0
   66409 WT4  4739 TIP3 H2   HT     0.417000        1.0080           0
   66410 WT4  4798 TIP3 OH2  OT    -0.834000       15.9994           0
   66411 WT4  4798 TIP3 H1   HT     0.417000        1.0080           0
   66412 WT4  4798 TIP3 H2   HT     0.417000        1.0080           0
   66413 WT4  4799 TIP3 OH2  OT    -0.834000       15.9994           0
   66414 WT4  4799 TIP3 H1   HT     0.417000        1.0080           0
   66415 WT4  4799 TIP3 H2   HT     0.417000        1.0080           0
   66416 WT4  4800 TIP3 OH2  OT    -0.834000       15.9994           0
   66417 WT4  4800 TIP3 H1   HT     0.417000        1.0080           0
   66418 WT4  4800 TIP3 H2   HT     0.417000        1.0080           0
   66419 WT4  4801 TIP3 OH2  OT    -0.834000       15.9994           0
   66420 WT4  4801 TIP3 H1   HT     0.417000        1.0080           0
   66421 WT4  4801 TIP3 H2   HT     0.417000        1.0080           0
   66422 WT4  4807 TIP3 OH2  OT    -0.834000       15.9994           0
   66423 WT4  4807 TIP3 H1   HT     0.417000        1.0080           0
   66424 WT4  4807 TIP3 H2   HT     0.417000        1.0080           0
   66425 WT4  4808 TIP3 OH2  OT    -0.834000       15.9994           0
   66426 WT4  4808 TIP3 H1   HT     0.417000        1.0080           0
   66427 WT4  4808 TIP3 H2   HT     0.417000        1.0080           0
   66428 WT4  4809 TIP3 OH2  OT    -0.834000       15.9994           0
   66429 WT4  4809 TIP3 H1   HT     0.417000        1.0080           0
   66430 WT4  4809 TIP3 H2   HT     0.417000        1.0080           0
   66431 WT4  4814 TIP3 OH2  OT    -0.834000       15.9994           0
   66432 WT4  4814 TIP3 H1   HT     0.417000        1.0080           0
   66433 WT4  4814 TIP3 H2   HT     0.417000        1.0080           0
   66434 WT4  4815 TIP3 OH2  OT    -0.834000       15.9994           0
   66435 WT4  4815 TIP3 H1   HT     0.417000        1.0080           0
   66436 WT4  4815 TIP3 H2   HT     0.417000        1.0080           0
   66437 WT4  4820 TIP3 OH2  OT    -0.834000       15.9994           0
   66438 WT4  4820 TIP3 H1   HT     0.417000        1.0080           0
   66439 WT4  4820 TIP3 H2   HT     0.417000        1.0080           0
   66440 WT4  4821 TIP3 OH2  OT    -0.834000       15.9994           0
   66441 WT4  4821 TIP3 H1   HT     0.417000        1.0080           0
   66442 WT4  4821 TIP3 H2   HT     0.417000        1.0080           0
   66443 WT4  4822 TIP3 OH2  OT    -0.834000       15.9994           0
   66444 WT4  4822 TIP3 H1   HT     0.417000        1.0080           0
   66445 WT4  4822 TIP3 H2   HT     0.417000        1.0080           0
   66446 WT4  4829 TIP3 OH2  OT    -0.834000       15.9994           0
   66447 WT4  4829 TIP3 H1   HT     0.417000        1.0080           0
   66448 WT4  4829 TIP3 H2   HT     0.417000        1.0080           0
   66449 WT4  4835 TIP3 OH2  OT    -0.834000       15.9994           0
   66450 WT4  4835 TIP3 H1   HT     0.417000        1.0080           0
   66451 WT4  4835 TIP3 H2   HT     0.417000        1.0080           0
   66452 WT4  4836 TIP3 OH2  OT    -0.834000       15.9994           0
   66453 WT4  4836 TIP3 H1   HT     0.417000        1.0080           0
   66454 WT4  4836 TIP3 H2   HT     0.417000        1.0080           0
   66455 WT4  4837 TIP3 OH2  OT    -0.834000       15.9994           0
   66456 WT4  4837 TIP3 H1   HT     0.417000        1.0080           0
   66457 WT4  4837 TIP3 H2   HT     0.417000        1.0080           0
   66458 WT4  4844 TIP3 OH2  OT    -0.834000       15.9994           0
   66459 WT4  4844 TIP3 H1   HT     0.417000        1.0080           0
   66460 WT4  4844 TIP3 H2   HT     0.417000        1.0080           0
   66461 WT4  4847 TIP3 OH2  OT    -0.834000       15.9994           0
   66462 WT4  4847 TIP3 H1   HT     0.417000        1.0080           0
   66463 WT4  4847 TIP3 H2   HT     0.417000        1.0080           0
   66464 WT4  4853 TIP3 OH2  OT    -0.834000       15.9994           0
   66465 WT4  4853 TIP3 H1   HT     0.417000        1.0080           0
   66466 WT4  4853 TIP3 H2   HT     0.417000        1.0080           0
   66467 WT4  4856 TIP3 OH2  OT    -0.834000       15.9994           0
   66468 WT4  4856 TIP3 H1   HT     0.417000        1.0080           0
   66469 WT4  4856 TIP3 H2   HT     0.417000        1.0080           0
   66470 WT4  4858 TIP3 OH2  OT    -0.834000       15.9994           0
   66471 WT4  4858 TIP3 H1   HT     0.417000        1.0080           0
   66472 WT4  4858 TIP3 H2   HT     0.417000        1.0080           0
   66473 WT4  4861 TIP3 OH2  OT    -0.834000       15.9994           0
   66474 WT4  4861 TIP3 H1   HT     0.417000        1.0080           0
   66475 WT4  4861 TIP3 H2   HT     0.417000        1.0080           0
   66476 WT4  4866 TIP3 OH2  OT    -0.834000       15.9994           0
   66477 WT4  4866 TIP3 H1   HT     0.417000        1.0080           0
   66478 WT4  4866 TIP3 H2   HT     0.417000        1.0080           0
   66479 WT4  4874 TIP3 OH2  OT    -0.834000       15.9994           0
   66480 WT4  4874 TIP3 H1   HT     0.417000        1.0080           0
   66481 WT4  4874 TIP3 H2   HT     0.417000        1.0080           0
   66482 WT4  4875 TIP3 OH2  OT    -0.834000       15.9994           0
   66483 WT4  4875 TIP3 H1   HT     0.417000        1.0080           0
   66484 WT4  4875 TIP3 H2   HT     0.417000        1.0080           0
   66485 WT4  4880 TIP3 OH2  OT    -0.834000       15.9994           0
   66486 WT4  4880 TIP3 H1   HT     0.417000        1.0080           0
   66487 WT4  4880 TIP3 H2   HT     0.417000        1.0080           0
   66488 WT4  4884 TIP3 OH2  OT    -0.834000       15.9994           0
   66489 WT4  4884 TIP3 H1   HT     0.417000        1.0080           0
   66490 WT4  4884 TIP3 H2   HT     0.417000        1.0080           0
   66491 WT4  4887 TIP3 OH2  OT    -0.834000       15.9994           0
   66492 WT4  4887 TIP3 H1   HT     0.417000        1.0080           0
   66493 WT4  4887 TIP3 H2   HT     0.417000        1.0080           0
   66494 WT4  4888 TIP3 OH2  OT    -0.834000       15.9994           0
   66495 WT4  4888 TIP3 H1   HT     0.417000        1.0080           0
   66496 WT4  4888 TIP3 H2   HT     0.417000        1.0080           0
   66497 WT4  4891 TIP3 OH2  OT    -0.834000       15.9994           0
   66498 WT4  4891 TIP3 H1   HT     0.417000        1.0080           0
   66499 WT4  4891 TIP3 H2   HT     0.417000        1.0080           0
   66500 WT4  4894 TIP3 OH2  OT    -0.834000       15.9994           0
   66501 WT4  4894 TIP3 H1   HT     0.417000        1.0080           0
   66502 WT4  4894 TIP3 H2   HT     0.417000        1.0080           0
   66503 WT4  4906 TIP3 OH2  OT    -0.834000       15.9994           0
   66504 WT4  4906 TIP3 H1   HT     0.417000        1.0080           0
   66505 WT4  4906 TIP3 H2   HT     0.417000        1.0080           0
   66506 WT4  4911 TIP3 OH2  OT    -0.834000       15.9994           0
   66507 WT4  4911 TIP3 H1   HT     0.417000        1.0080           0
   66508 WT4  4911 TIP3 H2   HT     0.417000        1.0080           0
   66509 WT4  4913 TIP3 OH2  OT    -0.834000       15.9994           0
   66510 WT4  4913 TIP3 H1   HT     0.417000        1.0080           0
   66511 WT4  4913 TIP3 H2   HT     0.417000        1.0080           0
   66512 WT4  4915 TIP3 OH2  OT    -0.834000       15.9994           0
   66513 WT4  4915 TIP3 H1   HT     0.417000        1.0080           0
   66514 WT4  4915 TIP3 H2   HT     0.417000        1.0080           0
   66515 WT4  4924 TIP3 OH2  OT    -0.834000       15.9994           0
   66516 WT4  4924 TIP3 H1   HT     0.417000        1.0080           0
   66517 WT4  4924 TIP3 H2   HT     0.417000        1.0080           0
   66518 WT4  4927 TIP3 OH2  OT    -0.834000       15.9994           0
   66519 WT4  4927 TIP3 H1   HT     0.417000        1.0080           0
   66520 WT4  4927 TIP3 H2   HT     0.417000        1.0080           0
   66521 WT4  4932 TIP3 OH2  OT    -0.834000       15.9994           0
   66522 WT4  4932 TIP3 H1   HT     0.417000        1.0080           0
   66523 WT4  4932 TIP3 H2   HT     0.417000        1.0080           0
   66524 WT4  4937 TIP3 OH2  OT    -0.834000       15.9994           0
   66525 WT4  4937 TIP3 H1   HT     0.417000        1.0080           0
   66526 WT4  4937 TIP3 H2   HT     0.417000        1.0080           0
   66527 WT4  4947 TIP3 OH2  OT    -0.834000       15.9994           0
   66528 WT4  4947 TIP3 H1   HT     0.417000        1.0080           0
   66529 WT4  4947 TIP3 H2   HT     0.417000        1.0080           0
   66530 WT4  4953 TIP3 OH2  OT    -0.834000       15.9994           0
   66531 WT4  4953 TIP3 H1   HT     0.417000        1.0080           0
   66532 WT4  4953 TIP3 H2   HT     0.417000        1.0080           0
   66533 WT4  4967 TIP3 OH2  OT    -0.834000       15.9994           0
   66534 WT4  4967 TIP3 H1   HT     0.417000        1.0080           0
   66535 WT4  4967 TIP3 H2   HT     0.417000        1.0080           0
   66536 WT4  4970 TIP3 OH2  OT    -0.834000       15.9994           0
   66537 WT4  4970 TIP3 H1   HT     0.417000        1.0080           0
   66538 WT4  4970 TIP3 H2   HT     0.417000        1.0080           0
   66539 WT4  4992 TIP3 OH2  OT    -0.834000       15.9994           0
   66540 WT4  4992 TIP3 H1   HT     0.417000        1.0080           0
   66541 WT4  4992 TIP3 H2   HT     0.417000        1.0080           0
   66542 WT4  4995 TIP3 OH2  OT    -0.834000       15.9994           0
   66543 WT4  4995 TIP3 H1   HT     0.417000        1.0080           0
   66544 WT4  4995 TIP3 H2   HT     0.417000        1.0080           0
   66545 WT4  5193 TIP3 OH2  OT    -0.834000       15.9994           0
   66546 WT4  5193 TIP3 H1   HT     0.417000        1.0080           0
   66547 WT4  5193 TIP3 H2   HT     0.417000        1.0080           0
   66548 WT4  5234 TIP3 OH2  OT    -0.834000       15.9994           0
   66549 WT4  5234 TIP3 H1   HT     0.417000        1.0080           0
   66550 WT4  5234 TIP3 H2   HT     0.417000        1.0080           0
   66551 WT4  5252 TIP3 OH2  OT    -0.834000       15.9994           0
   66552 WT4  5252 TIP3 H1   HT     0.417000        1.0080           0
   66553 WT4  5252 TIP3 H2   HT     0.417000        1.0080           0
   66554 WT4  5260 TIP3 OH2  OT    -0.834000       15.9994           0
   66555 WT4  5260 TIP3 H1   HT     0.417000        1.0080           0
   66556 WT4  5260 TIP3 H2   HT     0.417000        1.0080           0
   66557 WT4  5264 TIP3 OH2  OT    -0.834000       15.9994           0
   66558 WT4  5264 TIP3 H1   HT     0.417000        1.0080           0
   66559 WT4  5264 TIP3 H2   HT     0.417000        1.0080           0
   66560 WT4  5266 TIP3 OH2  OT    -0.834000       15.9994           0
   66561 WT4  5266 TIP3 H1   HT     0.417000        1.0080           0
   66562 WT4  5266 TIP3 H2   HT     0.417000        1.0080           0
   66563 WT4  5267 TIP3 OH2  OT    -0.834000       15.9994           0
   66564 WT4  5267 TIP3 H1   HT     0.417000        1.0080           0
   66565 WT4  5267 TIP3 H2   HT     0.417000        1.0080           0
   66566 WT4  5273 TIP3 OH2  OT    -0.834000       15.9994           0
   66567 WT4  5273 TIP3 H1   HT     0.417000        1.0080           0
   66568 WT4  5273 TIP3 H2   HT     0.417000        1.0080           0
   66569 WT4  5284 TIP3 OH2  OT    -0.834000       15.9994           0
   66570 WT4  5284 TIP3 H1   HT     0.417000        1.0080           0
   66571 WT4  5284 TIP3 H2   HT     0.417000        1.0080           0
   66572 WT4  5288 TIP3 OH2  OT    -0.834000       15.9994           0
   66573 WT4  5288 TIP3 H1   HT     0.417000        1.0080           0
   66574 WT4  5288 TIP3 H2   HT     0.417000        1.0080           0
   66575 WT4  5306 TIP3 OH2  OT    -0.834000       15.9994           0
   66576 WT4  5306 TIP3 H1   HT     0.417000        1.0080           0
   66577 WT4  5306 TIP3 H2   HT     0.417000        1.0080           0
   66578 WT4  5309 TIP3 OH2  OT    -0.834000       15.9994           0
   66579 WT4  5309 TIP3 H1   HT     0.417000        1.0080           0
   66580 WT4  5309 TIP3 H2   HT     0.417000        1.0080           0
   66581 WT4  5314 TIP3 OH2  OT    -0.834000       15.9994           0
   66582 WT4  5314 TIP3 H1   HT     0.417000        1.0080           0
   66583 WT4  5314 TIP3 H2   HT     0.417000        1.0080           0
   66584 WT4  5319 TIP3 OH2  OT    -0.834000       15.9994           0
   66585 WT4  5319 TIP3 H1   HT     0.417000        1.0080           0
   66586 WT4  5319 TIP3 H2   HT     0.417000        1.0080           0
   66587 WT4  5322 TIP3 OH2  OT    -0.834000       15.9994           0
   66588 WT4  5322 TIP3 H1   HT     0.417000        1.0080           0
   66589 WT4  5322 TIP3 H2   HT     0.417000        1.0080           0
   66590 WT4  5323 TIP3 OH2  OT    -0.834000       15.9994           0
   66591 WT4  5323 TIP3 H1   HT     0.417000        1.0080           0
   66592 WT4  5323 TIP3 H2   HT     0.417000        1.0080           0
   66593 WT4  5325 TIP3 OH2  OT    -0.834000       15.9994           0
   66594 WT4  5325 TIP3 H1   HT     0.417000        1.0080           0
   66595 WT4  5325 TIP3 H2   HT     0.417000        1.0080           0
   66596 WT4  5327 TIP3 OH2  OT    -0.834000       15.9994           0
   66597 WT4  5327 TIP3 H1   HT     0.417000        1.0080           0
   66598 WT4  5327 TIP3 H2   HT     0.417000        1.0080           0
   66599 WT4  5331 TIP3 OH2  OT    -0.834000       15.9994           0
   66600 WT4  5331 TIP3 H1   HT     0.417000        1.0080           0
   66601 WT4  5331 TIP3 H2   HT     0.417000        1.0080           0
   66602 WT4  5332 TIP3 OH2  OT    -0.834000       15.9994           0
   66603 WT4  5332 TIP3 H1   HT     0.417000        1.0080           0
   66604 WT4  5332 TIP3 H2   HT     0.417000        1.0080           0
   66605 WT4  5344 TIP3 OH2  OT    -0.834000       15.9994           0
   66606 WT4  5344 TIP3 H1   HT     0.417000        1.0080           0
   66607 WT4  5344 TIP3 H2   HT     0.417000        1.0080           0
   66608 WT4  5355 TIP3 OH2  OT    -0.834000       15.9994           0
   66609 WT4  5355 TIP3 H1   HT     0.417000        1.0080           0
   66610 WT4  5355 TIP3 H2   HT     0.417000        1.0080           0
   66611 WT4  5363 TIP3 OH2  OT    -0.834000       15.9994           0
   66612 WT4  5363 TIP3 H1   HT     0.417000        1.0080           0
   66613 WT4  5363 TIP3 H2   HT     0.417000        1.0080           0
   66614 WT4  5366 TIP3 OH2  OT    -0.834000       15.9994           0
   66615 WT4  5366 TIP3 H1   HT     0.417000        1.0080           0
   66616 WT4  5366 TIP3 H2   HT     0.417000        1.0080           0
   66617 WT4  5369 TIP3 OH2  OT    -0.834000       15.9994           0
   66618 WT4  5369 TIP3 H1   HT     0.417000        1.0080           0
   66619 WT4  5369 TIP3 H2   HT     0.417000        1.0080           0
   66620 WT4  5411 TIP3 OH2  OT    -0.834000       15.9994           0
   66621 WT4  5411 TIP3 H1   HT     0.417000        1.0080           0
   66622 WT4  5411 TIP3 H2   HT     0.417000        1.0080           0
   66623 WT4  5412 TIP3 OH2  OT    -0.834000       15.9994           0
   66624 WT4  5412 TIP3 H1   HT     0.417000        1.0080           0
   66625 WT4  5412 TIP3 H2   HT     0.417000        1.0080           0
   66626 WT4  5480 TIP3 OH2  OT    -0.834000       15.9994           0
   66627 WT4  5480 TIP3 H1   HT     0.417000        1.0080           0
   66628 WT4  5480 TIP3 H2   HT     0.417000        1.0080           0
   66629 WT4  5598 TIP3 OH2  OT    -0.834000       15.9994           0
   66630 WT4  5598 TIP3 H1   HT     0.417000        1.0080           0
   66631 WT4  5598 TIP3 H2   HT     0.417000        1.0080           0
   66632 WT4  5654 TIP3 OH2  OT    -0.834000       15.9994           0
   66633 WT4  5654 TIP3 H1   HT     0.417000        1.0080           0
   66634 WT4  5654 TIP3 H2   HT     0.417000        1.0080           0
   66635 WT4  5669 TIP3 OH2  OT    -0.834000       15.9994           0
   66636 WT4  5669 TIP3 H1   HT     0.417000        1.0080           0
   66637 WT4  5669 TIP3 H2   HT     0.417000        1.0080           0
   66638 WT4  5676 TIP3 OH2  OT    -0.834000       15.9994           0
   66639 WT4  5676 TIP3 H1   HT     0.417000        1.0080           0
   66640 WT4  5676 TIP3 H2   HT     0.417000        1.0080           0
   66641 WT4  5678 TIP3 OH2  OT    -0.834000       15.9994           0
   66642 WT4  5678 TIP3 H1   HT     0.417000        1.0080           0
   66643 WT4  5678 TIP3 H2   HT     0.417000        1.0080           0
   66644 WT4  5690 TIP3 OH2  OT    -0.834000       15.9994           0
   66645 WT4  5690 TIP3 H1   HT     0.417000        1.0080           0
   66646 WT4  5690 TIP3 H2   HT     0.417000        1.0080           0
   66647 WT4  5691 TIP3 OH2  OT    -0.834000       15.9994           0
   66648 WT4  5691 TIP3 H1   HT     0.417000        1.0080           0
   66649 WT4  5691 TIP3 H2   HT     0.417000        1.0080           0
   66650 WT4  5706 TIP3 OH2  OT    -0.834000       15.9994           0
   66651 WT4  5706 TIP3 H1   HT     0.417000        1.0080           0
   66652 WT4  5706 TIP3 H2   HT     0.417000        1.0080           0
   66653 WT4  5710 TIP3 OH2  OT    -0.834000       15.9994           0
   66654 WT4  5710 TIP3 H1   HT     0.417000        1.0080           0
   66655 WT4  5710 TIP3 H2   HT     0.417000        1.0080           0
   66656 WT4  5713 TIP3 OH2  OT    -0.834000       15.9994           0
   66657 WT4  5713 TIP3 H1   HT     0.417000        1.0080           0
   66658 WT4  5713 TIP3 H2   HT     0.417000        1.0080           0
   66659 WT4  5714 TIP3 OH2  OT    -0.834000       15.9994           0
   66660 WT4  5714 TIP3 H1   HT     0.417000        1.0080           0
   66661 WT4  5714 TIP3 H2   HT     0.417000        1.0080           0
   66662 WT4  5719 TIP3 OH2  OT    -0.834000       15.9994           0
   66663 WT4  5719 TIP3 H1   HT     0.417000        1.0080           0
   66664 WT4  5719 TIP3 H2   HT     0.417000        1.0080           0
   66665 WT4  5722 TIP3 OH2  OT    -0.834000       15.9994           0
   66666 WT4  5722 TIP3 H1   HT     0.417000        1.0080           0
   66667 WT4  5722 TIP3 H2   HT     0.417000        1.0080           0
   66668 WT4  5723 TIP3 OH2  OT    -0.834000       15.9994           0
   66669 WT4  5723 TIP3 H1   HT     0.417000        1.0080           0
   66670 WT4  5723 TIP3 H2   HT     0.417000        1.0080           0
   66671 WT4  5727 TIP3 OH2  OT    -0.834000       15.9994           0
   66672 WT4  5727 TIP3 H1   HT     0.417000        1.0080           0
   66673 WT4  5727 TIP3 H2   HT     0.417000        1.0080           0
   66674 WT4  5734 TIP3 OH2  OT    -0.834000       15.9994           0
   66675 WT4  5734 TIP3 H1   HT     0.417000        1.0080           0
   66676 WT4  5734 TIP3 H2   HT     0.417000        1.0080           0
   66677 WT4  5736 TIP3 OH2  OT    -0.834000       15.9994           0
   66678 WT4  5736 TIP3 H1   HT     0.417000        1.0080           0
   66679 WT4  5736 TIP3 H2   HT     0.417000        1.0080           0
   66680 WT4  5749 TIP3 OH2  OT    -0.834000       15.9994           0
   66681 WT4  5749 TIP3 H1   HT     0.417000        1.0080           0
   66682 WT4  5749 TIP3 H2   HT     0.417000        1.0080           0
   66683 WT4  5754 TIP3 OH2  OT    -0.834000       15.9994           0
   66684 WT4  5754 TIP3 H1   HT     0.417000        1.0080           0
   66685 WT4  5754 TIP3 H2   HT     0.417000        1.0080           0
   66686 WT4  5756 TIP3 OH2  OT    -0.834000       15.9994           0
   66687 WT4  5756 TIP3 H1   HT     0.417000        1.0080           0
   66688 WT4  5756 TIP3 H2   HT     0.417000        1.0080           0
   66689 WT4  5758 TIP3 OH2  OT    -0.834000       15.9994           0
   66690 WT4  5758 TIP3 H1   HT     0.417000        1.0080           0
   66691 WT4  5758 TIP3 H2   HT     0.417000        1.0080           0
   66692 WT4  5760 TIP3 OH2  OT    -0.834000       15.9994           0
   66693 WT4  5760 TIP3 H1   HT     0.417000        1.0080           0
   66694 WT4  5760 TIP3 H2   HT     0.417000        1.0080           0
   66695 WT4  5764 TIP3 OH2  OT    -0.834000       15.9994           0
   66696 WT4  5764 TIP3 H1   HT     0.417000        1.0080           0
   66697 WT4  5764 TIP3 H2   HT     0.417000        1.0080           0
   66698 WT4  5767 TIP3 OH2  OT    -0.834000       15.9994           0
   66699 WT4  5767 TIP3 H1   HT     0.417000        1.0080           0
   66700 WT4  5767 TIP3 H2   HT     0.417000        1.0080           0
   66701 WT4  5772 TIP3 OH2  OT    -0.834000       15.9994           0
   66702 WT4  5772 TIP3 H1   HT     0.417000        1.0080           0
   66703 WT4  5772 TIP3 H2   HT     0.417000        1.0080           0
   66704 WT4  5776 TIP3 OH2  OT    -0.834000       15.9994           0
   66705 WT4  5776 TIP3 H1   HT     0.417000        1.0080           0
   66706 WT4  5776 TIP3 H2   HT     0.417000        1.0080           0
   66707 WT4  5783 TIP3 OH2  OT    -0.834000       15.9994           0
   66708 WT4  5783 TIP3 H1   HT     0.417000        1.0080           0
   66709 WT4  5783 TIP3 H2   HT     0.417000        1.0080           0
   66710 WT4  5785 TIP3 OH2  OT    -0.834000       15.9994           0
   66711 WT4  5785 TIP3 H1   HT     0.417000        1.0080           0
   66712 WT4  5785 TIP3 H2   HT     0.417000        1.0080           0
   66713 WT4  5787 TIP3 OH2  OT    -0.834000       15.9994           0
   66714 WT4  5787 TIP3 H1   HT     0.417000        1.0080           0
   66715 WT4  5787 TIP3 H2   HT     0.417000        1.0080           0
   66716 WT4  5790 TIP3 OH2  OT    -0.834000       15.9994           0
   66717 WT4  5790 TIP3 H1   HT     0.417000        1.0080           0
   66718 WT4  5790 TIP3 H2   HT     0.417000        1.0080           0
   66719 WT4  5794 TIP3 OH2  OT    -0.834000       15.9994           0
   66720 WT4  5794 TIP3 H1   HT     0.417000        1.0080           0
   66721 WT4  5794 TIP3 H2   HT     0.417000        1.0080           0
   66722 WT4  5802 TIP3 OH2  OT    -0.834000       15.9994           0
   66723 WT4  5802 TIP3 H1   HT     0.417000        1.0080           0
   66724 WT4  5802 TIP3 H2   HT     0.417000        1.0080           0
   66725 WT4  5803 TIP3 OH2  OT    -0.834000       15.9994           0
   66726 WT4  5803 TIP3 H1   HT     0.417000        1.0080           0
   66727 WT4  5803 TIP3 H2   HT     0.417000        1.0080           0
   66728 WT4  5804 TIP3 OH2  OT    -0.834000       15.9994           0
   66729 WT4  5804 TIP3 H1   HT     0.417000        1.0080           0
   66730 WT4  5804 TIP3 H2   HT     0.417000        1.0080           0
   66731 WT4  5805 TIP3 OH2  OT    -0.834000       15.9994           0
   66732 WT4  5805 TIP3 H1   HT     0.417000        1.0080           0
   66733 WT4  5805 TIP3 H2   HT     0.417000        1.0080           0
   66734 WT4  5810 TIP3 OH2  OT    -0.834000       15.9994           0
   66735 WT4  5810 TIP3 H1   HT     0.417000        1.0080           0
   66736 WT4  5810 TIP3 H2   HT     0.417000        1.0080           0
   66737 WT4  5824 TIP3 OH2  OT    -0.834000       15.9994           0
   66738 WT4  5824 TIP3 H1   HT     0.417000        1.0080           0
   66739 WT4  5824 TIP3 H2   HT     0.417000        1.0080           0
   66740 WT4  5830 TIP3 OH2  OT    -0.834000       15.9994           0
   66741 WT4  5830 TIP3 H1   HT     0.417000        1.0080           0
   66742 WT4  5830 TIP3 H2   HT     0.417000        1.0080           0
   66743 WT4  5841 TIP3 OH2  OT    -0.834000       15.9994           0
   66744 WT4  5841 TIP3 H1   HT     0.417000        1.0080           0
   66745 WT4  5841 TIP3 H2   HT     0.417000        1.0080           0
   66746 WT4  5852 TIP3 OH2  OT    -0.834000       15.9994           0
   66747 WT4  5852 TIP3 H1   HT     0.417000        1.0080           0
   66748 WT4  5852 TIP3 H2   HT     0.417000        1.0080           0
   66749 WT4  5857 TIP3 OH2  OT    -0.834000       15.9994           0
   66750 WT4  5857 TIP3 H1   HT     0.417000        1.0080           0
   66751 WT4  5857 TIP3 H2   HT     0.417000        1.0080           0
   66752 WT4  5875 TIP3 OH2  OT    -0.834000       15.9994           0
   66753 WT4  5875 TIP3 H1   HT     0.417000        1.0080           0
   66754 WT4  5875 TIP3 H2   HT     0.417000        1.0080           0
   66755 WT4  5884 TIP3 OH2  OT    -0.834000       15.9994           0
   66756 WT4  5884 TIP3 H1   HT     0.417000        1.0080           0
   66757 WT4  5884 TIP3 H2   HT     0.417000        1.0080           0
   66758 WT4  6091 TIP3 OH2  OT    -0.834000       15.9994           0
   66759 WT4  6091 TIP3 H1   HT     0.417000        1.0080           0
   66760 WT4  6091 TIP3 H2   HT     0.417000        1.0080           0
   66761 WT4  6107 TIP3 OH2  OT    -0.834000       15.9994           0
   66762 WT4  6107 TIP3 H1   HT     0.417000        1.0080           0
   66763 WT4  6107 TIP3 H2   HT     0.417000        1.0080           0
   66764 WT4  6110 TIP3 OH2  OT    -0.834000       15.9994           0
   66765 WT4  6110 TIP3 H1   HT     0.417000        1.0080           0
   66766 WT4  6110 TIP3 H2   HT     0.417000        1.0080           0
   66767 WT4  6126 TIP3 OH2  OT    -0.834000       15.9994           0
   66768 WT4  6126 TIP3 H1   HT     0.417000        1.0080           0
   66769 WT4  6126 TIP3 H2   HT     0.417000        1.0080           0
   66770 WT4  6131 TIP3 OH2  OT    -0.834000       15.9994           0
   66771 WT4  6131 TIP3 H1   HT     0.417000        1.0080           0
   66772 WT4  6131 TIP3 H2   HT     0.417000        1.0080           0
   66773 WT4  6138 TIP3 OH2  OT    -0.834000       15.9994           0
   66774 WT4  6138 TIP3 H1   HT     0.417000        1.0080           0
   66775 WT4  6138 TIP3 H2   HT     0.417000        1.0080           0
   66776 WT4  6146 TIP3 OH2  OT    -0.834000       15.9994           0
   66777 WT4  6146 TIP3 H1   HT     0.417000        1.0080           0
   66778 WT4  6146 TIP3 H2   HT     0.417000        1.0080           0
   66779 WT4  6153 TIP3 OH2  OT    -0.834000       15.9994           0
   66780 WT4  6153 TIP3 H1   HT     0.417000        1.0080           0
   66781 WT4  6153 TIP3 H2   HT     0.417000        1.0080           0
   66782 WT4  6158 TIP3 OH2  OT    -0.834000       15.9994           0
   66783 WT4  6158 TIP3 H1   HT     0.417000        1.0080           0
   66784 WT4  6158 TIP3 H2   HT     0.417000        1.0080           0
   66785 WT4  6163 TIP3 OH2  OT    -0.834000       15.9994           0
   66786 WT4  6163 TIP3 H1   HT     0.417000        1.0080           0
   66787 WT4  6163 TIP3 H2   HT     0.417000        1.0080           0
   66788 WT4  6166 TIP3 OH2  OT    -0.834000       15.9994           0
   66789 WT4  6166 TIP3 H1   HT     0.417000        1.0080           0
   66790 WT4  6166 TIP3 H2   HT     0.417000        1.0080           0
   66791 WT4  6172 TIP3 OH2  OT    -0.834000       15.9994           0
   66792 WT4  6172 TIP3 H1   HT     0.417000        1.0080           0
   66793 WT4  6172 TIP3 H2   HT     0.417000        1.0080           0
   66794 WT4  6174 TIP3 OH2  OT    -0.834000       15.9994           0
   66795 WT4  6174 TIP3 H1   HT     0.417000        1.0080           0
   66796 WT4  6174 TIP3 H2   HT     0.417000        1.0080           0
   66797 WT4  6177 TIP3 OH2  OT    -0.834000       15.9994           0
   66798 WT4  6177 TIP3 H1   HT     0.417000        1.0080           0
   66799 WT4  6177 TIP3 H2   HT     0.417000        1.0080           0
   66800 WT4  6179 TIP3 OH2  OT    -0.834000       15.9994           0
   66801 WT4  6179 TIP3 H1   HT     0.417000        1.0080           0
   66802 WT4  6179 TIP3 H2   HT     0.417000        1.0080           0
   66803 WT4  6183 TIP3 OH2  OT    -0.834000       15.9994           0
   66804 WT4  6183 TIP3 H1   HT     0.417000        1.0080           0
   66805 WT4  6183 TIP3 H2   HT     0.417000        1.0080           0
   66806 WT4  6184 TIP3 OH2  OT    -0.834000       15.9994           0
   66807 WT4  6184 TIP3 H1   HT     0.417000        1.0080           0
   66808 WT4  6184 TIP3 H2   HT     0.417000        1.0080           0
   66809 WT4  6187 TIP3 OH2  OT    -0.834000       15.9994           0
   66810 WT4  6187 TIP3 H1   HT     0.417000        1.0080           0
   66811 WT4  6187 TIP3 H2   HT     0.417000        1.0080           0
   66812 WT4  6188 TIP3 OH2  OT    -0.834000       15.9994           0
   66813 WT4  6188 TIP3 H1   HT     0.417000        1.0080           0
   66814 WT4  6188 TIP3 H2   HT     0.417000        1.0080           0
   66815 WT4  6192 TIP3 OH2  OT    -0.834000       15.9994           0
   66816 WT4  6192 TIP3 H1   HT     0.417000        1.0080           0
   66817 WT4  6192 TIP3 H2   HT     0.417000        1.0080           0
   66818 WT4  6194 TIP3 OH2  OT    -0.834000       15.9994           0
   66819 WT4  6194 TIP3 H1   HT     0.417000        1.0080           0
   66820 WT4  6194 TIP3 H2   HT     0.417000        1.0080           0
   66821 WT4  6199 TIP3 OH2  OT    -0.834000       15.9994           0
   66822 WT4  6199 TIP3 H1   HT     0.417000        1.0080           0
   66823 WT4  6199 TIP3 H2   HT     0.417000        1.0080           0
   66824 WT4  6200 TIP3 OH2  OT    -0.834000       15.9994           0
   66825 WT4  6200 TIP3 H1   HT     0.417000        1.0080           0
   66826 WT4  6200 TIP3 H2   HT     0.417000        1.0080           0
   66827 WT4  6204 TIP3 OH2  OT    -0.834000       15.9994           0
   66828 WT4  6204 TIP3 H1   HT     0.417000        1.0080           0
   66829 WT4  6204 TIP3 H2   HT     0.417000        1.0080           0
   66830 WT4  6208 TIP3 OH2  OT    -0.834000       15.9994           0
   66831 WT4  6208 TIP3 H1   HT     0.417000        1.0080           0
   66832 WT4  6208 TIP3 H2   HT     0.417000        1.0080           0
   66833 WT4  6212 TIP3 OH2  OT    -0.834000       15.9994           0
   66834 WT4  6212 TIP3 H1   HT     0.417000        1.0080           0
   66835 WT4  6212 TIP3 H2   HT     0.417000        1.0080           0
   66836 WT4  6215 TIP3 OH2  OT    -0.834000       15.9994           0
   66837 WT4  6215 TIP3 H1   HT     0.417000        1.0080           0
   66838 WT4  6215 TIP3 H2   HT     0.417000        1.0080           0
   66839 WT4  6216 TIP3 OH2  OT    -0.834000       15.9994           0
   66840 WT4  6216 TIP3 H1   HT     0.417000        1.0080           0
   66841 WT4  6216 TIP3 H2   HT     0.417000        1.0080           0
   66842 WT4  6219 TIP3 OH2  OT    -0.834000       15.9994           0
   66843 WT4  6219 TIP3 H1   HT     0.417000        1.0080           0
   66844 WT4  6219 TIP3 H2   HT     0.417000        1.0080           0
   66845 WT4  6229 TIP3 OH2  OT    -0.834000       15.9994           0
   66846 WT4  6229 TIP3 H1   HT     0.417000        1.0080           0
   66847 WT4  6229 TIP3 H2   HT     0.417000        1.0080           0
   66848 WT4  6233 TIP3 OH2  OT    -0.834000       15.9994           0
   66849 WT4  6233 TIP3 H1   HT     0.417000        1.0080           0
   66850 WT4  6233 TIP3 H2   HT     0.417000        1.0080           0
   66851 WT4  6236 TIP3 OH2  OT    -0.834000       15.9994           0
   66852 WT4  6236 TIP3 H1   HT     0.417000        1.0080           0
   66853 WT4  6236 TIP3 H2   HT     0.417000        1.0080           0
   66854 WT4  6240 TIP3 OH2  OT    -0.834000       15.9994           0
   66855 WT4  6240 TIP3 H1   HT     0.417000        1.0080           0
   66856 WT4  6240 TIP3 H2   HT     0.417000        1.0080           0
   66857 WT4  6255 TIP3 OH2  OT    -0.834000       15.9994           0
   66858 WT4  6255 TIP3 H1   HT     0.417000        1.0080           0
   66859 WT4  6255 TIP3 H2   HT     0.417000        1.0080           0
   66860 WT4  6257 TIP3 OH2  OT    -0.834000       15.9994           0
   66861 WT4  6257 TIP3 H1   HT     0.417000        1.0080           0
   66862 WT4  6257 TIP3 H2   HT     0.417000        1.0080           0
   66863 WT4  6274 TIP3 OH2  OT    -0.834000       15.9994           0
   66864 WT4  6274 TIP3 H1   HT     0.417000        1.0080           0
   66865 WT4  6274 TIP3 H2   HT     0.417000        1.0080           0
   66866 WT4  6278 TIP3 OH2  OT    -0.834000       15.9994           0
   66867 WT4  6278 TIP3 H1   HT     0.417000        1.0080           0
   66868 WT4  6278 TIP3 H2   HT     0.417000        1.0080           0
   66869 WT4  6293 TIP3 OH2  OT    -0.834000       15.9994           0
   66870 WT4  6293 TIP3 H1   HT     0.417000        1.0080           0
   66871 WT4  6293 TIP3 H2   HT     0.417000        1.0080           0
   66872 WT4  6295 TIP3 OH2  OT    -0.834000       15.9994           0
   66873 WT4  6295 TIP3 H1   HT     0.417000        1.0080           0
   66874 WT4  6295 TIP3 H2   HT     0.417000        1.0080           0
   66875 WT4  6299 TIP3 OH2  OT    -0.834000       15.9994           0
   66876 WT4  6299 TIP3 H1   HT     0.417000        1.0080           0
   66877 WT4  6299 TIP3 H2   HT     0.417000        1.0080           0
   66878 WT4  6311 TIP3 OH2  OT    -0.834000       15.9994           0
   66879 WT4  6311 TIP3 H1   HT     0.417000        1.0080           0
   66880 WT4  6311 TIP3 H2   HT     0.417000        1.0080           0
   66881 WT4  6317 TIP3 OH2  OT    -0.834000       15.9994           0
   66882 WT4  6317 TIP3 H1   HT     0.417000        1.0080           0
   66883 WT4  6317 TIP3 H2   HT     0.417000        1.0080           0
   66884 WT4  6334 TIP3 OH2  OT    -0.834000       15.9994           0
   66885 WT4  6334 TIP3 H1   HT     0.417000        1.0080           0
   66886 WT4  6334 TIP3 H2   HT     0.417000        1.0080           0
   66887 WT4  6555 TIP3 OH2  OT    -0.834000       15.9994           0
   66888 WT4  6555 TIP3 H1   HT     0.417000        1.0080           0
   66889 WT4  6555 TIP3 H2   HT     0.417000        1.0080           0
   66890 WT4  6561 TIP3 OH2  OT    -0.834000       15.9994           0
   66891 WT4  6561 TIP3 H1   HT     0.417000        1.0080           0
   66892 WT4  6561 TIP3 H2   HT     0.417000        1.0080           0
   66893 WT4  6569 TIP3 OH2  OT    -0.834000       15.9994           0
   66894 WT4  6569 TIP3 H1   HT     0.417000        1.0080           0
   66895 WT4  6569 TIP3 H2   HT     0.417000        1.0080           0
   66896 WT4  6577 TIP3 OH2  OT    -0.834000       15.9994           0
   66897 WT4  6577 TIP3 H1   HT     0.417000        1.0080           0
   66898 WT4  6577 TIP3 H2   HT     0.417000        1.0080           0
   66899 WT4  6578 TIP3 OH2  OT    -0.834000       15.9994           0
   66900 WT4  6578 TIP3 H1   HT     0.417000        1.0080           0
   66901 WT4  6578 TIP3 H2   HT     0.417000        1.0080           0
   66902 WT4  6583 TIP3 OH2  OT    -0.834000       15.9994           0
   66903 WT4  6583 TIP3 H1   HT     0.417000        1.0080           0
   66904 WT4  6583 TIP3 H2   HT     0.417000        1.0080           0
   66905 WT4  6588 TIP3 OH2  OT    -0.834000       15.9994           0
   66906 WT4  6588 TIP3 H1   HT     0.417000        1.0080           0
   66907 WT4  6588 TIP3 H2   HT     0.417000        1.0080           0
   66908 WT4  6591 TIP3 OH2  OT    -0.834000       15.9994           0
   66909 WT4  6591 TIP3 H1   HT     0.417000        1.0080           0
   66910 WT4  6591 TIP3 H2   HT     0.417000        1.0080           0
   66911 WT4  6592 TIP3 OH2  OT    -0.834000       15.9994           0
   66912 WT4  6592 TIP3 H1   HT     0.417000        1.0080           0
   66913 WT4  6592 TIP3 H2   HT     0.417000        1.0080           0
   66914 WT4  6595 TIP3 OH2  OT    -0.834000       15.9994           0
   66915 WT4  6595 TIP3 H1   HT     0.417000        1.0080           0
   66916 WT4  6595 TIP3 H2   HT     0.417000        1.0080           0
   66917 WT4  6601 TIP3 OH2  OT    -0.834000       15.9994           0
   66918 WT4  6601 TIP3 H1   HT     0.417000        1.0080           0
   66919 WT4  6601 TIP3 H2   HT     0.417000        1.0080           0
   66920 WT4  6604 TIP3 OH2  OT    -0.834000       15.9994           0
   66921 WT4  6604 TIP3 H1   HT     0.417000        1.0080           0
   66922 WT4  6604 TIP3 H2   HT     0.417000        1.0080           0
   66923 WT4  6613 TIP3 OH2  OT    -0.834000       15.9994           0
   66924 WT4  6613 TIP3 H1   HT     0.417000        1.0080           0
   66925 WT4  6613 TIP3 H2   HT     0.417000        1.0080           0
   66926 WT4  6614 TIP3 OH2  OT    -0.834000       15.9994           0
   66927 WT4  6614 TIP3 H1   HT     0.417000        1.0080           0
   66928 WT4  6614 TIP3 H2   HT     0.417000        1.0080           0
   66929 WT4  6615 TIP3 OH2  OT    -0.834000       15.9994           0
   66930 WT4  6615 TIP3 H1   HT     0.417000        1.0080           0
   66931 WT4  6615 TIP3 H2   HT     0.417000        1.0080           0
   66932 WT4  6620 TIP3 OH2  OT    -0.834000       15.9994           0
   66933 WT4  6620 TIP3 H1   HT     0.417000        1.0080           0
   66934 WT4  6620 TIP3 H2   HT     0.417000        1.0080           0
   66935 WT4  6621 TIP3 OH2  OT    -0.834000       15.9994           0
   66936 WT4  6621 TIP3 H1   HT     0.417000        1.0080           0
   66937 WT4  6621 TIP3 H2   HT     0.417000        1.0080           0
   66938 WT4  6622 TIP3 OH2  OT    -0.834000       15.9994           0
   66939 WT4  6622 TIP3 H1   HT     0.417000        1.0080           0
   66940 WT4  6622 TIP3 H2   HT     0.417000        1.0080           0
   66941 WT4  6625 TIP3 OH2  OT    -0.834000       15.9994           0
   66942 WT4  6625 TIP3 H1   HT     0.417000        1.0080           0
   66943 WT4  6625 TIP3 H2   HT     0.417000        1.0080           0
   66944 WT4  6627 TIP3 OH2  OT    -0.834000       15.9994           0
   66945 WT4  6627 TIP3 H1   HT     0.417000        1.0080           0
   66946 WT4  6627 TIP3 H2   HT     0.417000        1.0080           0
   66947 WT4  6629 TIP3 OH2  OT    -0.834000       15.9994           0
   66948 WT4  6629 TIP3 H1   HT     0.417000        1.0080           0
   66949 WT4  6629 TIP3 H2   HT     0.417000        1.0080           0
   66950 WT4  6632 TIP3 OH2  OT    -0.834000       15.9994           0
   66951 WT4  6632 TIP3 H1   HT     0.417000        1.0080           0
   66952 WT4  6632 TIP3 H2   HT     0.417000        1.0080           0
   66953 WT4  6634 TIP3 OH2  OT    -0.834000       15.9994           0
   66954 WT4  6634 TIP3 H1   HT     0.417000        1.0080           0
   66955 WT4  6634 TIP3 H2   HT     0.417000        1.0080           0
   66956 WT4  6639 TIP3 OH2  OT    -0.834000       15.9994           0
   66957 WT4  6639 TIP3 H1   HT     0.417000        1.0080           0
   66958 WT4  6639 TIP3 H2   HT     0.417000        1.0080           0
   66959 WT4  6643 TIP3 OH2  OT    -0.834000       15.9994           0
   66960 WT4  6643 TIP3 H1   HT     0.417000        1.0080           0
   66961 WT4  6643 TIP3 H2   HT     0.417000        1.0080           0
   66962 WT4  6650 TIP3 OH2  OT    -0.834000       15.9994           0
   66963 WT4  6650 TIP3 H1   HT     0.417000        1.0080           0
   66964 WT4  6650 TIP3 H2   HT     0.417000        1.0080           0
   66965 WT4  6658 TIP3 OH2  OT    -0.834000       15.9994           0
   66966 WT4  6658 TIP3 H1   HT     0.417000        1.0080           0
   66967 WT4  6658 TIP3 H2   HT     0.417000        1.0080           0
   66968 WT4  6659 TIP3 OH2  OT    -0.834000       15.9994           0
   66969 WT4  6659 TIP3 H1   HT     0.417000        1.0080           0
   66970 WT4  6659 TIP3 H2   HT     0.417000        1.0080           0
   66971 WT4  6662 TIP3 OH2  OT    -0.834000       15.9994           0
   66972 WT4  6662 TIP3 H1   HT     0.417000        1.0080           0
   66973 WT4  6662 TIP3 H2   HT     0.417000        1.0080           0
   66974 WT4  6667 TIP3 OH2  OT    -0.834000       15.9994           0
   66975 WT4  6667 TIP3 H1   HT     0.417000        1.0080           0
   66976 WT4  6667 TIP3 H2   HT     0.417000        1.0080           0
   66977 WT4  6689 TIP3 OH2  OT    -0.834000       15.9994           0
   66978 WT4  6689 TIP3 H1   HT     0.417000        1.0080           0
   66979 WT4  6689 TIP3 H2   HT     0.417000        1.0080           0
   66980 WT4  6700 TIP3 OH2  OT    -0.834000       15.9994           0
   66981 WT4  6700 TIP3 H1   HT     0.417000        1.0080           0
   66982 WT4  6700 TIP3 H2   HT     0.417000        1.0080           0
   66983 WT4  6707 TIP3 OH2  OT    -0.834000       15.9994           0
   66984 WT4  6707 TIP3 H1   HT     0.417000        1.0080           0
   66985 WT4  6707 TIP3 H2   HT     0.417000        1.0080           0
   66986 WT4  6725 TIP3 OH2  OT    -0.834000       15.9994           0
   66987 WT4  6725 TIP3 H1   HT     0.417000        1.0080           0
   66988 WT4  6725 TIP3 H2   HT     0.417000        1.0080           0
   66989 WT4  6727 TIP3 OH2  OT    -0.834000       15.9994           0
   66990 WT4  6727 TIP3 H1   HT     0.417000        1.0080           0
   66991 WT4  6727 TIP3 H2   HT     0.417000        1.0080           0
   66992 WT4  6733 TIP3 OH2  OT    -0.834000       15.9994           0
   66993 WT4  6733 TIP3 H1   HT     0.417000        1.0080           0
   66994 WT4  6733 TIP3 H2   HT     0.417000        1.0080           0
   66995 WT4  6754 TIP3 OH2  OT    -0.834000       15.9994           0
   66996 WT4  6754 TIP3 H1   HT     0.417000        1.0080           0
   66997 WT4  6754 TIP3 H2   HT     0.417000        1.0080           0
   66998 WT4  6777 TIP3 OH2  OT    -0.834000       15.9994           0
   66999 WT4  6777 TIP3 H1   HT     0.417000        1.0080           0
   67000 WT4  6777 TIP3 H2   HT     0.417000        1.0080           0
   67001 WT4  6952 TIP3 OH2  OT    -0.834000       15.9994           0
   67002 WT4  6952 TIP3 H1   HT     0.417000        1.0080           0
   67003 WT4  6952 TIP3 H2   HT     0.417000        1.0080           0
   67004 WT4  6975 TIP3 OH2  OT    -0.834000       15.9994           0
   67005 WT4  6975 TIP3 H1   HT     0.417000        1.0080           0
   67006 WT4  6975 TIP3 H2   HT     0.417000        1.0080           0
   67007 WT4  6988 TIP3 OH2  OT    -0.834000       15.9994           0
   67008 WT4  6988 TIP3 H1   HT     0.417000        1.0080           0
   67009 WT4  6988 TIP3 H2   HT     0.417000        1.0080           0
   67010 WT4  6994 TIP3 OH2  OT    -0.834000       15.9994           0
   67011 WT4  6994 TIP3 H1   HT     0.417000        1.0080           0
   67012 WT4  6994 TIP3 H2   HT     0.417000        1.0080           0
   67013 WT4  7001 TIP3 OH2  OT    -0.834000       15.9994           0
   67014 WT4  7001 TIP3 H1   HT     0.417000        1.0080           0
   67015 WT4  7001 TIP3 H2   HT     0.417000        1.0080           0
   67016 WT4  7003 TIP3 OH2  OT    -0.834000       15.9994           0
   67017 WT4  7003 TIP3 H1   HT     0.417000        1.0080           0
   67018 WT4  7003 TIP3 H2   HT     0.417000        1.0080           0
   67019 WT4  7016 TIP3 OH2  OT    -0.834000       15.9994           0
   67020 WT4  7016 TIP3 H1   HT     0.417000        1.0080           0
   67021 WT4  7016 TIP3 H2   HT     0.417000        1.0080           0
   67022 WT4  7017 TIP3 OH2  OT    -0.834000       15.9994           0
   67023 WT4  7017 TIP3 H1   HT     0.417000        1.0080           0
   67024 WT4  7017 TIP3 H2   HT     0.417000        1.0080           0
   67025 WT4  7020 TIP3 OH2  OT    -0.834000       15.9994           0
   67026 WT4  7020 TIP3 H1   HT     0.417000        1.0080           0
   67027 WT4  7020 TIP3 H2   HT     0.417000        1.0080           0
   67028 WT4  7023 TIP3 OH2  OT    -0.834000       15.9994           0
   67029 WT4  7023 TIP3 H1   HT     0.417000        1.0080           0
   67030 WT4  7023 TIP3 H2   HT     0.417000        1.0080           0
   67031 WT4  7027 TIP3 OH2  OT    -0.834000       15.9994           0
   67032 WT4  7027 TIP3 H1   HT     0.417000        1.0080           0
   67033 WT4  7027 TIP3 H2   HT     0.417000        1.0080           0
   67034 WT4  7029 TIP3 OH2  OT    -0.834000       15.9994           0
   67035 WT4  7029 TIP3 H1   HT     0.417000        1.0080           0
   67036 WT4  7029 TIP3 H2   HT     0.417000        1.0080           0
   67037 WT4  7043 TIP3 OH2  OT    -0.834000       15.9994           0
   67038 WT4  7043 TIP3 H1   HT     0.417000        1.0080           0
   67039 WT4  7043 TIP3 H2   HT     0.417000        1.0080           0
   67040 WT4  7046 TIP3 OH2  OT    -0.834000       15.9994           0
   67041 WT4  7046 TIP3 H1   HT     0.417000        1.0080           0
   67042 WT4  7046 TIP3 H2   HT     0.417000        1.0080           0
   67043 WT4  7048 TIP3 OH2  OT    -0.834000       15.9994           0
   67044 WT4  7048 TIP3 H1   HT     0.417000        1.0080           0
   67045 WT4  7048 TIP3 H2   HT     0.417000        1.0080           0
   67046 WT4  7051 TIP3 OH2  OT    -0.834000       15.9994           0
   67047 WT4  7051 TIP3 H1   HT     0.417000        1.0080           0
   67048 WT4  7051 TIP3 H2   HT     0.417000        1.0080           0
   67049 WT4  7053 TIP3 OH2  OT    -0.834000       15.9994           0
   67050 WT4  7053 TIP3 H1   HT     0.417000        1.0080           0
   67051 WT4  7053 TIP3 H2   HT     0.417000        1.0080           0
   67052 WT4  7056 TIP3 OH2  OT    -0.834000       15.9994           0
   67053 WT4  7056 TIP3 H1   HT     0.417000        1.0080           0
   67054 WT4  7056 TIP3 H2   HT     0.417000        1.0080           0
   67055 WT4  7065 TIP3 OH2  OT    -0.834000       15.9994           0
   67056 WT4  7065 TIP3 H1   HT     0.417000        1.0080           0
   67057 WT4  7065 TIP3 H2   HT     0.417000        1.0080           0
   67058 WT4  7067 TIP3 OH2  OT    -0.834000       15.9994           0
   67059 WT4  7067 TIP3 H1   HT     0.417000        1.0080           0
   67060 WT4  7067 TIP3 H2   HT     0.417000        1.0080           0
   67061 WT4  7069 TIP3 OH2  OT    -0.834000       15.9994           0
   67062 WT4  7069 TIP3 H1   HT     0.417000        1.0080           0
   67063 WT4  7069 TIP3 H2   HT     0.417000        1.0080           0
   67064 WT4  7076 TIP3 OH2  OT    -0.834000       15.9994           0
   67065 WT4  7076 TIP3 H1   HT     0.417000        1.0080           0
   67066 WT4  7076 TIP3 H2   HT     0.417000        1.0080           0
   67067 WT4  7077 TIP3 OH2  OT    -0.834000       15.9994           0
   67068 WT4  7077 TIP3 H1   HT     0.417000        1.0080           0
   67069 WT4  7077 TIP3 H2   HT     0.417000        1.0080           0
   67070 WT4  7081 TIP3 OH2  OT    -0.834000       15.9994           0
   67071 WT4  7081 TIP3 H1   HT     0.417000        1.0080           0
   67072 WT4  7081 TIP3 H2   HT     0.417000        1.0080           0
   67073 WT4  7083 TIP3 OH2  OT    -0.834000       15.9994           0
   67074 WT4  7083 TIP3 H1   HT     0.417000        1.0080           0
   67075 WT4  7083 TIP3 H2   HT     0.417000        1.0080           0
   67076 WT4  7089 TIP3 OH2  OT    -0.834000       15.9994           0
   67077 WT4  7089 TIP3 H1   HT     0.417000        1.0080           0
   67078 WT4  7089 TIP3 H2   HT     0.417000        1.0080           0
   67079 WT4  7092 TIP3 OH2  OT    -0.834000       15.9994           0
   67080 WT4  7092 TIP3 H1   HT     0.417000        1.0080           0
   67081 WT4  7092 TIP3 H2   HT     0.417000        1.0080           0
   67082 WT4  7103 TIP3 OH2  OT    -0.834000       15.9994           0
   67083 WT4  7103 TIP3 H1   HT     0.417000        1.0080           0
   67084 WT4  7103 TIP3 H2   HT     0.417000        1.0080           0
   67085 WT4  7105 TIP3 OH2  OT    -0.834000       15.9994           0
   67086 WT4  7105 TIP3 H1   HT     0.417000        1.0080           0
   67087 WT4  7105 TIP3 H2   HT     0.417000        1.0080           0
   67088 WT4  7112 TIP3 OH2  OT    -0.834000       15.9994           0
   67089 WT4  7112 TIP3 H1   HT     0.417000        1.0080           0
   67090 WT4  7112 TIP3 H2   HT     0.417000        1.0080           0
   67091 WT4  7119 TIP3 OH2  OT    -0.834000       15.9994           0
   67092 WT4  7119 TIP3 H1   HT     0.417000        1.0080           0
   67093 WT4  7119 TIP3 H2   HT     0.417000        1.0080           0
   67094 WT4  7120 TIP3 OH2  OT    -0.834000       15.9994           0
   67095 WT4  7120 TIP3 H1   HT     0.417000        1.0080           0
   67096 WT4  7120 TIP3 H2   HT     0.417000        1.0080           0
   67097 WT4  7122 TIP3 OH2  OT    -0.834000       15.9994           0
   67098 WT4  7122 TIP3 H1   HT     0.417000        1.0080           0
   67099 WT4  7122 TIP3 H2   HT     0.417000        1.0080           0
   67100 WT4  7129 TIP3 OH2  OT    -0.834000       15.9994           0
   67101 WT4  7129 TIP3 H1   HT     0.417000        1.0080           0
   67102 WT4  7129 TIP3 H2   HT     0.417000        1.0080           0
   67103 WT4  7131 TIP3 OH2  OT    -0.834000       15.9994           0
   67104 WT4  7131 TIP3 H1   HT     0.417000        1.0080           0
   67105 WT4  7131 TIP3 H2   HT     0.417000        1.0080           0
   67106 WT4  7132 TIP3 OH2  OT    -0.834000       15.9994           0
   67107 WT4  7132 TIP3 H1   HT     0.417000        1.0080           0
   67108 WT4  7132 TIP3 H2   HT     0.417000        1.0080           0
   67109 WT4  7136 TIP3 OH2  OT    -0.834000       15.9994           0
   67110 WT4  7136 TIP3 H1   HT     0.417000        1.0080           0
   67111 WT4  7136 TIP3 H2   HT     0.417000        1.0080           0
   67112 WT4  7137 TIP3 OH2  OT    -0.834000       15.9994           0
   67113 WT4  7137 TIP3 H1   HT     0.417000        1.0080           0
   67114 WT4  7137 TIP3 H2   HT     0.417000        1.0080           0
   67115 WT4  7176 TIP3 OH2  OT    -0.834000       15.9994           0
   67116 WT4  7176 TIP3 H1   HT     0.417000        1.0080           0
   67117 WT4  7176 TIP3 H2   HT     0.417000        1.0080           0
   67118 WT4  7398 TIP3 OH2  OT    -0.834000       15.9994           0
   67119 WT4  7398 TIP3 H1   HT     0.417000        1.0080           0
   67120 WT4  7398 TIP3 H2   HT     0.417000        1.0080           0
   67121 WT4  7415 TIP3 OH2  OT    -0.834000       15.9994           0
   67122 WT4  7415 TIP3 H1   HT     0.417000        1.0080           0
   67123 WT4  7415 TIP3 H2   HT     0.417000        1.0080           0
   67124 WT4  7418 TIP3 OH2  OT    -0.834000       15.9994           0
   67125 WT4  7418 TIP3 H1   HT     0.417000        1.0080           0
   67126 WT4  7418 TIP3 H2   HT     0.417000        1.0080           0
   67127 WT4  7431 TIP3 OH2  OT    -0.834000       15.9994           0
   67128 WT4  7431 TIP3 H1   HT     0.417000        1.0080           0
   67129 WT4  7431 TIP3 H2   HT     0.417000        1.0080           0
   67130 WT4  7437 TIP3 OH2  OT    -0.834000       15.9994           0
   67131 WT4  7437 TIP3 H1   HT     0.417000        1.0080           0
   67132 WT4  7437 TIP3 H2   HT     0.417000        1.0080           0
   67133 WT4  7439 TIP3 OH2  OT    -0.834000       15.9994           0
   67134 WT4  7439 TIP3 H1   HT     0.417000        1.0080           0
   67135 WT4  7439 TIP3 H2   HT     0.417000        1.0080           0
   67136 WT4  7458 TIP3 OH2  OT    -0.834000       15.9994           0
   67137 WT4  7458 TIP3 H1   HT     0.417000        1.0080           0
   67138 WT4  7458 TIP3 H2   HT     0.417000        1.0080           0
   67139 WT4  7461 TIP3 OH2  OT    -0.834000       15.9994           0
   67140 WT4  7461 TIP3 H1   HT     0.417000        1.0080           0
   67141 WT4  7461 TIP3 H2   HT     0.417000        1.0080           0
   67142 WT4  7471 TIP3 OH2  OT    -0.834000       15.9994           0
   67143 WT4  7471 TIP3 H1   HT     0.417000        1.0080           0
   67144 WT4  7471 TIP3 H2   HT     0.417000        1.0080           0
   67145 WT4  7472 TIP3 OH2  OT    -0.834000       15.9994           0
   67146 WT4  7472 TIP3 H1   HT     0.417000        1.0080           0
   67147 WT4  7472 TIP3 H2   HT     0.417000        1.0080           0
   67148 WT4  7473 TIP3 OH2  OT    -0.834000       15.9994           0
   67149 WT4  7473 TIP3 H1   HT     0.417000        1.0080           0
   67150 WT4  7473 TIP3 H2   HT     0.417000        1.0080           0
   67151 WT4  7479 TIP3 OH2  OT    -0.834000       15.9994           0
   67152 WT4  7479 TIP3 H1   HT     0.417000        1.0080           0
   67153 WT4  7479 TIP3 H2   HT     0.417000        1.0080           0
   67154 WT4  7481 TIP3 OH2  OT    -0.834000       15.9994           0
   67155 WT4  7481 TIP3 H1   HT     0.417000        1.0080           0
   67156 WT4  7481 TIP3 H2   HT     0.417000        1.0080           0
   67157 WT4  7490 TIP3 OH2  OT    -0.834000       15.9994           0
   67158 WT4  7490 TIP3 H1   HT     0.417000        1.0080           0
   67159 WT4  7490 TIP3 H2   HT     0.417000        1.0080           0
   67160 WT4  7492 TIP3 OH2  OT    -0.834000       15.9994           0
   67161 WT4  7492 TIP3 H1   HT     0.417000        1.0080           0
   67162 WT4  7492 TIP3 H2   HT     0.417000        1.0080           0
   67163 WT4  7497 TIP3 OH2  OT    -0.834000       15.9994           0
   67164 WT4  7497 TIP3 H1   HT     0.417000        1.0080           0
   67165 WT4  7497 TIP3 H2   HT     0.417000        1.0080           0
   67166 WT4  7498 TIP3 OH2  OT    -0.834000       15.9994           0
   67167 WT4  7498 TIP3 H1   HT     0.417000        1.0080           0
   67168 WT4  7498 TIP3 H2   HT     0.417000        1.0080           0
   67169 WT4  7501 TIP3 OH2  OT    -0.834000       15.9994           0
   67170 WT4  7501 TIP3 H1   HT     0.417000        1.0080           0
   67171 WT4  7501 TIP3 H2   HT     0.417000        1.0080           0
   67172 WT4  7504 TIP3 OH2  OT    -0.834000       15.9994           0
   67173 WT4  7504 TIP3 H1   HT     0.417000        1.0080           0
   67174 WT4  7504 TIP3 H2   HT     0.417000        1.0080           0
   67175 WT4  7505 TIP3 OH2  OT    -0.834000       15.9994           0
   67176 WT4  7505 TIP3 H1   HT     0.417000        1.0080           0
   67177 WT4  7505 TIP3 H2   HT     0.417000        1.0080           0
   67178 WT4  7506 TIP3 OH2  OT    -0.834000       15.9994           0
   67179 WT4  7506 TIP3 H1   HT     0.417000        1.0080           0
   67180 WT4  7506 TIP3 H2   HT     0.417000        1.0080           0
   67181 WT4  7507 TIP3 OH2  OT    -0.834000       15.9994           0
   67182 WT4  7507 TIP3 H1   HT     0.417000        1.0080           0
   67183 WT4  7507 TIP3 H2   HT     0.417000        1.0080           0
   67184 WT4  7508 TIP3 OH2  OT    -0.834000       15.9994           0
   67185 WT4  7508 TIP3 H1   HT     0.417000        1.0080           0
   67186 WT4  7508 TIP3 H2   HT     0.417000        1.0080           0
   67187 WT4  7509 TIP3 OH2  OT    -0.834000       15.9994           0
   67188 WT4  7509 TIP3 H1   HT     0.417000        1.0080           0
   67189 WT4  7509 TIP3 H2   HT     0.417000        1.0080           0
   67190 WT4  7511 TIP3 OH2  OT    -0.834000       15.9994           0
   67191 WT4  7511 TIP3 H1   HT     0.417000        1.0080           0
   67192 WT4  7511 TIP3 H2   HT     0.417000        1.0080           0
   67193 WT4  7513 TIP3 OH2  OT    -0.834000       15.9994           0
   67194 WT4  7513 TIP3 H1   HT     0.417000        1.0080           0
   67195 WT4  7513 TIP3 H2   HT     0.417000        1.0080           0
   67196 WT4  7516 TIP3 OH2  OT    -0.834000       15.9994           0
   67197 WT4  7516 TIP3 H1   HT     0.417000        1.0080           0
   67198 WT4  7516 TIP3 H2   HT     0.417000        1.0080           0
   67199 WT4  7526 TIP3 OH2  OT    -0.834000       15.9994           0
   67200 WT4  7526 TIP3 H1   HT     0.417000        1.0080           0
   67201 WT4  7526 TIP3 H2   HT     0.417000        1.0080           0
   67202 WT4  7528 TIP3 OH2  OT    -0.834000       15.9994           0
   67203 WT4  7528 TIP3 H1   HT     0.417000        1.0080           0
   67204 WT4  7528 TIP3 H2   HT     0.417000        1.0080           0
   67205 WT4  7530 TIP3 OH2  OT    -0.834000       15.9994           0
   67206 WT4  7530 TIP3 H1   HT     0.417000        1.0080           0
   67207 WT4  7530 TIP3 H2   HT     0.417000        1.0080           0
   67208 WT4  7555 TIP3 OH2  OT    -0.834000       15.9994           0
   67209 WT4  7555 TIP3 H1   HT     0.417000        1.0080           0
   67210 WT4  7555 TIP3 H2   HT     0.417000        1.0080           0
   67211 WT4  7558 TIP3 OH2  OT    -0.834000       15.9994           0
   67212 WT4  7558 TIP3 H1   HT     0.417000        1.0080           0
   67213 WT4  7558 TIP3 H2   HT     0.417000        1.0080           0
   67214 WT4  7564 TIP3 OH2  OT    -0.834000       15.9994           0
   67215 WT4  7564 TIP3 H1   HT     0.417000        1.0080           0
   67216 WT4  7564 TIP3 H2   HT     0.417000        1.0080           0
   67217 WT4  7571 TIP3 OH2  OT    -0.834000       15.9994           0
   67218 WT4  7571 TIP3 H1   HT     0.417000        1.0080           0
   67219 WT4  7571 TIP3 H2   HT     0.417000        1.0080           0
   67220 WT4  7573 TIP3 OH2  OT    -0.834000       15.9994           0
   67221 WT4  7573 TIP3 H1   HT     0.417000        1.0080           0
   67222 WT4  7573 TIP3 H2   HT     0.417000        1.0080           0
   67223 WT4  7575 TIP3 OH2  OT    -0.834000       15.9994           0
   67224 WT4  7575 TIP3 H1   HT     0.417000        1.0080           0
   67225 WT4  7575 TIP3 H2   HT     0.417000        1.0080           0
   67226 WT4  7581 TIP3 OH2  OT    -0.834000       15.9994           0
   67227 WT4  7581 TIP3 H1   HT     0.417000        1.0080           0
   67228 WT4  7581 TIP3 H2   HT     0.417000        1.0080           0
   67229 WT4  7602 TIP3 OH2  OT    -0.834000       15.9994           0
   67230 WT4  7602 TIP3 H1   HT     0.417000        1.0080           0
   67231 WT4  7602 TIP3 H2   HT     0.417000        1.0080           0
   67232 WT4  7608 TIP3 OH2  OT    -0.834000       15.9994           0
   67233 WT4  7608 TIP3 H1   HT     0.417000        1.0080           0
   67234 WT4  7608 TIP3 H2   HT     0.417000        1.0080           0
   67235 WT4  7621 TIP3 OH2  OT    -0.834000       15.9994           0
   67236 WT4  7621 TIP3 H1   HT     0.417000        1.0080           0
   67237 WT4  7621 TIP3 H2   HT     0.417000        1.0080           0
   67238 WT4  7629 TIP3 OH2  OT    -0.834000       15.9994           0
   67239 WT4  7629 TIP3 H1   HT     0.417000        1.0080           0
   67240 WT4  7629 TIP3 H2   HT     0.417000        1.0080           0
   67241 WT4  7855 TIP3 OH2  OT    -0.834000       15.9994           0
   67242 WT4  7855 TIP3 H1   HT     0.417000        1.0080           0
   67243 WT4  7855 TIP3 H2   HT     0.417000        1.0080           0
   67244 WT4  7867 TIP3 OH2  OT    -0.834000       15.9994           0
   67245 WT4  7867 TIP3 H1   HT     0.417000        1.0080           0
   67246 WT4  7867 TIP3 H2   HT     0.417000        1.0080           0
   67247 WT4  7869 TIP3 OH2  OT    -0.834000       15.9994           0
   67248 WT4  7869 TIP3 H1   HT     0.417000        1.0080           0
   67249 WT4  7869 TIP3 H2   HT     0.417000        1.0080           0
   67250 WT4  7872 TIP3 OH2  OT    -0.834000       15.9994           0
   67251 WT4  7872 TIP3 H1   HT     0.417000        1.0080           0
   67252 WT4  7872 TIP3 H2   HT     0.417000        1.0080           0
   67253 WT4  7876 TIP3 OH2  OT    -0.834000       15.9994           0
   67254 WT4  7876 TIP3 H1   HT     0.417000        1.0080           0
   67255 WT4  7876 TIP3 H2   HT     0.417000        1.0080           0
   67256 WT4  7883 TIP3 OH2  OT    -0.834000       15.9994           0
   67257 WT4  7883 TIP3 H1   HT     0.417000        1.0080           0
   67258 WT4  7883 TIP3 H2   HT     0.417000        1.0080           0
   67259 WT4  7886 TIP3 OH2  OT    -0.834000       15.9994           0
   67260 WT4  7886 TIP3 H1   HT     0.417000        1.0080           0
   67261 WT4  7886 TIP3 H2   HT     0.417000        1.0080           0
   67262 WT4  7895 TIP3 OH2  OT    -0.834000       15.9994           0
   67263 WT4  7895 TIP3 H1   HT     0.417000        1.0080           0
   67264 WT4  7895 TIP3 H2   HT     0.417000        1.0080           0
   67265 WT4  7896 TIP3 OH2  OT    -0.834000       15.9994           0
   67266 WT4  7896 TIP3 H1   HT     0.417000        1.0080           0
   67267 WT4  7896 TIP3 H2   HT     0.417000        1.0080           0
   67268 WT4  7902 TIP3 OH2  OT    -0.834000       15.9994           0
   67269 WT4  7902 TIP3 H1   HT     0.417000        1.0080           0
   67270 WT4  7902 TIP3 H2   HT     0.417000        1.0080           0
   67271 WT4  7904 TIP3 OH2  OT    -0.834000       15.9994           0
   67272 WT4  7904 TIP3 H1   HT     0.417000        1.0080           0
   67273 WT4  7904 TIP3 H2   HT     0.417000        1.0080           0
   67274 WT4  7908 TIP3 OH2  OT    -0.834000       15.9994           0
   67275 WT4  7908 TIP3 H1   HT     0.417000        1.0080           0
   67276 WT4  7908 TIP3 H2   HT     0.417000        1.0080           0
   67277 WT4  7923 TIP3 OH2  OT    -0.834000       15.9994           0
   67278 WT4  7923 TIP3 H1   HT     0.417000        1.0080           0
   67279 WT4  7923 TIP3 H2   HT     0.417000        1.0080           0
   67280 WT4  7924 TIP3 OH2  OT    -0.834000       15.9994           0
   67281 WT4  7924 TIP3 H1   HT     0.417000        1.0080           0
   67282 WT4  7924 TIP3 H2   HT     0.417000        1.0080           0
   67283 WT4  7926 TIP3 OH2  OT    -0.834000       15.9994           0
   67284 WT4  7926 TIP3 H1   HT     0.417000        1.0080           0
   67285 WT4  7926 TIP3 H2   HT     0.417000        1.0080           0
   67286 WT4  7927 TIP3 OH2  OT    -0.834000       15.9994           0
   67287 WT4  7927 TIP3 H1   HT     0.417000        1.0080           0
   67288 WT4  7927 TIP3 H2   HT     0.417000        1.0080           0
   67289 WT4  7930 TIP3 OH2  OT    -0.834000       15.9994           0
   67290 WT4  7930 TIP3 H1   HT     0.417000        1.0080           0
   67291 WT4  7930 TIP3 H2   HT     0.417000        1.0080           0
   67292 WT4  7931 TIP3 OH2  OT    -0.834000       15.9994           0
   67293 WT4  7931 TIP3 H1   HT     0.417000        1.0080           0
   67294 WT4  7931 TIP3 H2   HT     0.417000        1.0080           0
   67295 WT4  7933 TIP3 OH2  OT    -0.834000       15.9994           0
   67296 WT4  7933 TIP3 H1   HT     0.417000        1.0080           0
   67297 WT4  7933 TIP3 H2   HT     0.417000        1.0080           0
   67298 WT4  7937 TIP3 OH2  OT    -0.834000       15.9994           0
   67299 WT4  7937 TIP3 H1   HT     0.417000        1.0080           0
   67300 WT4  7937 TIP3 H2   HT     0.417000        1.0080           0
   67301 WT4  7938 TIP3 OH2  OT    -0.834000       15.9994           0
   67302 WT4  7938 TIP3 H1   HT     0.417000        1.0080           0
   67303 WT4  7938 TIP3 H2   HT     0.417000        1.0080           0
   67304 WT4  7941 TIP3 OH2  OT    -0.834000       15.9994           0
   67305 WT4  7941 TIP3 H1   HT     0.417000        1.0080           0
   67306 WT4  7941 TIP3 H2   HT     0.417000        1.0080           0
   67307 WT4  7945 TIP3 OH2  OT    -0.834000       15.9994           0
   67308 WT4  7945 TIP3 H1   HT     0.417000        1.0080           0
   67309 WT4  7945 TIP3 H2   HT     0.417000        1.0080           0
   67310 WT4  7951 TIP3 OH2  OT    -0.834000       15.9994           0
   67311 WT4  7951 TIP3 H1   HT     0.417000        1.0080           0
   67312 WT4  7951 TIP3 H2   HT     0.417000        1.0080           0
   67313 WT4  7955 TIP3 OH2  OT    -0.834000       15.9994           0
   67314 WT4  7955 TIP3 H1   HT     0.417000        1.0080           0
   67315 WT4  7955 TIP3 H2   HT     0.417000        1.0080           0
   67316 WT4  7962 TIP3 OH2  OT    -0.834000       15.9994           0
   67317 WT4  7962 TIP3 H1   HT     0.417000        1.0080           0
   67318 WT4  7962 TIP3 H2   HT     0.417000        1.0080           0
   67319 WT4  7966 TIP3 OH2  OT    -0.834000       15.9994           0
   67320 WT4  7966 TIP3 H1   HT     0.417000        1.0080           0
   67321 WT4  7966 TIP3 H2   HT     0.417000        1.0080           0
   67322 WT4  8005 TIP3 OH2  OT    -0.834000       15.9994           0
   67323 WT4  8005 TIP3 H1   HT     0.417000        1.0080           0
   67324 WT4  8005 TIP3 H2   HT     0.417000        1.0080           0
   67325 WT4  8006 TIP3 OH2  OT    -0.834000       15.9994           0
   67326 WT4  8006 TIP3 H1   HT     0.417000        1.0080           0
   67327 WT4  8006 TIP3 H2   HT     0.417000        1.0080           0
   67328 WT4  8022 TIP3 OH2  OT    -0.834000       15.9994           0
   67329 WT4  8022 TIP3 H1   HT     0.417000        1.0080           0
   67330 WT4  8022 TIP3 H2   HT     0.417000        1.0080           0
   67331 WT4  8034 TIP3 OH2  OT    -0.834000       15.9994           0
   67332 WT4  8034 TIP3 H1   HT     0.417000        1.0080           0
   67333 WT4  8034 TIP3 H2   HT     0.417000        1.0080           0
   67334 WT4  8037 TIP3 OH2  OT    -0.834000       15.9994           0
   67335 WT4  8037 TIP3 H1   HT     0.417000        1.0080           0
   67336 WT4  8037 TIP3 H2   HT     0.417000        1.0080           0
   67337 WT4  8039 TIP3 OH2  OT    -0.834000       15.9994           0
   67338 WT4  8039 TIP3 H1   HT     0.417000        1.0080           0
   67339 WT4  8039 TIP3 H2   HT     0.417000        1.0080           0
   67340 WT4  8056 TIP3 OH2  OT    -0.834000       15.9994           0
   67341 WT4  8056 TIP3 H1   HT     0.417000        1.0080           0
   67342 WT4  8056 TIP3 H2   HT     0.417000        1.0080           0
   67343 WT4  8270 TIP3 OH2  OT    -0.834000       15.9994           0
   67344 WT4  8270 TIP3 H1   HT     0.417000        1.0080           0
   67345 WT4  8270 TIP3 H2   HT     0.417000        1.0080           0
   67346 WT4  8290 TIP3 OH2  OT    -0.834000       15.9994           0
   67347 WT4  8290 TIP3 H1   HT     0.417000        1.0080           0
   67348 WT4  8290 TIP3 H2   HT     0.417000        1.0080           0
   67349 WT4  8309 TIP3 OH2  OT    -0.834000       15.9994           0
   67350 WT4  8309 TIP3 H1   HT     0.417000        1.0080           0
   67351 WT4  8309 TIP3 H2   HT     0.417000        1.0080           0
   67352 WT4  8319 TIP3 OH2  OT    -0.834000       15.9994           0
   67353 WT4  8319 TIP3 H1   HT     0.417000        1.0080           0
   67354 WT4  8319 TIP3 H2   HT     0.417000        1.0080           0
   67355 WT4  8324 TIP3 OH2  OT    -0.834000       15.9994           0
   67356 WT4  8324 TIP3 H1   HT     0.417000        1.0080           0
   67357 WT4  8324 TIP3 H2   HT     0.417000        1.0080           0
   67358 WT4  8326 TIP3 OH2  OT    -0.834000       15.9994           0
   67359 WT4  8326 TIP3 H1   HT     0.417000        1.0080           0
   67360 WT4  8326 TIP3 H2   HT     0.417000        1.0080           0
   67361 WT4  8339 TIP3 OH2  OT    -0.834000       15.9994           0
   67362 WT4  8339 TIP3 H1   HT     0.417000        1.0080           0
   67363 WT4  8339 TIP3 H2   HT     0.417000        1.0080           0
   67364 WT4  8355 TIP3 OH2  OT    -0.834000       15.9994           0
   67365 WT4  8355 TIP3 H1   HT     0.417000        1.0080           0
   67366 WT4  8355 TIP3 H2   HT     0.417000        1.0080           0
   67367 WT4  8369 TIP3 OH2  OT    -0.834000       15.9994           0
   67368 WT4  8369 TIP3 H1   HT     0.417000        1.0080           0
   67369 WT4  8369 TIP3 H2   HT     0.417000        1.0080           0
   67370 WT4  8370 TIP3 OH2  OT    -0.834000       15.9994           0
   67371 WT4  8370 TIP3 H1   HT     0.417000        1.0080           0
   67372 WT4  8370 TIP3 H2   HT     0.417000        1.0080           0
   67373 WT4  8372 TIP3 OH2  OT    -0.834000       15.9994           0
   67374 WT4  8372 TIP3 H1   HT     0.417000        1.0080           0
   67375 WT4  8372 TIP3 H2   HT     0.417000        1.0080           0
   67376 WT4  8377 TIP3 OH2  OT    -0.834000       15.9994           0
   67377 WT4  8377 TIP3 H1   HT     0.417000        1.0080           0
   67378 WT4  8377 TIP3 H2   HT     0.417000        1.0080           0
   67379 WT4  8384 TIP3 OH2  OT    -0.834000       15.9994           0
   67380 WT4  8384 TIP3 H1   HT     0.417000        1.0080           0
   67381 WT4  8384 TIP3 H2   HT     0.417000        1.0080           0
   67382 WT4  8391 TIP3 OH2  OT    -0.834000       15.9994           0
   67383 WT4  8391 TIP3 H1   HT     0.417000        1.0080           0
   67384 WT4  8391 TIP3 H2   HT     0.417000        1.0080           0
   67385 WT4  8396 TIP3 OH2  OT    -0.834000       15.9994           0
   67386 WT4  8396 TIP3 H1   HT     0.417000        1.0080           0
   67387 WT4  8396 TIP3 H2   HT     0.417000        1.0080           0
   67388 WT4  8402 TIP3 OH2  OT    -0.834000       15.9994           0
   67389 WT4  8402 TIP3 H1   HT     0.417000        1.0080           0
   67390 WT4  8402 TIP3 H2   HT     0.417000        1.0080           0
   67391 WT4  8408 TIP3 OH2  OT    -0.834000       15.9994           0
   67392 WT4  8408 TIP3 H1   HT     0.417000        1.0080           0
   67393 WT4  8408 TIP3 H2   HT     0.417000        1.0080           0
   67394 WT4  8411 TIP3 OH2  OT    -0.834000       15.9994           0
   67395 WT4  8411 TIP3 H1   HT     0.417000        1.0080           0
   67396 WT4  8411 TIP3 H2   HT     0.417000        1.0080           0
   67397 WT4  8412 TIP3 OH2  OT    -0.834000       15.9994           0
   67398 WT4  8412 TIP3 H1   HT     0.417000        1.0080           0
   67399 WT4  8412 TIP3 H2   HT     0.417000        1.0080           0
   67400 WT4  8416 TIP3 OH2  OT    -0.834000       15.9994           0
   67401 WT4  8416 TIP3 H1   HT     0.417000        1.0080           0
   67402 WT4  8416 TIP3 H2   HT     0.417000        1.0080           0
   67403 WT4  8421 TIP3 OH2  OT    -0.834000       15.9994           0
   67404 WT4  8421 TIP3 H1   HT     0.417000        1.0080           0
   67405 WT4  8421 TIP3 H2   HT     0.417000        1.0080           0
   67406 WT4  8423 TIP3 OH2  OT    -0.834000       15.9994           0
   67407 WT4  8423 TIP3 H1   HT     0.417000        1.0080           0
   67408 WT4  8423 TIP3 H2   HT     0.417000        1.0080           0
   67409 WT4  8425 TIP3 OH2  OT    -0.834000       15.9994           0
   67410 WT4  8425 TIP3 H1   HT     0.417000        1.0080           0
   67411 WT4  8425 TIP3 H2   HT     0.417000        1.0080           0
   67412 WT4  8434 TIP3 OH2  OT    -0.834000       15.9994           0
   67413 WT4  8434 TIP3 H1   HT     0.417000        1.0080           0
   67414 WT4  8434 TIP3 H2   HT     0.417000        1.0080           0
   67415 WT4  8439 TIP3 OH2  OT    -0.834000       15.9994           0
   67416 WT4  8439 TIP3 H1   HT     0.417000        1.0080           0
   67417 WT4  8439 TIP3 H2   HT     0.417000        1.0080           0
   67418 WT4  8446 TIP3 OH2  OT    -0.834000       15.9994           0
   67419 WT4  8446 TIP3 H1   HT     0.417000        1.0080           0
   67420 WT4  8446 TIP3 H2   HT     0.417000        1.0080           0
   67421 WT4  8447 TIP3 OH2  OT    -0.834000       15.9994           0
   67422 WT4  8447 TIP3 H1   HT     0.417000        1.0080           0
   67423 WT4  8447 TIP3 H2   HT     0.417000        1.0080           0
   67424 WT4  8450 TIP3 OH2  OT    -0.834000       15.9994           0
   67425 WT4  8450 TIP3 H1   HT     0.417000        1.0080           0
   67426 WT4  8450 TIP3 H2   HT     0.417000        1.0080           0
   67427 WT4  8509 TIP3 OH2  OT    -0.834000       15.9994           0
   67428 WT4  8509 TIP3 H1   HT     0.417000        1.0080           0
   67429 WT4  8509 TIP3 H2   HT     0.417000        1.0080           0
   67430 WT4  8514 TIP3 OH2  OT    -0.834000       15.9994           0
   67431 WT4  8514 TIP3 H1   HT     0.417000        1.0080           0
   67432 WT4  8514 TIP3 H2   HT     0.417000        1.0080           0
   67433 WT4  8779 TIP3 OH2  OT    -0.834000       15.9994           0
   67434 WT4  8779 TIP3 H1   HT     0.417000        1.0080           0
   67435 WT4  8779 TIP3 H2   HT     0.417000        1.0080           0
   67436 WT4  8790 TIP3 OH2  OT    -0.834000       15.9994           0
   67437 WT4  8790 TIP3 H1   HT     0.417000        1.0080           0
   67438 WT4  8790 TIP3 H2   HT     0.417000        1.0080           0
   67439 WT4  8792 TIP3 OH2  OT    -0.834000       15.9994           0
   67440 WT4  8792 TIP3 H1   HT     0.417000        1.0080           0
   67441 WT4  8792 TIP3 H2   HT     0.417000        1.0080           0
   67442 WT4  8802 TIP3 OH2  OT    -0.834000       15.9994           0
   67443 WT4  8802 TIP3 H1   HT     0.417000        1.0080           0
   67444 WT4  8802 TIP3 H2   HT     0.417000        1.0080           0
   67445 WT4  8807 TIP3 OH2  OT    -0.834000       15.9994           0
   67446 WT4  8807 TIP3 H1   HT     0.417000        1.0080           0
   67447 WT4  8807 TIP3 H2   HT     0.417000        1.0080           0
   67448 WT4  8820 TIP3 OH2  OT    -0.834000       15.9994           0
   67449 WT4  8820 TIP3 H1   HT     0.417000        1.0080           0
   67450 WT4  8820 TIP3 H2   HT     0.417000        1.0080           0
   67451 WT4  8823 TIP3 OH2  OT    -0.834000       15.9994           0
   67452 WT4  8823 TIP3 H1   HT     0.417000        1.0080           0
   67453 WT4  8823 TIP3 H2   HT     0.417000        1.0080           0
   67454 WT4  8824 TIP3 OH2  OT    -0.834000       15.9994           0
   67455 WT4  8824 TIP3 H1   HT     0.417000        1.0080           0
   67456 WT4  8824 TIP3 H2   HT     0.417000        1.0080           0
   67457 WT4  8833 TIP3 OH2  OT    -0.834000       15.9994           0
   67458 WT4  8833 TIP3 H1   HT     0.417000        1.0080           0
   67459 WT4  8833 TIP3 H2   HT     0.417000        1.0080           0
   67460 WT4  8836 TIP3 OH2  OT    -0.834000       15.9994           0
   67461 WT4  8836 TIP3 H1   HT     0.417000        1.0080           0
   67462 WT4  8836 TIP3 H2   HT     0.417000        1.0080           0
   67463 WT4  8837 TIP3 OH2  OT    -0.834000       15.9994           0
   67464 WT4  8837 TIP3 H1   HT     0.417000        1.0080           0
   67465 WT4  8837 TIP3 H2   HT     0.417000        1.0080           0
   67466 WT4  8838 TIP3 OH2  OT    -0.834000       15.9994           0
   67467 WT4  8838 TIP3 H1   HT     0.417000        1.0080           0
   67468 WT4  8838 TIP3 H2   HT     0.417000        1.0080           0
   67469 WT4  8843 TIP3 OH2  OT    -0.834000       15.9994           0
   67470 WT4  8843 TIP3 H1   HT     0.417000        1.0080           0
   67471 WT4  8843 TIP3 H2   HT     0.417000        1.0080           0
   67472 WT4  8846 TIP3 OH2  OT    -0.834000       15.9994           0
   67473 WT4  8846 TIP3 H1   HT     0.417000        1.0080           0
   67474 WT4  8846 TIP3 H2   HT     0.417000        1.0080           0
   67475 WT4  8848 TIP3 OH2  OT    -0.834000       15.9994           0
   67476 WT4  8848 TIP3 H1   HT     0.417000        1.0080           0
   67477 WT4  8848 TIP3 H2   HT     0.417000        1.0080           0
   67478 WT4  8849 TIP3 OH2  OT    -0.834000       15.9994           0
   67479 WT4  8849 TIP3 H1   HT     0.417000        1.0080           0
   67480 WT4  8849 TIP3 H2   HT     0.417000        1.0080           0
   67481 WT4  8855 TIP3 OH2  OT    -0.834000       15.9994           0
   67482 WT4  8855 TIP3 H1   HT     0.417000        1.0080           0
   67483 WT4  8855 TIP3 H2   HT     0.417000        1.0080           0
   67484 WT4  8857 TIP3 OH2  OT    -0.834000       15.9994           0
   67485 WT4  8857 TIP3 H1   HT     0.417000        1.0080           0
   67486 WT4  8857 TIP3 H2   HT     0.417000        1.0080           0
   67487 WT4  8859 TIP3 OH2  OT    -0.834000       15.9994           0
   67488 WT4  8859 TIP3 H1   HT     0.417000        1.0080           0
   67489 WT4  8859 TIP3 H2   HT     0.417000        1.0080           0
   67490 WT4  8863 TIP3 OH2  OT    -0.834000       15.9994           0
   67491 WT4  8863 TIP3 H1   HT     0.417000        1.0080           0
   67492 WT4  8863 TIP3 H2   HT     0.417000        1.0080           0
   67493 WT4  8864 TIP3 OH2  OT    -0.834000       15.9994           0
   67494 WT4  8864 TIP3 H1   HT     0.417000        1.0080           0
   67495 WT4  8864 TIP3 H2   HT     0.417000        1.0080           0
   67496 WT4  8903 TIP3 OH2  OT    -0.834000       15.9994           0
   67497 WT4  8903 TIP3 H1   HT     0.417000        1.0080           0
   67498 WT4  8903 TIP3 H2   HT     0.417000        1.0080           0
   67499 WT4  8917 TIP3 OH2  OT    -0.834000       15.9994           0
   67500 WT4  8917 TIP3 H1   HT     0.417000        1.0080           0
   67501 WT4  8917 TIP3 H2   HT     0.417000        1.0080           0
   67502 WT4  8942 TIP3 OH2  OT    -0.834000       15.9994           0
   67503 WT4  8942 TIP3 H1   HT     0.417000        1.0080           0
   67504 WT4  8942 TIP3 H2   HT     0.417000        1.0080           0
   67505 WT4  9137 TIP3 OH2  OT    -0.834000       15.9994           0
   67506 WT4  9137 TIP3 H1   HT     0.417000        1.0080           0
   67507 WT4  9137 TIP3 H2   HT     0.417000        1.0080           0
   67508 WT4  9165 TIP3 OH2  OT    -0.834000       15.9994           0
   67509 WT4  9165 TIP3 H1   HT     0.417000        1.0080           0
   67510 WT4  9165 TIP3 H2   HT     0.417000        1.0080           0
   67511 WT4  9168 TIP3 OH2  OT    -0.834000       15.9994           0
   67512 WT4  9168 TIP3 H1   HT     0.417000        1.0080           0
   67513 WT4  9168 TIP3 H2   HT     0.417000        1.0080           0
   67514 WT4  9169 TIP3 OH2  OT    -0.834000       15.9994           0
   67515 WT4  9169 TIP3 H1   HT     0.417000        1.0080           0
   67516 WT4  9169 TIP3 H2   HT     0.417000        1.0080           0
   67517 WT4  9212 TIP3 OH2  OT    -0.834000       15.9994           0
   67518 WT4  9212 TIP3 H1   HT     0.417000        1.0080           0
   67519 WT4  9212 TIP3 H2   HT     0.417000        1.0080           0
   67520 WT4  9214 TIP3 OH2  OT    -0.834000       15.9994           0
   67521 WT4  9214 TIP3 H1   HT     0.417000        1.0080           0
   67522 WT4  9214 TIP3 H2   HT     0.417000        1.0080           0
   67523 WT4  9224 TIP3 OH2  OT    -0.834000       15.9994           0
   67524 WT4  9224 TIP3 H1   HT     0.417000        1.0080           0
   67525 WT4  9224 TIP3 H2   HT     0.417000        1.0080           0
   67526 WT4  9226 TIP3 OH2  OT    -0.834000       15.9994           0
   67527 WT4  9226 TIP3 H1   HT     0.417000        1.0080           0
   67528 WT4  9226 TIP3 H2   HT     0.417000        1.0080           0
   67529 WT4  9230 TIP3 OH2  OT    -0.834000       15.9994           0
   67530 WT4  9230 TIP3 H1   HT     0.417000        1.0080           0
   67531 WT4  9230 TIP3 H2   HT     0.417000        1.0080           0
   67532 WT4  9240 TIP3 OH2  OT    -0.834000       15.9994           0
   67533 WT4  9240 TIP3 H1   HT     0.417000        1.0080           0
   67534 WT4  9240 TIP3 H2   HT     0.417000        1.0080           0
   67535 WT4  9246 TIP3 OH2  OT    -0.834000       15.9994           0
   67536 WT4  9246 TIP3 H1   HT     0.417000        1.0080           0
   67537 WT4  9246 TIP3 H2   HT     0.417000        1.0080           0
   67538 WT4  9253 TIP3 OH2  OT    -0.834000       15.9994           0
   67539 WT4  9253 TIP3 H1   HT     0.417000        1.0080           0
   67540 WT4  9253 TIP3 H2   HT     0.417000        1.0080           0
   67541 WT4  9260 TIP3 OH2  OT    -0.834000       15.9994           0
   67542 WT4  9260 TIP3 H1   HT     0.417000        1.0080           0
   67543 WT4  9260 TIP3 H2   HT     0.417000        1.0080           0
   67544 WT4  9261 TIP3 OH2  OT    -0.834000       15.9994           0
   67545 WT4  9261 TIP3 H1   HT     0.417000        1.0080           0
   67546 WT4  9261 TIP3 H2   HT     0.417000        1.0080           0
   67547 WT5  7    TIP3 OH2  OT    -0.834000       15.9994           0
   67548 WT5  7    TIP3 H1   HT     0.417000        1.0080           0
   67549 WT5  7    TIP3 H2   HT     0.417000        1.0080           0
   67550 WT5  10   TIP3 OH2  OT    -0.834000       15.9994           0
   67551 WT5  10   TIP3 H1   HT     0.417000        1.0080           0
   67552 WT5  10   TIP3 H2   HT     0.417000        1.0080           0
   67553 WT5  11   TIP3 OH2  OT    -0.834000       15.9994           0
   67554 WT5  11   TIP3 H1   HT     0.417000        1.0080           0
   67555 WT5  11   TIP3 H2   HT     0.417000        1.0080           0
   67556 WT5  13   TIP3 OH2  OT    -0.834000       15.9994           0
   67557 WT5  13   TIP3 H1   HT     0.417000        1.0080           0
   67558 WT5  13   TIP3 H2   HT     0.417000        1.0080           0
   67559 WT5  16   TIP3 OH2  OT    -0.834000       15.9994           0
   67560 WT5  16   TIP3 H1   HT     0.417000        1.0080           0
   67561 WT5  16   TIP3 H2   HT     0.417000        1.0080           0
   67562 WT5  17   TIP3 OH2  OT    -0.834000       15.9994           0
   67563 WT5  17   TIP3 H1   HT     0.417000        1.0080           0
   67564 WT5  17   TIP3 H2   HT     0.417000        1.0080           0
   67565 WT5  19   TIP3 OH2  OT    -0.834000       15.9994           0
   67566 WT5  19   TIP3 H1   HT     0.417000        1.0080           0
   67567 WT5  19   TIP3 H2   HT     0.417000        1.0080           0
   67568 WT5  20   TIP3 OH2  OT    -0.834000       15.9994           0
   67569 WT5  20   TIP3 H1   HT     0.417000        1.0080           0
   67570 WT5  20   TIP3 H2   HT     0.417000        1.0080           0
   67571 WT5  22   TIP3 OH2  OT    -0.834000       15.9994           0
   67572 WT5  22   TIP3 H1   HT     0.417000        1.0080           0
   67573 WT5  22   TIP3 H2   HT     0.417000        1.0080           0
   67574 WT5  26   TIP3 OH2  OT    -0.834000       15.9994           0
   67575 WT5  26   TIP3 H1   HT     0.417000        1.0080           0
   67576 WT5  26   TIP3 H2   HT     0.417000        1.0080           0
   67577 WT5  32   TIP3 OH2  OT    -0.834000       15.9994           0
   67578 WT5  32   TIP3 H1   HT     0.417000        1.0080           0
   67579 WT5  32   TIP3 H2   HT     0.417000        1.0080           0
   67580 WT5  33   TIP3 OH2  OT    -0.834000       15.9994           0
   67581 WT5  33   TIP3 H1   HT     0.417000        1.0080           0
   67582 WT5  33   TIP3 H2   HT     0.417000        1.0080           0
   67583 WT5  34   TIP3 OH2  OT    -0.834000       15.9994           0
   67584 WT5  34   TIP3 H1   HT     0.417000        1.0080           0
   67585 WT5  34   TIP3 H2   HT     0.417000        1.0080           0
   67586 WT5  37   TIP3 OH2  OT    -0.834000       15.9994           0
   67587 WT5  37   TIP3 H1   HT     0.417000        1.0080           0
   67588 WT5  37   TIP3 H2   HT     0.417000        1.0080           0
   67589 WT5  39   TIP3 OH2  OT    -0.834000       15.9994           0
   67590 WT5  39   TIP3 H1   HT     0.417000        1.0080           0
   67591 WT5  39   TIP3 H2   HT     0.417000        1.0080           0
   67592 WT5  69   TIP3 OH2  OT    -0.834000       15.9994           0
   67593 WT5  69   TIP3 H1   HT     0.417000        1.0080           0
   67594 WT5  69   TIP3 H2   HT     0.417000        1.0080           0
   67595 WT5  76   TIP3 OH2  OT    -0.834000       15.9994           0
   67596 WT5  76   TIP3 H1   HT     0.417000        1.0080           0
   67597 WT5  76   TIP3 H2   HT     0.417000        1.0080           0
   67598 WT5  93   TIP3 OH2  OT    -0.834000       15.9994           0
   67599 WT5  93   TIP3 H1   HT     0.417000        1.0080           0
   67600 WT5  93   TIP3 H2   HT     0.417000        1.0080           0
   67601 WT5  107  TIP3 OH2  OT    -0.834000       15.9994           0
   67602 WT5  107  TIP3 H1   HT     0.417000        1.0080           0
   67603 WT5  107  TIP3 H2   HT     0.417000        1.0080           0
   67604 WT5  116  TIP3 OH2  OT    -0.834000       15.9994           0
   67605 WT5  116  TIP3 H1   HT     0.417000        1.0080           0
   67606 WT5  116  TIP3 H2   HT     0.417000        1.0080           0
   67607 WT5  125  TIP3 OH2  OT    -0.834000       15.9994           0
   67608 WT5  125  TIP3 H1   HT     0.417000        1.0080           0
   67609 WT5  125  TIP3 H2   HT     0.417000        1.0080           0
   67610 WT5  130  TIP3 OH2  OT    -0.834000       15.9994           0
   67611 WT5  130  TIP3 H1   HT     0.417000        1.0080           0
   67612 WT5  130  TIP3 H2   HT     0.417000        1.0080           0
   67613 WT5  133  TIP3 OH2  OT    -0.834000       15.9994           0
   67614 WT5  133  TIP3 H1   HT     0.417000        1.0080           0
   67615 WT5  133  TIP3 H2   HT     0.417000        1.0080           0
   67616 WT5  360  TIP3 OH2  OT    -0.834000       15.9994           0
   67617 WT5  360  TIP3 H1   HT     0.417000        1.0080           0
   67618 WT5  360  TIP3 H2   HT     0.417000        1.0080           0
   67619 WT5  365  TIP3 OH2  OT    -0.834000       15.9994           0
   67620 WT5  365  TIP3 H1   HT     0.417000        1.0080           0
   67621 WT5  365  TIP3 H2   HT     0.417000        1.0080           0
   67622 WT5  407  TIP3 OH2  OT    -0.834000       15.9994           0
   67623 WT5  407  TIP3 H1   HT     0.417000        1.0080           0
   67624 WT5  407  TIP3 H2   HT     0.417000        1.0080           0
   67625 WT5  408  TIP3 OH2  OT    -0.834000       15.9994           0
   67626 WT5  408  TIP3 H1   HT     0.417000        1.0080           0
   67627 WT5  408  TIP3 H2   HT     0.417000        1.0080           0
   67628 WT5  421  TIP3 OH2  OT    -0.834000       15.9994           0
   67629 WT5  421  TIP3 H1   HT     0.417000        1.0080           0
   67630 WT5  421  TIP3 H2   HT     0.417000        1.0080           0
   67631 WT5  432  TIP3 OH2  OT    -0.834000       15.9994           0
   67632 WT5  432  TIP3 H1   HT     0.417000        1.0080           0
   67633 WT5  432  TIP3 H2   HT     0.417000        1.0080           0
   67634 WT5  434  TIP3 OH2  OT    -0.834000       15.9994           0
   67635 WT5  434  TIP3 H1   HT     0.417000        1.0080           0
   67636 WT5  434  TIP3 H2   HT     0.417000        1.0080           0
   67637 WT5  440  TIP3 OH2  OT    -0.834000       15.9994           0
   67638 WT5  440  TIP3 H1   HT     0.417000        1.0080           0
   67639 WT5  440  TIP3 H2   HT     0.417000        1.0080           0
   67640 WT5  441  TIP3 OH2  OT    -0.834000       15.9994           0
   67641 WT5  441  TIP3 H1   HT     0.417000        1.0080           0
   67642 WT5  441  TIP3 H2   HT     0.417000        1.0080           0
   67643 WT5  447  TIP3 OH2  OT    -0.834000       15.9994           0
   67644 WT5  447  TIP3 H1   HT     0.417000        1.0080           0
   67645 WT5  447  TIP3 H2   HT     0.417000        1.0080           0
   67646 WT5  449  TIP3 OH2  OT    -0.834000       15.9994           0
   67647 WT5  449  TIP3 H1   HT     0.417000        1.0080           0
   67648 WT5  449  TIP3 H2   HT     0.417000        1.0080           0
   67649 WT5  450  TIP3 OH2  OT    -0.834000       15.9994           0
   67650 WT5  450  TIP3 H1   HT     0.417000        1.0080           0
   67651 WT5  450  TIP3 H2   HT     0.417000        1.0080           0
   67652 WT5  451  TIP3 OH2  OT    -0.834000       15.9994           0
   67653 WT5  451  TIP3 H1   HT     0.417000        1.0080           0
   67654 WT5  451  TIP3 H2   HT     0.417000        1.0080           0
   67655 WT5  453  TIP3 OH2  OT    -0.834000       15.9994           0
   67656 WT5  453  TIP3 H1   HT     0.417000        1.0080           0
   67657 WT5  453  TIP3 H2   HT     0.417000        1.0080           0
   67658 WT5  462  TIP3 OH2  OT    -0.834000       15.9994           0
   67659 WT5  462  TIP3 H1   HT     0.417000        1.0080           0
   67660 WT5  462  TIP3 H2   HT     0.417000        1.0080           0
   67661 WT5  465  TIP3 OH2  OT    -0.834000       15.9994           0
   67662 WT5  465  TIP3 H1   HT     0.417000        1.0080           0
   67663 WT5  465  TIP3 H2   HT     0.417000        1.0080           0
   67664 WT5  474  TIP3 OH2  OT    -0.834000       15.9994           0
   67665 WT5  474  TIP3 H1   HT     0.417000        1.0080           0
   67666 WT5  474  TIP3 H2   HT     0.417000        1.0080           0
   67667 WT5  484  TIP3 OH2  OT    -0.834000       15.9994           0
   67668 WT5  484  TIP3 H1   HT     0.417000        1.0080           0
   67669 WT5  484  TIP3 H2   HT     0.417000        1.0080           0
   67670 WT5  486  TIP3 OH2  OT    -0.834000       15.9994           0
   67671 WT5  486  TIP3 H1   HT     0.417000        1.0080           0
   67672 WT5  486  TIP3 H2   HT     0.417000        1.0080           0
   67673 WT5  488  TIP3 OH2  OT    -0.834000       15.9994           0
   67674 WT5  488  TIP3 H1   HT     0.417000        1.0080           0
   67675 WT5  488  TIP3 H2   HT     0.417000        1.0080           0
   67676 WT5  490  TIP3 OH2  OT    -0.834000       15.9994           0
   67677 WT5  490  TIP3 H1   HT     0.417000        1.0080           0
   67678 WT5  490  TIP3 H2   HT     0.417000        1.0080           0
   67679 WT5  498  TIP3 OH2  OT    -0.834000       15.9994           0
   67680 WT5  498  TIP3 H1   HT     0.417000        1.0080           0
   67681 WT5  498  TIP3 H2   HT     0.417000        1.0080           0
   67682 WT5  501  TIP3 OH2  OT    -0.834000       15.9994           0
   67683 WT5  501  TIP3 H1   HT     0.417000        1.0080           0
   67684 WT5  501  TIP3 H2   HT     0.417000        1.0080           0
   67685 WT5  506  TIP3 OH2  OT    -0.834000       15.9994           0
   67686 WT5  506  TIP3 H1   HT     0.417000        1.0080           0
   67687 WT5  506  TIP3 H2   HT     0.417000        1.0080           0
   67688 WT5  509  TIP3 OH2  OT    -0.834000       15.9994           0
   67689 WT5  509  TIP3 H1   HT     0.417000        1.0080           0
   67690 WT5  509  TIP3 H2   HT     0.417000        1.0080           0
   67691 WT5  514  TIP3 OH2  OT    -0.834000       15.9994           0
   67692 WT5  514  TIP3 H1   HT     0.417000        1.0080           0
   67693 WT5  514  TIP3 H2   HT     0.417000        1.0080           0
   67694 WT5  516  TIP3 OH2  OT    -0.834000       15.9994           0
   67695 WT5  516  TIP3 H1   HT     0.417000        1.0080           0
   67696 WT5  516  TIP3 H2   HT     0.417000        1.0080           0
   67697 WT5  525  TIP3 OH2  OT    -0.834000       15.9994           0
   67698 WT5  525  TIP3 H1   HT     0.417000        1.0080           0
   67699 WT5  525  TIP3 H2   HT     0.417000        1.0080           0
   67700 WT5  538  TIP3 OH2  OT    -0.834000       15.9994           0
   67701 WT5  538  TIP3 H1   HT     0.417000        1.0080           0
   67702 WT5  538  TIP3 H2   HT     0.417000        1.0080           0
   67703 WT5  550  TIP3 OH2  OT    -0.834000       15.9994           0
   67704 WT5  550  TIP3 H1   HT     0.417000        1.0080           0
   67705 WT5  550  TIP3 H2   HT     0.417000        1.0080           0
   67706 WT5  552  TIP3 OH2  OT    -0.834000       15.9994           0
   67707 WT5  552  TIP3 H1   HT     0.417000        1.0080           0
   67708 WT5  552  TIP3 H2   HT     0.417000        1.0080           0
   67709 WT5  558  TIP3 OH2  OT    -0.834000       15.9994           0
   67710 WT5  558  TIP3 H1   HT     0.417000        1.0080           0
   67711 WT5  558  TIP3 H2   HT     0.417000        1.0080           0
   67712 WT5  597  TIP3 OH2  OT    -0.834000       15.9994           0
   67713 WT5  597  TIP3 H1   HT     0.417000        1.0080           0
   67714 WT5  597  TIP3 H2   HT     0.417000        1.0080           0
   67715 WT5  805  TIP3 OH2  OT    -0.834000       15.9994           0
   67716 WT5  805  TIP3 H1   HT     0.417000        1.0080           0
   67717 WT5  805  TIP3 H2   HT     0.417000        1.0080           0
   67718 WT5  821  TIP3 OH2  OT    -0.834000       15.9994           0
   67719 WT5  821  TIP3 H1   HT     0.417000        1.0080           0
   67720 WT5  821  TIP3 H2   HT     0.417000        1.0080           0
   67721 WT5  822  TIP3 OH2  OT    -0.834000       15.9994           0
   67722 WT5  822  TIP3 H1   HT     0.417000        1.0080           0
   67723 WT5  822  TIP3 H2   HT     0.417000        1.0080           0
   67724 WT5  825  TIP3 OH2  OT    -0.834000       15.9994           0
   67725 WT5  825  TIP3 H1   HT     0.417000        1.0080           0
   67726 WT5  825  TIP3 H2   HT     0.417000        1.0080           0
   67727 WT5  835  TIP3 OH2  OT    -0.834000       15.9994           0
   67728 WT5  835  TIP3 H1   HT     0.417000        1.0080           0
   67729 WT5  835  TIP3 H2   HT     0.417000        1.0080           0
   67730 WT5  849  TIP3 OH2  OT    -0.834000       15.9994           0
   67731 WT5  849  TIP3 H1   HT     0.417000        1.0080           0
   67732 WT5  849  TIP3 H2   HT     0.417000        1.0080           0
   67733 WT5  852  TIP3 OH2  OT    -0.834000       15.9994           0
   67734 WT5  852  TIP3 H1   HT     0.417000        1.0080           0
   67735 WT5  852  TIP3 H2   HT     0.417000        1.0080           0
   67736 WT5  854  TIP3 OH2  OT    -0.834000       15.9994           0
   67737 WT5  854  TIP3 H1   HT     0.417000        1.0080           0
   67738 WT5  854  TIP3 H2   HT     0.417000        1.0080           0
   67739 WT5  858  TIP3 OH2  OT    -0.834000       15.9994           0
   67740 WT5  858  TIP3 H1   HT     0.417000        1.0080           0
   67741 WT5  858  TIP3 H2   HT     0.417000        1.0080           0
   67742 WT5  879  TIP3 OH2  OT    -0.834000       15.9994           0
   67743 WT5  879  TIP3 H1   HT     0.417000        1.0080           0
   67744 WT5  879  TIP3 H2   HT     0.417000        1.0080           0
   67745 WT5  881  TIP3 OH2  OT    -0.834000       15.9994           0
   67746 WT5  881  TIP3 H1   HT     0.417000        1.0080           0
   67747 WT5  881  TIP3 H2   HT     0.417000        1.0080           0
   67748 WT5  882  TIP3 OH2  OT    -0.834000       15.9994           0
   67749 WT5  882  TIP3 H1   HT     0.417000        1.0080           0
   67750 WT5  882  TIP3 H2   HT     0.417000        1.0080           0
   67751 WT5  889  TIP3 OH2  OT    -0.834000       15.9994           0
   67752 WT5  889  TIP3 H1   HT     0.417000        1.0080           0
   67753 WT5  889  TIP3 H2   HT     0.417000        1.0080           0
   67754 WT5  903  TIP3 OH2  OT    -0.834000       15.9994           0
   67755 WT5  903  TIP3 H1   HT     0.417000        1.0080           0
   67756 WT5  903  TIP3 H2   HT     0.417000        1.0080           0
   67757 WT5  906  TIP3 OH2  OT    -0.834000       15.9994           0
   67758 WT5  906  TIP3 H1   HT     0.417000        1.0080           0
   67759 WT5  906  TIP3 H2   HT     0.417000        1.0080           0
   67760 WT5  907  TIP3 OH2  OT    -0.834000       15.9994           0
   67761 WT5  907  TIP3 H1   HT     0.417000        1.0080           0
   67762 WT5  907  TIP3 H2   HT     0.417000        1.0080           0
   67763 WT5  912  TIP3 OH2  OT    -0.834000       15.9994           0
   67764 WT5  912  TIP3 H1   HT     0.417000        1.0080           0
   67765 WT5  912  TIP3 H2   HT     0.417000        1.0080           0
   67766 WT5  918  TIP3 OH2  OT    -0.834000       15.9994           0
   67767 WT5  918  TIP3 H1   HT     0.417000        1.0080           0
   67768 WT5  918  TIP3 H2   HT     0.417000        1.0080           0
   67769 WT5  919  TIP3 OH2  OT    -0.834000       15.9994           0
   67770 WT5  919  TIP3 H1   HT     0.417000        1.0080           0
   67771 WT5  919  TIP3 H2   HT     0.417000        1.0080           0
   67772 WT5  928  TIP3 OH2  OT    -0.834000       15.9994           0
   67773 WT5  928  TIP3 H1   HT     0.417000        1.0080           0
   67774 WT5  928  TIP3 H2   HT     0.417000        1.0080           0
   67775 WT5  936  TIP3 OH2  OT    -0.834000       15.9994           0
   67776 WT5  936  TIP3 H1   HT     0.417000        1.0080           0
   67777 WT5  936  TIP3 H2   HT     0.417000        1.0080           0
   67778 WT5  940  TIP3 OH2  OT    -0.834000       15.9994           0
   67779 WT5  940  TIP3 H1   HT     0.417000        1.0080           0
   67780 WT5  940  TIP3 H2   HT     0.417000        1.0080           0
   67781 WT5  946  TIP3 OH2  OT    -0.834000       15.9994           0
   67782 WT5  946  TIP3 H1   HT     0.417000        1.0080           0
   67783 WT5  946  TIP3 H2   HT     0.417000        1.0080           0
   67784 WT5  947  TIP3 OH2  OT    -0.834000       15.9994           0
   67785 WT5  947  TIP3 H1   HT     0.417000        1.0080           0
   67786 WT5  947  TIP3 H2   HT     0.417000        1.0080           0
   67787 WT5  948  TIP3 OH2  OT    -0.834000       15.9994           0
   67788 WT5  948  TIP3 H1   HT     0.417000        1.0080           0
   67789 WT5  948  TIP3 H2   HT     0.417000        1.0080           0
   67790 WT5  949  TIP3 OH2  OT    -0.834000       15.9994           0
   67791 WT5  949  TIP3 H1   HT     0.417000        1.0080           0
   67792 WT5  949  TIP3 H2   HT     0.417000        1.0080           0
   67793 WT5  953  TIP3 OH2  OT    -0.834000       15.9994           0
   67794 WT5  953  TIP3 H1   HT     0.417000        1.0080           0
   67795 WT5  953  TIP3 H2   HT     0.417000        1.0080           0
   67796 WT5  958  TIP3 OH2  OT    -0.834000       15.9994           0
   67797 WT5  958  TIP3 H1   HT     0.417000        1.0080           0
   67798 WT5  958  TIP3 H2   HT     0.417000        1.0080           0
   67799 WT5  963  TIP3 OH2  OT    -0.834000       15.9994           0
   67800 WT5  963  TIP3 H1   HT     0.417000        1.0080           0
   67801 WT5  963  TIP3 H2   HT     0.417000        1.0080           0
   67802 WT5  975  TIP3 OH2  OT    -0.834000       15.9994           0
   67803 WT5  975  TIP3 H1   HT     0.417000        1.0080           0
   67804 WT5  975  TIP3 H2   HT     0.417000        1.0080           0
   67805 WT5  992  TIP3 OH2  OT    -0.834000       15.9994           0
   67806 WT5  992  TIP3 H1   HT     0.417000        1.0080           0
   67807 WT5  992  TIP3 H2   HT     0.417000        1.0080           0
   67808 WT5  993  TIP3 OH2  OT    -0.834000       15.9994           0
   67809 WT5  993  TIP3 H1   HT     0.417000        1.0080           0
   67810 WT5  993  TIP3 H2   HT     0.417000        1.0080           0
   67811 WT5  1272 TIP3 OH2  OT    -0.834000       15.9994           0
   67812 WT5  1272 TIP3 H1   HT     0.417000        1.0080           0
   67813 WT5  1272 TIP3 H2   HT     0.417000        1.0080           0
   67814 WT5  1274 TIP3 OH2  OT    -0.834000       15.9994           0
   67815 WT5  1274 TIP3 H1   HT     0.417000        1.0080           0
   67816 WT5  1274 TIP3 H2   HT     0.417000        1.0080           0
   67817 WT5  1298 TIP3 OH2  OT    -0.834000       15.9994           0
   67818 WT5  1298 TIP3 H1   HT     0.417000        1.0080           0
   67819 WT5  1298 TIP3 H2   HT     0.417000        1.0080           0
   67820 WT5  1301 TIP3 OH2  OT    -0.834000       15.9994           0
   67821 WT5  1301 TIP3 H1   HT     0.417000        1.0080           0
   67822 WT5  1301 TIP3 H2   HT     0.417000        1.0080           0
   67823 WT5  1305 TIP3 OH2  OT    -0.834000       15.9994           0
   67824 WT5  1305 TIP3 H1   HT     0.417000        1.0080           0
   67825 WT5  1305 TIP3 H2   HT     0.417000        1.0080           0
   67826 WT5  1309 TIP3 OH2  OT    -0.834000       15.9994           0
   67827 WT5  1309 TIP3 H1   HT     0.417000        1.0080           0
   67828 WT5  1309 TIP3 H2   HT     0.417000        1.0080           0
   67829 WT5  1310 TIP3 OH2  OT    -0.834000       15.9994           0
   67830 WT5  1310 TIP3 H1   HT     0.417000        1.0080           0
   67831 WT5  1310 TIP3 H2   HT     0.417000        1.0080           0
   67832 WT5  1311 TIP3 OH2  OT    -0.834000       15.9994           0
   67833 WT5  1311 TIP3 H1   HT     0.417000        1.0080           0
   67834 WT5  1311 TIP3 H2   HT     0.417000        1.0080           0
   67835 WT5  1317 TIP3 OH2  OT    -0.834000       15.9994           0
   67836 WT5  1317 TIP3 H1   HT     0.417000        1.0080           0
   67837 WT5  1317 TIP3 H2   HT     0.417000        1.0080           0
   67838 WT5  1322 TIP3 OH2  OT    -0.834000       15.9994           0
   67839 WT5  1322 TIP3 H1   HT     0.417000        1.0080           0
   67840 WT5  1322 TIP3 H2   HT     0.417000        1.0080           0
   67841 WT5  1326 TIP3 OH2  OT    -0.834000       15.9994           0
   67842 WT5  1326 TIP3 H1   HT     0.417000        1.0080           0
   67843 WT5  1326 TIP3 H2   HT     0.417000        1.0080           0
   67844 WT5  1327 TIP3 OH2  OT    -0.834000       15.9994           0
   67845 WT5  1327 TIP3 H1   HT     0.417000        1.0080           0
   67846 WT5  1327 TIP3 H2   HT     0.417000        1.0080           0
   67847 WT5  1328 TIP3 OH2  OT    -0.834000       15.9994           0
   67848 WT5  1328 TIP3 H1   HT     0.417000        1.0080           0
   67849 WT5  1328 TIP3 H2   HT     0.417000        1.0080           0
   67850 WT5  1331 TIP3 OH2  OT    -0.834000       15.9994           0
   67851 WT5  1331 TIP3 H1   HT     0.417000        1.0080           0
   67852 WT5  1331 TIP3 H2   HT     0.417000        1.0080           0
   67853 WT5  1332 TIP3 OH2  OT    -0.834000       15.9994           0
   67854 WT5  1332 TIP3 H1   HT     0.417000        1.0080           0
   67855 WT5  1332 TIP3 H2   HT     0.417000        1.0080           0
   67856 WT5  1339 TIP3 OH2  OT    -0.834000       15.9994           0
   67857 WT5  1339 TIP3 H1   HT     0.417000        1.0080           0
   67858 WT5  1339 TIP3 H2   HT     0.417000        1.0080           0
   67859 WT5  1340 TIP3 OH2  OT    -0.834000       15.9994           0
   67860 WT5  1340 TIP3 H1   HT     0.417000        1.0080           0
   67861 WT5  1340 TIP3 H2   HT     0.417000        1.0080           0
   67862 WT5  1341 TIP3 OH2  OT    -0.834000       15.9994           0
   67863 WT5  1341 TIP3 H1   HT     0.417000        1.0080           0
   67864 WT5  1341 TIP3 H2   HT     0.417000        1.0080           0
   67865 WT5  1362 TIP3 OH2  OT    -0.834000       15.9994           0
   67866 WT5  1362 TIP3 H1   HT     0.417000        1.0080           0
   67867 WT5  1362 TIP3 H2   HT     0.417000        1.0080           0
   67868 WT5  1370 TIP3 OH2  OT    -0.834000       15.9994           0
   67869 WT5  1370 TIP3 H1   HT     0.417000        1.0080           0
   67870 WT5  1370 TIP3 H2   HT     0.417000        1.0080           0
   67871 WT5  1372 TIP3 OH2  OT    -0.834000       15.9994           0
   67872 WT5  1372 TIP3 H1   HT     0.417000        1.0080           0
   67873 WT5  1372 TIP3 H2   HT     0.417000        1.0080           0
   67874 WT5  1379 TIP3 OH2  OT    -0.834000       15.9994           0
   67875 WT5  1379 TIP3 H1   HT     0.417000        1.0080           0
   67876 WT5  1379 TIP3 H2   HT     0.417000        1.0080           0
   67877 WT5  1382 TIP3 OH2  OT    -0.834000       15.9994           0
   67878 WT5  1382 TIP3 H1   HT     0.417000        1.0080           0
   67879 WT5  1382 TIP3 H2   HT     0.417000        1.0080           0
   67880 WT5  1386 TIP3 OH2  OT    -0.834000       15.9994           0
   67881 WT5  1386 TIP3 H1   HT     0.417000        1.0080           0
   67882 WT5  1386 TIP3 H2   HT     0.417000        1.0080           0
   67883 WT5  1398 TIP3 OH2  OT    -0.834000       15.9994           0
   67884 WT5  1398 TIP3 H1   HT     0.417000        1.0080           0
   67885 WT5  1398 TIP3 H2   HT     0.417000        1.0080           0
   67886 WT5  1418 TIP3 OH2  OT    -0.834000       15.9994           0
   67887 WT5  1418 TIP3 H1   HT     0.417000        1.0080           0
   67888 WT5  1418 TIP3 H2   HT     0.417000        1.0080           0
   67889 WT5  1428 TIP3 OH2  OT    -0.834000       15.9994           0
   67890 WT5  1428 TIP3 H1   HT     0.417000        1.0080           0
   67891 WT5  1428 TIP3 H2   HT     0.417000        1.0080           0
   67892 WT5  1437 TIP3 OH2  OT    -0.834000       15.9994           0
   67893 WT5  1437 TIP3 H1   HT     0.417000        1.0080           0
   67894 WT5  1437 TIP3 H2   HT     0.417000        1.0080           0
   67895 WT5  1440 TIP3 OH2  OT    -0.834000       15.9994           0
   67896 WT5  1440 TIP3 H1   HT     0.417000        1.0080           0
   67897 WT5  1440 TIP3 H2   HT     0.417000        1.0080           0
   67898 WT5  1650 TIP3 OH2  OT    -0.834000       15.9994           0
   67899 WT5  1650 TIP3 H1   HT     0.417000        1.0080           0
   67900 WT5  1650 TIP3 H2   HT     0.417000        1.0080           0
   67901 WT5  1692 TIP3 OH2  OT    -0.834000       15.9994           0
   67902 WT5  1692 TIP3 H1   HT     0.417000        1.0080           0
   67903 WT5  1692 TIP3 H2   HT     0.417000        1.0080           0
   67904 WT5  1707 TIP3 OH2  OT    -0.834000       15.9994           0
   67905 WT5  1707 TIP3 H1   HT     0.417000        1.0080           0
   67906 WT5  1707 TIP3 H2   HT     0.417000        1.0080           0
   67907 WT5  1711 TIP3 OH2  OT    -0.834000       15.9994           0
   67908 WT5  1711 TIP3 H1   HT     0.417000        1.0080           0
   67909 WT5  1711 TIP3 H2   HT     0.417000        1.0080           0
   67910 WT5  1715 TIP3 OH2  OT    -0.834000       15.9994           0
   67911 WT5  1715 TIP3 H1   HT     0.417000        1.0080           0
   67912 WT5  1715 TIP3 H2   HT     0.417000        1.0080           0
   67913 WT5  1718 TIP3 OH2  OT    -0.834000       15.9994           0
   67914 WT5  1718 TIP3 H1   HT     0.417000        1.0080           0
   67915 WT5  1718 TIP3 H2   HT     0.417000        1.0080           0
   67916 WT5  1723 TIP3 OH2  OT    -0.834000       15.9994           0
   67917 WT5  1723 TIP3 H1   HT     0.417000        1.0080           0
   67918 WT5  1723 TIP3 H2   HT     0.417000        1.0080           0
   67919 WT5  1725 TIP3 OH2  OT    -0.834000       15.9994           0
   67920 WT5  1725 TIP3 H1   HT     0.417000        1.0080           0
   67921 WT5  1725 TIP3 H2   HT     0.417000        1.0080           0
   67922 WT5  1730 TIP3 OH2  OT    -0.834000       15.9994           0
   67923 WT5  1730 TIP3 H1   HT     0.417000        1.0080           0
   67924 WT5  1730 TIP3 H2   HT     0.417000        1.0080           0
   67925 WT5  1733 TIP3 OH2  OT    -0.834000       15.9994           0
   67926 WT5  1733 TIP3 H1   HT     0.417000        1.0080           0
   67927 WT5  1733 TIP3 H2   HT     0.417000        1.0080           0
   67928 WT5  1740 TIP3 OH2  OT    -0.834000       15.9994           0
   67929 WT5  1740 TIP3 H1   HT     0.417000        1.0080           0
   67930 WT5  1740 TIP3 H2   HT     0.417000        1.0080           0
   67931 WT5  1744 TIP3 OH2  OT    -0.834000       15.9994           0
   67932 WT5  1744 TIP3 H1   HT     0.417000        1.0080           0
   67933 WT5  1744 TIP3 H2   HT     0.417000        1.0080           0
   67934 WT5  1755 TIP3 OH2  OT    -0.834000       15.9994           0
   67935 WT5  1755 TIP3 H1   HT     0.417000        1.0080           0
   67936 WT5  1755 TIP3 H2   HT     0.417000        1.0080           0
   67937 WT5  1756 TIP3 OH2  OT    -0.834000       15.9994           0
   67938 WT5  1756 TIP3 H1   HT     0.417000        1.0080           0
   67939 WT5  1756 TIP3 H2   HT     0.417000        1.0080           0
   67940 WT5  1764 TIP3 OH2  OT    -0.834000       15.9994           0
   67941 WT5  1764 TIP3 H1   HT     0.417000        1.0080           0
   67942 WT5  1764 TIP3 H2   HT     0.417000        1.0080           0
   67943 WT5  1772 TIP3 OH2  OT    -0.834000       15.9994           0
   67944 WT5  1772 TIP3 H1   HT     0.417000        1.0080           0
   67945 WT5  1772 TIP3 H2   HT     0.417000        1.0080           0
   67946 WT5  1773 TIP3 OH2  OT    -0.834000       15.9994           0
   67947 WT5  1773 TIP3 H1   HT     0.417000        1.0080           0
   67948 WT5  1773 TIP3 H2   HT     0.417000        1.0080           0
   67949 WT5  1775 TIP3 OH2  OT    -0.834000       15.9994           0
   67950 WT5  1775 TIP3 H1   HT     0.417000        1.0080           0
   67951 WT5  1775 TIP3 H2   HT     0.417000        1.0080           0
   67952 WT5  1776 TIP3 OH2  OT    -0.834000       15.9994           0
   67953 WT5  1776 TIP3 H1   HT     0.417000        1.0080           0
   67954 WT5  1776 TIP3 H2   HT     0.417000        1.0080           0
   67955 WT5  1778 TIP3 OH2  OT    -0.834000       15.9994           0
   67956 WT5  1778 TIP3 H1   HT     0.417000        1.0080           0
   67957 WT5  1778 TIP3 H2   HT     0.417000        1.0080           0
   67958 WT5  1782 TIP3 OH2  OT    -0.834000       15.9994           0
   67959 WT5  1782 TIP3 H1   HT     0.417000        1.0080           0
   67960 WT5  1782 TIP3 H2   HT     0.417000        1.0080           0
   67961 WT5  1794 TIP3 OH2  OT    -0.834000       15.9994           0
   67962 WT5  1794 TIP3 H1   HT     0.417000        1.0080           0
   67963 WT5  1794 TIP3 H2   HT     0.417000        1.0080           0
   67964 WT5  1795 TIP3 OH2  OT    -0.834000       15.9994           0
   67965 WT5  1795 TIP3 H1   HT     0.417000        1.0080           0
   67966 WT5  1795 TIP3 H2   HT     0.417000        1.0080           0
   67967 WT5  1796 TIP3 OH2  OT    -0.834000       15.9994           0
   67968 WT5  1796 TIP3 H1   HT     0.417000        1.0080           0
   67969 WT5  1796 TIP3 H2   HT     0.417000        1.0080           0
   67970 WT5  1802 TIP3 OH2  OT    -0.834000       15.9994           0
   67971 WT5  1802 TIP3 H1   HT     0.417000        1.0080           0
   67972 WT5  1802 TIP3 H2   HT     0.417000        1.0080           0
   67973 WT5  1811 TIP3 OH2  OT    -0.834000       15.9994           0
   67974 WT5  1811 TIP3 H1   HT     0.417000        1.0080           0
   67975 WT5  1811 TIP3 H2   HT     0.417000        1.0080           0
   67976 WT5  1818 TIP3 OH2  OT    -0.834000       15.9994           0
   67977 WT5  1818 TIP3 H1   HT     0.417000        1.0080           0
   67978 WT5  1818 TIP3 H2   HT     0.417000        1.0080           0
   67979 WT5  1820 TIP3 OH2  OT    -0.834000       15.9994           0
   67980 WT5  1820 TIP3 H1   HT     0.417000        1.0080           0
   67981 WT5  1820 TIP3 H2   HT     0.417000        1.0080           0
   67982 WT5  1824 TIP3 OH2  OT    -0.834000       15.9994           0
   67983 WT5  1824 TIP3 H1   HT     0.417000        1.0080           0
   67984 WT5  1824 TIP3 H2   HT     0.417000        1.0080           0
   67985 WT5  1827 TIP3 OH2  OT    -0.834000       15.9994           0
   67986 WT5  1827 TIP3 H1   HT     0.417000        1.0080           0
   67987 WT5  1827 TIP3 H2   HT     0.417000        1.0080           0
   67988 WT5  1831 TIP3 OH2  OT    -0.834000       15.9994           0
   67989 WT5  1831 TIP3 H1   HT     0.417000        1.0080           0
   67990 WT5  1831 TIP3 H2   HT     0.417000        1.0080           0
   67991 WT5  1845 TIP3 OH2  OT    -0.834000       15.9994           0
   67992 WT5  1845 TIP3 H1   HT     0.417000        1.0080           0
   67993 WT5  1845 TIP3 H2   HT     0.417000        1.0080           0
   67994 WT5  1862 TIP3 OH2  OT    -0.834000       15.9994           0
   67995 WT5  1862 TIP3 H1   HT     0.417000        1.0080           0
   67996 WT5  1862 TIP3 H2   HT     0.417000        1.0080           0
   67997 WT5  1863 TIP3 OH2  OT    -0.834000       15.9994           0
   67998 WT5  1863 TIP3 H1   HT     0.417000        1.0080           0
   67999 WT5  1863 TIP3 H2   HT     0.417000        1.0080           0
   68000 WT5  1888 TIP3 OH2  OT    -0.834000       15.9994           0
   68001 WT5  1888 TIP3 H1   HT     0.417000        1.0080           0
   68002 WT5  1888 TIP3 H2   HT     0.417000        1.0080           0
   68003 WT5  1938 TIP3 OH2  OT    -0.834000       15.9994           0
   68004 WT5  1938 TIP3 H1   HT     0.417000        1.0080           0
   68005 WT5  1938 TIP3 H2   HT     0.417000        1.0080           0
   68006 WT5  2123 TIP3 OH2  OT    -0.834000       15.9994           0
   68007 WT5  2123 TIP3 H1   HT     0.417000        1.0080           0
   68008 WT5  2123 TIP3 H2   HT     0.417000        1.0080           0
   68009 WT5  2133 TIP3 OH2  OT    -0.834000       15.9994           0
   68010 WT5  2133 TIP3 H1   HT     0.417000        1.0080           0
   68011 WT5  2133 TIP3 H2   HT     0.417000        1.0080           0
   68012 WT5  2145 TIP3 OH2  OT    -0.834000       15.9994           0
   68013 WT5  2145 TIP3 H1   HT     0.417000        1.0080           0
   68014 WT5  2145 TIP3 H2   HT     0.417000        1.0080           0
   68015 WT5  2151 TIP3 OH2  OT    -0.834000       15.9994           0
   68016 WT5  2151 TIP3 H1   HT     0.417000        1.0080           0
   68017 WT5  2151 TIP3 H2   HT     0.417000        1.0080           0
   68018 WT5  2165 TIP3 OH2  OT    -0.834000       15.9994           0
   68019 WT5  2165 TIP3 H1   HT     0.417000        1.0080           0
   68020 WT5  2165 TIP3 H2   HT     0.417000        1.0080           0
   68021 WT5  2167 TIP3 OH2  OT    -0.834000       15.9994           0
   68022 WT5  2167 TIP3 H1   HT     0.417000        1.0080           0
   68023 WT5  2167 TIP3 H2   HT     0.417000        1.0080           0
   68024 WT5  2172 TIP3 OH2  OT    -0.834000       15.9994           0
   68025 WT5  2172 TIP3 H1   HT     0.417000        1.0080           0
   68026 WT5  2172 TIP3 H2   HT     0.417000        1.0080           0
   68027 WT5  2180 TIP3 OH2  OT    -0.834000       15.9994           0
   68028 WT5  2180 TIP3 H1   HT     0.417000        1.0080           0
   68029 WT5  2180 TIP3 H2   HT     0.417000        1.0080           0
   68030 WT5  2185 TIP3 OH2  OT    -0.834000       15.9994           0
   68031 WT5  2185 TIP3 H1   HT     0.417000        1.0080           0
   68032 WT5  2185 TIP3 H2   HT     0.417000        1.0080           0
   68033 WT5  2186 TIP3 OH2  OT    -0.834000       15.9994           0
   68034 WT5  2186 TIP3 H1   HT     0.417000        1.0080           0
   68035 WT5  2186 TIP3 H2   HT     0.417000        1.0080           0
   68036 WT5  2187 TIP3 OH2  OT    -0.834000       15.9994           0
   68037 WT5  2187 TIP3 H1   HT     0.417000        1.0080           0
   68038 WT5  2187 TIP3 H2   HT     0.417000        1.0080           0
   68039 WT5  2198 TIP3 OH2  OT    -0.834000       15.9994           0
   68040 WT5  2198 TIP3 H1   HT     0.417000        1.0080           0
   68041 WT5  2198 TIP3 H2   HT     0.417000        1.0080           0
   68042 WT5  2211 TIP3 OH2  OT    -0.834000       15.9994           0
   68043 WT5  2211 TIP3 H1   HT     0.417000        1.0080           0
   68044 WT5  2211 TIP3 H2   HT     0.417000        1.0080           0
   68045 WT5  2227 TIP3 OH2  OT    -0.834000       15.9994           0
   68046 WT5  2227 TIP3 H1   HT     0.417000        1.0080           0
   68047 WT5  2227 TIP3 H2   HT     0.417000        1.0080           0
   68048 WT5  2231 TIP3 OH2  OT    -0.834000       15.9994           0
   68049 WT5  2231 TIP3 H1   HT     0.417000        1.0080           0
   68050 WT5  2231 TIP3 H2   HT     0.417000        1.0080           0
   68051 WT5  2237 TIP3 OH2  OT    -0.834000       15.9994           0
   68052 WT5  2237 TIP3 H1   HT     0.417000        1.0080           0
   68053 WT5  2237 TIP3 H2   HT     0.417000        1.0080           0
   68054 WT5  2240 TIP3 OH2  OT    -0.834000       15.9994           0
   68055 WT5  2240 TIP3 H1   HT     0.417000        1.0080           0
   68056 WT5  2240 TIP3 H2   HT     0.417000        1.0080           0
   68057 WT5  2246 TIP3 OH2  OT    -0.834000       15.9994           0
   68058 WT5  2246 TIP3 H1   HT     0.417000        1.0080           0
   68059 WT5  2246 TIP3 H2   HT     0.417000        1.0080           0
   68060 WT5  2248 TIP3 OH2  OT    -0.834000       15.9994           0
   68061 WT5  2248 TIP3 H1   HT     0.417000        1.0080           0
   68062 WT5  2248 TIP3 H2   HT     0.417000        1.0080           0
   68063 WT5  2250 TIP3 OH2  OT    -0.834000       15.9994           0
   68064 WT5  2250 TIP3 H1   HT     0.417000        1.0080           0
   68065 WT5  2250 TIP3 H2   HT     0.417000        1.0080           0
   68066 WT5  2257 TIP3 OH2  OT    -0.834000       15.9994           0
   68067 WT5  2257 TIP3 H1   HT     0.417000        1.0080           0
   68068 WT5  2257 TIP3 H2   HT     0.417000        1.0080           0
   68069 WT5  2258 TIP3 OH2  OT    -0.834000       15.9994           0
   68070 WT5  2258 TIP3 H1   HT     0.417000        1.0080           0
   68071 WT5  2258 TIP3 H2   HT     0.417000        1.0080           0
   68072 WT5  2263 TIP3 OH2  OT    -0.834000       15.9994           0
   68073 WT5  2263 TIP3 H1   HT     0.417000        1.0080           0
   68074 WT5  2263 TIP3 H2   HT     0.417000        1.0080           0
   68075 WT5  2268 TIP3 OH2  OT    -0.834000       15.9994           0
   68076 WT5  2268 TIP3 H1   HT     0.417000        1.0080           0
   68077 WT5  2268 TIP3 H2   HT     0.417000        1.0080           0
   68078 WT5  2272 TIP3 OH2  OT    -0.834000       15.9994           0
   68079 WT5  2272 TIP3 H1   HT     0.417000        1.0080           0
   68080 WT5  2272 TIP3 H2   HT     0.417000        1.0080           0
   68081 WT5  2280 TIP3 OH2  OT    -0.834000       15.9994           0
   68082 WT5  2280 TIP3 H1   HT     0.417000        1.0080           0
   68083 WT5  2280 TIP3 H2   HT     0.417000        1.0080           0
   68084 WT5  2289 TIP3 OH2  OT    -0.834000       15.9994           0
   68085 WT5  2289 TIP3 H1   HT     0.417000        1.0080           0
   68086 WT5  2289 TIP3 H2   HT     0.417000        1.0080           0
   68087 WT5  2292 TIP3 OH2  OT    -0.834000       15.9994           0
   68088 WT5  2292 TIP3 H1   HT     0.417000        1.0080           0
   68089 WT5  2292 TIP3 H2   HT     0.417000        1.0080           0
   68090 WT5  2295 TIP3 OH2  OT    -0.834000       15.9994           0
   68091 WT5  2295 TIP3 H1   HT     0.417000        1.0080           0
   68092 WT5  2295 TIP3 H2   HT     0.417000        1.0080           0
   68093 WT5  2298 TIP3 OH2  OT    -0.834000       15.9994           0
   68094 WT5  2298 TIP3 H1   HT     0.417000        1.0080           0
   68095 WT5  2298 TIP3 H2   HT     0.417000        1.0080           0
   68096 WT5  2304 TIP3 OH2  OT    -0.834000       15.9994           0
   68097 WT5  2304 TIP3 H1   HT     0.417000        1.0080           0
   68098 WT5  2304 TIP3 H2   HT     0.417000        1.0080           0
   68099 WT5  2305 TIP3 OH2  OT    -0.834000       15.9994           0
   68100 WT5  2305 TIP3 H1   HT     0.417000        1.0080           0
   68101 WT5  2305 TIP3 H2   HT     0.417000        1.0080           0
   68102 WT5  2316 TIP3 OH2  OT    -0.834000       15.9994           0
   68103 WT5  2316 TIP3 H1   HT     0.417000        1.0080           0
   68104 WT5  2316 TIP3 H2   HT     0.417000        1.0080           0
   68105 WT5  2334 TIP3 OH2  OT    -0.834000       15.9994           0
   68106 WT5  2334 TIP3 H1   HT     0.417000        1.0080           0
   68107 WT5  2334 TIP3 H2   HT     0.417000        1.0080           0
   68108 WT5  2362 TIP3 OH2  OT    -0.834000       15.9994           0
   68109 WT5  2362 TIP3 H1   HT     0.417000        1.0080           0
   68110 WT5  2362 TIP3 H2   HT     0.417000        1.0080           0
   68111 WT5  2561 TIP3 OH2  OT    -0.834000       15.9994           0
   68112 WT5  2561 TIP3 H1   HT     0.417000        1.0080           0
   68113 WT5  2561 TIP3 H2   HT     0.417000        1.0080           0
   68114 WT5  2590 TIP3 OH2  OT    -0.834000       15.9994           0
   68115 WT5  2590 TIP3 H1   HT     0.417000        1.0080           0
   68116 WT5  2590 TIP3 H2   HT     0.417000        1.0080           0
   68117 WT5  2606 TIP3 OH2  OT    -0.834000       15.9994           0
   68118 WT5  2606 TIP3 H1   HT     0.417000        1.0080           0
   68119 WT5  2606 TIP3 H2   HT     0.417000        1.0080           0
   68120 WT5  2608 TIP3 OH2  OT    -0.834000       15.9994           0
   68121 WT5  2608 TIP3 H1   HT     0.417000        1.0080           0
   68122 WT5  2608 TIP3 H2   HT     0.417000        1.0080           0
   68123 WT5  2610 TIP3 OH2  OT    -0.834000       15.9994           0
   68124 WT5  2610 TIP3 H1   HT     0.417000        1.0080           0
   68125 WT5  2610 TIP3 H2   HT     0.417000        1.0080           0
   68126 WT5  2617 TIP3 OH2  OT    -0.834000       15.9994           0
   68127 WT5  2617 TIP3 H1   HT     0.417000        1.0080           0
   68128 WT5  2617 TIP3 H2   HT     0.417000        1.0080           0
   68129 WT5  2624 TIP3 OH2  OT    -0.834000       15.9994           0
   68130 WT5  2624 TIP3 H1   HT     0.417000        1.0080           0
   68131 WT5  2624 TIP3 H2   HT     0.417000        1.0080           0
   68132 WT5  2629 TIP3 OH2  OT    -0.834000       15.9994           0
   68133 WT5  2629 TIP3 H1   HT     0.417000        1.0080           0
   68134 WT5  2629 TIP3 H2   HT     0.417000        1.0080           0
   68135 WT5  2634 TIP3 OH2  OT    -0.834000       15.9994           0
   68136 WT5  2634 TIP3 H1   HT     0.417000        1.0080           0
   68137 WT5  2634 TIP3 H2   HT     0.417000        1.0080           0
   68138 WT5  2635 TIP3 OH2  OT    -0.834000       15.9994           0
   68139 WT5  2635 TIP3 H1   HT     0.417000        1.0080           0
   68140 WT5  2635 TIP3 H2   HT     0.417000        1.0080           0
   68141 WT5  2638 TIP3 OH2  OT    -0.834000       15.9994           0
   68142 WT5  2638 TIP3 H1   HT     0.417000        1.0080           0
   68143 WT5  2638 TIP3 H2   HT     0.417000        1.0080           0
   68144 WT5  2641 TIP3 OH2  OT    -0.834000       15.9994           0
   68145 WT5  2641 TIP3 H1   HT     0.417000        1.0080           0
   68146 WT5  2641 TIP3 H2   HT     0.417000        1.0080           0
   68147 WT5  2643 TIP3 OH2  OT    -0.834000       15.9994           0
   68148 WT5  2643 TIP3 H1   HT     0.417000        1.0080           0
   68149 WT5  2643 TIP3 H2   HT     0.417000        1.0080           0
   68150 WT5  2650 TIP3 OH2  OT    -0.834000       15.9994           0
   68151 WT5  2650 TIP3 H1   HT     0.417000        1.0080           0
   68152 WT5  2650 TIP3 H2   HT     0.417000        1.0080           0
   68153 WT5  2652 TIP3 OH2  OT    -0.834000       15.9994           0
   68154 WT5  2652 TIP3 H1   HT     0.417000        1.0080           0
   68155 WT5  2652 TIP3 H2   HT     0.417000        1.0080           0
   68156 WT5  2657 TIP3 OH2  OT    -0.834000       15.9994           0
   68157 WT5  2657 TIP3 H1   HT     0.417000        1.0080           0
   68158 WT5  2657 TIP3 H2   HT     0.417000        1.0080           0
   68159 WT5  2660 TIP3 OH2  OT    -0.834000       15.9994           0
   68160 WT5  2660 TIP3 H1   HT     0.417000        1.0080           0
   68161 WT5  2660 TIP3 H2   HT     0.417000        1.0080           0
   68162 WT5  2661 TIP3 OH2  OT    -0.834000       15.9994           0
   68163 WT5  2661 TIP3 H1   HT     0.417000        1.0080           0
   68164 WT5  2661 TIP3 H2   HT     0.417000        1.0080           0
   68165 WT5  2662 TIP3 OH2  OT    -0.834000       15.9994           0
   68166 WT5  2662 TIP3 H1   HT     0.417000        1.0080           0
   68167 WT5  2662 TIP3 H2   HT     0.417000        1.0080           0
   68168 WT5  2666 TIP3 OH2  OT    -0.834000       15.9994           0
   68169 WT5  2666 TIP3 H1   HT     0.417000        1.0080           0
   68170 WT5  2666 TIP3 H2   HT     0.417000        1.0080           0
   68171 WT5  2667 TIP3 OH2  OT    -0.834000       15.9994           0
   68172 WT5  2667 TIP3 H1   HT     0.417000        1.0080           0
   68173 WT5  2667 TIP3 H2   HT     0.417000        1.0080           0
   68174 WT5  2673 TIP3 OH2  OT    -0.834000       15.9994           0
   68175 WT5  2673 TIP3 H1   HT     0.417000        1.0080           0
   68176 WT5  2673 TIP3 H2   HT     0.417000        1.0080           0
   68177 WT5  2674 TIP3 OH2  OT    -0.834000       15.9994           0
   68178 WT5  2674 TIP3 H1   HT     0.417000        1.0080           0
   68179 WT5  2674 TIP3 H2   HT     0.417000        1.0080           0
   68180 WT5  2675 TIP3 OH2  OT    -0.834000       15.9994           0
   68181 WT5  2675 TIP3 H1   HT     0.417000        1.0080           0
   68182 WT5  2675 TIP3 H2   HT     0.417000        1.0080           0
   68183 WT5  2676 TIP3 OH2  OT    -0.834000       15.9994           0
   68184 WT5  2676 TIP3 H1   HT     0.417000        1.0080           0
   68185 WT5  2676 TIP3 H2   HT     0.417000        1.0080           0
   68186 WT5  2683 TIP3 OH2  OT    -0.834000       15.9994           0
   68187 WT5  2683 TIP3 H1   HT     0.417000        1.0080           0
   68188 WT5  2683 TIP3 H2   HT     0.417000        1.0080           0
   68189 WT5  2684 TIP3 OH2  OT    -0.834000       15.9994           0
   68190 WT5  2684 TIP3 H1   HT     0.417000        1.0080           0
   68191 WT5  2684 TIP3 H2   HT     0.417000        1.0080           0
   68192 WT5  2689 TIP3 OH2  OT    -0.834000       15.9994           0
   68193 WT5  2689 TIP3 H1   HT     0.417000        1.0080           0
   68194 WT5  2689 TIP3 H2   HT     0.417000        1.0080           0
   68195 WT5  2691 TIP3 OH2  OT    -0.834000       15.9994           0
   68196 WT5  2691 TIP3 H1   HT     0.417000        1.0080           0
   68197 WT5  2691 TIP3 H2   HT     0.417000        1.0080           0
   68198 WT5  2693 TIP3 OH2  OT    -0.834000       15.9994           0
   68199 WT5  2693 TIP3 H1   HT     0.417000        1.0080           0
   68200 WT5  2693 TIP3 H2   HT     0.417000        1.0080           0
   68201 WT5  2694 TIP3 OH2  OT    -0.834000       15.9994           0
   68202 WT5  2694 TIP3 H1   HT     0.417000        1.0080           0
   68203 WT5  2694 TIP3 H2   HT     0.417000        1.0080           0
   68204 WT5  2696 TIP3 OH2  OT    -0.834000       15.9994           0
   68205 WT5  2696 TIP3 H1   HT     0.417000        1.0080           0
   68206 WT5  2696 TIP3 H2   HT     0.417000        1.0080           0
   68207 WT5  2702 TIP3 OH2  OT    -0.834000       15.9994           0
   68208 WT5  2702 TIP3 H1   HT     0.417000        1.0080           0
   68209 WT5  2702 TIP3 H2   HT     0.417000        1.0080           0
   68210 WT5  2705 TIP3 OH2  OT    -0.834000       15.9994           0
   68211 WT5  2705 TIP3 H1   HT     0.417000        1.0080           0
   68212 WT5  2705 TIP3 H2   HT     0.417000        1.0080           0
   68213 WT5  2708 TIP3 OH2  OT    -0.834000       15.9994           0
   68214 WT5  2708 TIP3 H1   HT     0.417000        1.0080           0
   68215 WT5  2708 TIP3 H2   HT     0.417000        1.0080           0
   68216 WT5  2711 TIP3 OH2  OT    -0.834000       15.9994           0
   68217 WT5  2711 TIP3 H1   HT     0.417000        1.0080           0
   68218 WT5  2711 TIP3 H2   HT     0.417000        1.0080           0
   68219 WT5  2722 TIP3 OH2  OT    -0.834000       15.9994           0
   68220 WT5  2722 TIP3 H1   HT     0.417000        1.0080           0
   68221 WT5  2722 TIP3 H2   HT     0.417000        1.0080           0
   68222 WT5  2729 TIP3 OH2  OT    -0.834000       15.9994           0
   68223 WT5  2729 TIP3 H1   HT     0.417000        1.0080           0
   68224 WT5  2729 TIP3 H2   HT     0.417000        1.0080           0
   68225 WT5  2748 TIP3 OH2  OT    -0.834000       15.9994           0
   68226 WT5  2748 TIP3 H1   HT     0.417000        1.0080           0
   68227 WT5  2748 TIP3 H2   HT     0.417000        1.0080           0
   68228 WT5  2751 TIP3 OH2  OT    -0.834000       15.9994           0
   68229 WT5  2751 TIP3 H1   HT     0.417000        1.0080           0
   68230 WT5  2751 TIP3 H2   HT     0.417000        1.0080           0
   68231 WT5  2764 TIP3 OH2  OT    -0.834000       15.9994           0
   68232 WT5  2764 TIP3 H1   HT     0.417000        1.0080           0
   68233 WT5  2764 TIP3 H2   HT     0.417000        1.0080           0
   68234 WT5  2766 TIP3 OH2  OT    -0.834000       15.9994           0
   68235 WT5  2766 TIP3 H1   HT     0.417000        1.0080           0
   68236 WT5  2766 TIP3 H2   HT     0.417000        1.0080           0
   68237 WT5  3005 TIP3 OH2  OT    -0.834000       15.9994           0
   68238 WT5  3005 TIP3 H1   HT     0.417000        1.0080           0
   68239 WT5  3005 TIP3 H2   HT     0.417000        1.0080           0
   68240 WT5  3012 TIP3 OH2  OT    -0.834000       15.9994           0
   68241 WT5  3012 TIP3 H1   HT     0.417000        1.0080           0
   68242 WT5  3012 TIP3 H2   HT     0.417000        1.0080           0
   68243 WT5  3033 TIP3 OH2  OT    -0.834000       15.9994           0
   68244 WT5  3033 TIP3 H1   HT     0.417000        1.0080           0
   68245 WT5  3033 TIP3 H2   HT     0.417000        1.0080           0
   68246 WT5  3036 TIP3 OH2  OT    -0.834000       15.9994           0
   68247 WT5  3036 TIP3 H1   HT     0.417000        1.0080           0
   68248 WT5  3036 TIP3 H2   HT     0.417000        1.0080           0
   68249 WT5  3049 TIP3 OH2  OT    -0.834000       15.9994           0
   68250 WT5  3049 TIP3 H1   HT     0.417000        1.0080           0
   68251 WT5  3049 TIP3 H2   HT     0.417000        1.0080           0
   68252 WT5  3050 TIP3 OH2  OT    -0.834000       15.9994           0
   68253 WT5  3050 TIP3 H1   HT     0.417000        1.0080           0
   68254 WT5  3050 TIP3 H2   HT     0.417000        1.0080           0
   68255 WT5  3053 TIP3 OH2  OT    -0.834000       15.9994           0
   68256 WT5  3053 TIP3 H1   HT     0.417000        1.0080           0
   68257 WT5  3053 TIP3 H2   HT     0.417000        1.0080           0
   68258 WT5  3057 TIP3 OH2  OT    -0.834000       15.9994           0
   68259 WT5  3057 TIP3 H1   HT     0.417000        1.0080           0
   68260 WT5  3057 TIP3 H2   HT     0.417000        1.0080           0
   68261 WT5  3066 TIP3 OH2  OT    -0.834000       15.9994           0
   68262 WT5  3066 TIP3 H1   HT     0.417000        1.0080           0
   68263 WT5  3066 TIP3 H2   HT     0.417000        1.0080           0
   68264 WT5  3068 TIP3 OH2  OT    -0.834000       15.9994           0
   68265 WT5  3068 TIP3 H1   HT     0.417000        1.0080           0
   68266 WT5  3068 TIP3 H2   HT     0.417000        1.0080           0
   68267 WT5  3072 TIP3 OH2  OT    -0.834000       15.9994           0
   68268 WT5  3072 TIP3 H1   HT     0.417000        1.0080           0
   68269 WT5  3072 TIP3 H2   HT     0.417000        1.0080           0
   68270 WT5  3073 TIP3 OH2  OT    -0.834000       15.9994           0
   68271 WT5  3073 TIP3 H1   HT     0.417000        1.0080           0
   68272 WT5  3073 TIP3 H2   HT     0.417000        1.0080           0
   68273 WT5  3075 TIP3 OH2  OT    -0.834000       15.9994           0
   68274 WT5  3075 TIP3 H1   HT     0.417000        1.0080           0
   68275 WT5  3075 TIP3 H2   HT     0.417000        1.0080           0
   68276 WT5  3084 TIP3 OH2  OT    -0.834000       15.9994           0
   68277 WT5  3084 TIP3 H1   HT     0.417000        1.0080           0
   68278 WT5  3084 TIP3 H2   HT     0.417000        1.0080           0
   68279 WT5  3085 TIP3 OH2  OT    -0.834000       15.9994           0
   68280 WT5  3085 TIP3 H1   HT     0.417000        1.0080           0
   68281 WT5  3085 TIP3 H2   HT     0.417000        1.0080           0
   68282 WT5  3086 TIP3 OH2  OT    -0.834000       15.9994           0
   68283 WT5  3086 TIP3 H1   HT     0.417000        1.0080           0
   68284 WT5  3086 TIP3 H2   HT     0.417000        1.0080           0
   68285 WT5  3090 TIP3 OH2  OT    -0.834000       15.9994           0
   68286 WT5  3090 TIP3 H1   HT     0.417000        1.0080           0
   68287 WT5  3090 TIP3 H2   HT     0.417000        1.0080           0
   68288 WT5  3096 TIP3 OH2  OT    -0.834000       15.9994           0
   68289 WT5  3096 TIP3 H1   HT     0.417000        1.0080           0
   68290 WT5  3096 TIP3 H2   HT     0.417000        1.0080           0
   68291 WT5  3097 TIP3 OH2  OT    -0.834000       15.9994           0
   68292 WT5  3097 TIP3 H1   HT     0.417000        1.0080           0
   68293 WT5  3097 TIP3 H2   HT     0.417000        1.0080           0
   68294 WT5  3099 TIP3 OH2  OT    -0.834000       15.9994           0
   68295 WT5  3099 TIP3 H1   HT     0.417000        1.0080           0
   68296 WT5  3099 TIP3 H2   HT     0.417000        1.0080           0
   68297 WT5  3101 TIP3 OH2  OT    -0.834000       15.9994           0
   68298 WT5  3101 TIP3 H1   HT     0.417000        1.0080           0
   68299 WT5  3101 TIP3 H2   HT     0.417000        1.0080           0
   68300 WT5  3103 TIP3 OH2  OT    -0.834000       15.9994           0
   68301 WT5  3103 TIP3 H1   HT     0.417000        1.0080           0
   68302 WT5  3103 TIP3 H2   HT     0.417000        1.0080           0
   68303 WT5  3106 TIP3 OH2  OT    -0.834000       15.9994           0
   68304 WT5  3106 TIP3 H1   HT     0.417000        1.0080           0
   68305 WT5  3106 TIP3 H2   HT     0.417000        1.0080           0
   68306 WT5  3108 TIP3 OH2  OT    -0.834000       15.9994           0
   68307 WT5  3108 TIP3 H1   HT     0.417000        1.0080           0
   68308 WT5  3108 TIP3 H2   HT     0.417000        1.0080           0
   68309 WT5  3117 TIP3 OH2  OT    -0.834000       15.9994           0
   68310 WT5  3117 TIP3 H1   HT     0.417000        1.0080           0
   68311 WT5  3117 TIP3 H2   HT     0.417000        1.0080           0
   68312 WT5  3119 TIP3 OH2  OT    -0.834000       15.9994           0
   68313 WT5  3119 TIP3 H1   HT     0.417000        1.0080           0
   68314 WT5  3119 TIP3 H2   HT     0.417000        1.0080           0
   68315 WT5  3121 TIP3 OH2  OT    -0.834000       15.9994           0
   68316 WT5  3121 TIP3 H1   HT     0.417000        1.0080           0
   68317 WT5  3121 TIP3 H2   HT     0.417000        1.0080           0
   68318 WT5  3124 TIP3 OH2  OT    -0.834000       15.9994           0
   68319 WT5  3124 TIP3 H1   HT     0.417000        1.0080           0
   68320 WT5  3124 TIP3 H2   HT     0.417000        1.0080           0
   68321 WT5  3125 TIP3 OH2  OT    -0.834000       15.9994           0
   68322 WT5  3125 TIP3 H1   HT     0.417000        1.0080           0
   68323 WT5  3125 TIP3 H2   HT     0.417000        1.0080           0
   68324 WT5  3130 TIP3 OH2  OT    -0.834000       15.9994           0
   68325 WT5  3130 TIP3 H1   HT     0.417000        1.0080           0
   68326 WT5  3130 TIP3 H2   HT     0.417000        1.0080           0
   68327 WT5  3136 TIP3 OH2  OT    -0.834000       15.9994           0
   68328 WT5  3136 TIP3 H1   HT     0.417000        1.0080           0
   68329 WT5  3136 TIP3 H2   HT     0.417000        1.0080           0
   68330 WT5  3139 TIP3 OH2  OT    -0.834000       15.9994           0
   68331 WT5  3139 TIP3 H1   HT     0.417000        1.0080           0
   68332 WT5  3139 TIP3 H2   HT     0.417000        1.0080           0
   68333 WT5  3140 TIP3 OH2  OT    -0.834000       15.9994           0
   68334 WT5  3140 TIP3 H1   HT     0.417000        1.0080           0
   68335 WT5  3140 TIP3 H2   HT     0.417000        1.0080           0
   68336 WT5  3141 TIP3 OH2  OT    -0.834000       15.9994           0
   68337 WT5  3141 TIP3 H1   HT     0.417000        1.0080           0
   68338 WT5  3141 TIP3 H2   HT     0.417000        1.0080           0
   68339 WT5  3142 TIP3 OH2  OT    -0.834000       15.9994           0
   68340 WT5  3142 TIP3 H1   HT     0.417000        1.0080           0
   68341 WT5  3142 TIP3 H2   HT     0.417000        1.0080           0
   68342 WT5  3143 TIP3 OH2  OT    -0.834000       15.9994           0
   68343 WT5  3143 TIP3 H1   HT     0.417000        1.0080           0
   68344 WT5  3143 TIP3 H2   HT     0.417000        1.0080           0
   68345 WT5  3145 TIP3 OH2  OT    -0.834000       15.9994           0
   68346 WT5  3145 TIP3 H1   HT     0.417000        1.0080           0
   68347 WT5  3145 TIP3 H2   HT     0.417000        1.0080           0
   68348 WT5  3148 TIP3 OH2  OT    -0.834000       15.9994           0
   68349 WT5  3148 TIP3 H1   HT     0.417000        1.0080           0
   68350 WT5  3148 TIP3 H2   HT     0.417000        1.0080           0
   68351 WT5  3149 TIP3 OH2  OT    -0.834000       15.9994           0
   68352 WT5  3149 TIP3 H1   HT     0.417000        1.0080           0
   68353 WT5  3149 TIP3 H2   HT     0.417000        1.0080           0
   68354 WT5  3152 TIP3 OH2  OT    -0.834000       15.9994           0
   68355 WT5  3152 TIP3 H1   HT     0.417000        1.0080           0
   68356 WT5  3152 TIP3 H2   HT     0.417000        1.0080           0
   68357 WT5  3163 TIP3 OH2  OT    -0.834000       15.9994           0
   68358 WT5  3163 TIP3 H1   HT     0.417000        1.0080           0
   68359 WT5  3163 TIP3 H2   HT     0.417000        1.0080           0
   68360 WT5  3171 TIP3 OH2  OT    -0.834000       15.9994           0
   68361 WT5  3171 TIP3 H1   HT     0.417000        1.0080           0
   68362 WT5  3171 TIP3 H2   HT     0.417000        1.0080           0
   68363 WT5  3173 TIP3 OH2  OT    -0.834000       15.9994           0
   68364 WT5  3173 TIP3 H1   HT     0.417000        1.0080           0
   68365 WT5  3173 TIP3 H2   HT     0.417000        1.0080           0
   68366 WT5  3177 TIP3 OH2  OT    -0.834000       15.9994           0
   68367 WT5  3177 TIP3 H1   HT     0.417000        1.0080           0
   68368 WT5  3177 TIP3 H2   HT     0.417000        1.0080           0
   68369 WT5  3186 TIP3 OH2  OT    -0.834000       15.9994           0
   68370 WT5  3186 TIP3 H1   HT     0.417000        1.0080           0
   68371 WT5  3186 TIP3 H2   HT     0.417000        1.0080           0
   68372 WT5  3209 TIP3 OH2  OT    -0.834000       15.9994           0
   68373 WT5  3209 TIP3 H1   HT     0.417000        1.0080           0
   68374 WT5  3209 TIP3 H2   HT     0.417000        1.0080           0
   68375 WT5  3440 TIP3 OH2  OT    -0.834000       15.9994           0
   68376 WT5  3440 TIP3 H1   HT     0.417000        1.0080           0
   68377 WT5  3440 TIP3 H2   HT     0.417000        1.0080           0
   68378 WT5  3447 TIP3 OH2  OT    -0.834000       15.9994           0
   68379 WT5  3447 TIP3 H1   HT     0.417000        1.0080           0
   68380 WT5  3447 TIP3 H2   HT     0.417000        1.0080           0
   68381 WT5  3474 TIP3 OH2  OT    -0.834000       15.9994           0
   68382 WT5  3474 TIP3 H1   HT     0.417000        1.0080           0
   68383 WT5  3474 TIP3 H2   HT     0.417000        1.0080           0
   68384 WT5  3476 TIP3 OH2  OT    -0.834000       15.9994           0
   68385 WT5  3476 TIP3 H1   HT     0.417000        1.0080           0
   68386 WT5  3476 TIP3 H2   HT     0.417000        1.0080           0
   68387 WT5  3480 TIP3 OH2  OT    -0.834000       15.9994           0
   68388 WT5  3480 TIP3 H1   HT     0.417000        1.0080           0
   68389 WT5  3480 TIP3 H2   HT     0.417000        1.0080           0
   68390 WT5  3484 TIP3 OH2  OT    -0.834000       15.9994           0
   68391 WT5  3484 TIP3 H1   HT     0.417000        1.0080           0
   68392 WT5  3484 TIP3 H2   HT     0.417000        1.0080           0
   68393 WT5  3496 TIP3 OH2  OT    -0.834000       15.9994           0
   68394 WT5  3496 TIP3 H1   HT     0.417000        1.0080           0
   68395 WT5  3496 TIP3 H2   HT     0.417000        1.0080           0
   68396 WT5  3497 TIP3 OH2  OT    -0.834000       15.9994           0
   68397 WT5  3497 TIP3 H1   HT     0.417000        1.0080           0
   68398 WT5  3497 TIP3 H2   HT     0.417000        1.0080           0
   68399 WT5  3504 TIP3 OH2  OT    -0.834000       15.9994           0
   68400 WT5  3504 TIP3 H1   HT     0.417000        1.0080           0
   68401 WT5  3504 TIP3 H2   HT     0.417000        1.0080           0
   68402 WT5  3514 TIP3 OH2  OT    -0.834000       15.9994           0
   68403 WT5  3514 TIP3 H1   HT     0.417000        1.0080           0
   68404 WT5  3514 TIP3 H2   HT     0.417000        1.0080           0
   68405 WT5  3517 TIP3 OH2  OT    -0.834000       15.9994           0
   68406 WT5  3517 TIP3 H1   HT     0.417000        1.0080           0
   68407 WT5  3517 TIP3 H2   HT     0.417000        1.0080           0
   68408 WT5  3529 TIP3 OH2  OT    -0.834000       15.9994           0
   68409 WT5  3529 TIP3 H1   HT     0.417000        1.0080           0
   68410 WT5  3529 TIP3 H2   HT     0.417000        1.0080           0
   68411 WT5  3533 TIP3 OH2  OT    -0.834000       15.9994           0
   68412 WT5  3533 TIP3 H1   HT     0.417000        1.0080           0
   68413 WT5  3533 TIP3 H2   HT     0.417000        1.0080           0
   68414 WT5  3544 TIP3 OH2  OT    -0.834000       15.9994           0
   68415 WT5  3544 TIP3 H1   HT     0.417000        1.0080           0
   68416 WT5  3544 TIP3 H2   HT     0.417000        1.0080           0
   68417 WT5  3555 TIP3 OH2  OT    -0.834000       15.9994           0
   68418 WT5  3555 TIP3 H1   HT     0.417000        1.0080           0
   68419 WT5  3555 TIP3 H2   HT     0.417000        1.0080           0
   68420 WT5  3562 TIP3 OH2  OT    -0.834000       15.9994           0
   68421 WT5  3562 TIP3 H1   HT     0.417000        1.0080           0
   68422 WT5  3562 TIP3 H2   HT     0.417000        1.0080           0
   68423 WT5  3564 TIP3 OH2  OT    -0.834000       15.9994           0
   68424 WT5  3564 TIP3 H1   HT     0.417000        1.0080           0
   68425 WT5  3564 TIP3 H2   HT     0.417000        1.0080           0
   68426 WT5  3569 TIP3 OH2  OT    -0.834000       15.9994           0
   68427 WT5  3569 TIP3 H1   HT     0.417000        1.0080           0
   68428 WT5  3569 TIP3 H2   HT     0.417000        1.0080           0
   68429 WT5  3579 TIP3 OH2  OT    -0.834000       15.9994           0
   68430 WT5  3579 TIP3 H1   HT     0.417000        1.0080           0
   68431 WT5  3579 TIP3 H2   HT     0.417000        1.0080           0
   68432 WT5  3611 TIP3 OH2  OT    -0.834000       15.9994           0
   68433 WT5  3611 TIP3 H1   HT     0.417000        1.0080           0
   68434 WT5  3611 TIP3 H2   HT     0.417000        1.0080           0
   68435 WT5  3612 TIP3 OH2  OT    -0.834000       15.9994           0
   68436 WT5  3612 TIP3 H1   HT     0.417000        1.0080           0
   68437 WT5  3612 TIP3 H2   HT     0.417000        1.0080           0
   68438 WT5  3619 TIP3 OH2  OT    -0.834000       15.9994           0
   68439 WT5  3619 TIP3 H1   HT     0.417000        1.0080           0
   68440 WT5  3619 TIP3 H2   HT     0.417000        1.0080           0
   68441 WT5  3623 TIP3 OH2  OT    -0.834000       15.9994           0
   68442 WT5  3623 TIP3 H1   HT     0.417000        1.0080           0
   68443 WT5  3623 TIP3 H2   HT     0.417000        1.0080           0
   68444 WT5  3696 TIP3 OH2  OT    -0.834000       15.9994           0
   68445 WT5  3696 TIP3 H1   HT     0.417000        1.0080           0
   68446 WT5  3696 TIP3 H2   HT     0.417000        1.0080           0
   68447 WT5  3906 TIP3 OH2  OT    -0.834000       15.9994           0
   68448 WT5  3906 TIP3 H1   HT     0.417000        1.0080           0
   68449 WT5  3906 TIP3 H2   HT     0.417000        1.0080           0
   68450 WT5  3919 TIP3 OH2  OT    -0.834000       15.9994           0
   68451 WT5  3919 TIP3 H1   HT     0.417000        1.0080           0
   68452 WT5  3919 TIP3 H2   HT     0.417000        1.0080           0
   68453 WT5  3925 TIP3 OH2  OT    -0.834000       15.9994           0
   68454 WT5  3925 TIP3 H1   HT     0.417000        1.0080           0
   68455 WT5  3925 TIP3 H2   HT     0.417000        1.0080           0
   68456 WT5  3943 TIP3 OH2  OT    -0.834000       15.9994           0
   68457 WT5  3943 TIP3 H1   HT     0.417000        1.0080           0
   68458 WT5  3943 TIP3 H2   HT     0.417000        1.0080           0
   68459 WT5  3950 TIP3 OH2  OT    -0.834000       15.9994           0
   68460 WT5  3950 TIP3 H1   HT     0.417000        1.0080           0
   68461 WT5  3950 TIP3 H2   HT     0.417000        1.0080           0
   68462 WT5  3964 TIP3 OH2  OT    -0.834000       15.9994           0
   68463 WT5  3964 TIP3 H1   HT     0.417000        1.0080           0
   68464 WT5  3964 TIP3 H2   HT     0.417000        1.0080           0
   68465 WT5  3968 TIP3 OH2  OT    -0.834000       15.9994           0
   68466 WT5  3968 TIP3 H1   HT     0.417000        1.0080           0
   68467 WT5  3968 TIP3 H2   HT     0.417000        1.0080           0
   68468 WT5  3974 TIP3 OH2  OT    -0.834000       15.9994           0
   68469 WT5  3974 TIP3 H1   HT     0.417000        1.0080           0
   68470 WT5  3974 TIP3 H2   HT     0.417000        1.0080           0
   68471 WT5  3982 TIP3 OH2  OT    -0.834000       15.9994           0
   68472 WT5  3982 TIP3 H1   HT     0.417000        1.0080           0
   68473 WT5  3982 TIP3 H2   HT     0.417000        1.0080           0
   68474 WT5  3983 TIP3 OH2  OT    -0.834000       15.9994           0
   68475 WT5  3983 TIP3 H1   HT     0.417000        1.0080           0
   68476 WT5  3983 TIP3 H2   HT     0.417000        1.0080           0
   68477 WT5  3985 TIP3 OH2  OT    -0.834000       15.9994           0
   68478 WT5  3985 TIP3 H1   HT     0.417000        1.0080           0
   68479 WT5  3985 TIP3 H2   HT     0.417000        1.0080           0
   68480 WT5  3986 TIP3 OH2  OT    -0.834000       15.9994           0
   68481 WT5  3986 TIP3 H1   HT     0.417000        1.0080           0
   68482 WT5  3986 TIP3 H2   HT     0.417000        1.0080           0
   68483 WT5  3989 TIP3 OH2  OT    -0.834000       15.9994           0
   68484 WT5  3989 TIP3 H1   HT     0.417000        1.0080           0
   68485 WT5  3989 TIP3 H2   HT     0.417000        1.0080           0
   68486 WT5  3990 TIP3 OH2  OT    -0.834000       15.9994           0
   68487 WT5  3990 TIP3 H1   HT     0.417000        1.0080           0
   68488 WT5  3990 TIP3 H2   HT     0.417000        1.0080           0
   68489 WT5  3997 TIP3 OH2  OT    -0.834000       15.9994           0
   68490 WT5  3997 TIP3 H1   HT     0.417000        1.0080           0
   68491 WT5  3997 TIP3 H2   HT     0.417000        1.0080           0
   68492 WT5  3999 TIP3 OH2  OT    -0.834000       15.9994           0
   68493 WT5  3999 TIP3 H1   HT     0.417000        1.0080           0
   68494 WT5  3999 TIP3 H2   HT     0.417000        1.0080           0
   68495 WT5  4001 TIP3 OH2  OT    -0.834000       15.9994           0
   68496 WT5  4001 TIP3 H1   HT     0.417000        1.0080           0
   68497 WT5  4001 TIP3 H2   HT     0.417000        1.0080           0
   68498 WT5  4003 TIP3 OH2  OT    -0.834000       15.9994           0
   68499 WT5  4003 TIP3 H1   HT     0.417000        1.0080           0
   68500 WT5  4003 TIP3 H2   HT     0.417000        1.0080           0
   68501 WT5  4004 TIP3 OH2  OT    -0.834000       15.9994           0
   68502 WT5  4004 TIP3 H1   HT     0.417000        1.0080           0
   68503 WT5  4004 TIP3 H2   HT     0.417000        1.0080           0
   68504 WT5  4006 TIP3 OH2  OT    -0.834000       15.9994           0
   68505 WT5  4006 TIP3 H1   HT     0.417000        1.0080           0
   68506 WT5  4006 TIP3 H2   HT     0.417000        1.0080           0
   68507 WT5  4013 TIP3 OH2  OT    -0.834000       15.9994           0
   68508 WT5  4013 TIP3 H1   HT     0.417000        1.0080           0
   68509 WT5  4013 TIP3 H2   HT     0.417000        1.0080           0
   68510 WT5  4014 TIP3 OH2  OT    -0.834000       15.9994           0
   68511 WT5  4014 TIP3 H1   HT     0.417000        1.0080           0
   68512 WT5  4014 TIP3 H2   HT     0.417000        1.0080           0
   68513 WT5  4015 TIP3 OH2  OT    -0.834000       15.9994           0
   68514 WT5  4015 TIP3 H1   HT     0.417000        1.0080           0
   68515 WT5  4015 TIP3 H2   HT     0.417000        1.0080           0
   68516 WT5  4021 TIP3 OH2  OT    -0.834000       15.9994           0
   68517 WT5  4021 TIP3 H1   HT     0.417000        1.0080           0
   68518 WT5  4021 TIP3 H2   HT     0.417000        1.0080           0
   68519 WT5  4023 TIP3 OH2  OT    -0.834000       15.9994           0
   68520 WT5  4023 TIP3 H1   HT     0.417000        1.0080           0
   68521 WT5  4023 TIP3 H2   HT     0.417000        1.0080           0
   68522 WT5  4036 TIP3 OH2  OT    -0.834000       15.9994           0
   68523 WT5  4036 TIP3 H1   HT     0.417000        1.0080           0
   68524 WT5  4036 TIP3 H2   HT     0.417000        1.0080           0
   68525 WT5  4040 TIP3 OH2  OT    -0.834000       15.9994           0
   68526 WT5  4040 TIP3 H1   HT     0.417000        1.0080           0
   68527 WT5  4040 TIP3 H2   HT     0.417000        1.0080           0
   68528 WT5  4041 TIP3 OH2  OT    -0.834000       15.9994           0
   68529 WT5  4041 TIP3 H1   HT     0.417000        1.0080           0
   68530 WT5  4041 TIP3 H2   HT     0.417000        1.0080           0
   68531 WT5  4042 TIP3 OH2  OT    -0.834000       15.9994           0
   68532 WT5  4042 TIP3 H1   HT     0.417000        1.0080           0
   68533 WT5  4042 TIP3 H2   HT     0.417000        1.0080           0
   68534 WT5  4052 TIP3 OH2  OT    -0.834000       15.9994           0
   68535 WT5  4052 TIP3 H1   HT     0.417000        1.0080           0
   68536 WT5  4052 TIP3 H2   HT     0.417000        1.0080           0
   68537 WT5  4062 TIP3 OH2  OT    -0.834000       15.9994           0
   68538 WT5  4062 TIP3 H1   HT     0.417000        1.0080           0
   68539 WT5  4062 TIP3 H2   HT     0.417000        1.0080           0
   68540 WT5  4286 TIP3 OH2  OT    -0.834000       15.9994           0
   68541 WT5  4286 TIP3 H1   HT     0.417000        1.0080           0
   68542 WT5  4286 TIP3 H2   HT     0.417000        1.0080           0
   68543 WT5  4323 TIP3 OH2  OT    -0.834000       15.9994           0
   68544 WT5  4323 TIP3 H1   HT     0.417000        1.0080           0
   68545 WT5  4323 TIP3 H2   HT     0.417000        1.0080           0
   68546 WT5  4356 TIP3 OH2  OT    -0.834000       15.9994           0
   68547 WT5  4356 TIP3 H1   HT     0.417000        1.0080           0
   68548 WT5  4356 TIP3 H2   HT     0.417000        1.0080           0
   68549 WT5  4374 TIP3 OH2  OT    -0.834000       15.9994           0
   68550 WT5  4374 TIP3 H1   HT     0.417000        1.0080           0
   68551 WT5  4374 TIP3 H2   HT     0.417000        1.0080           0
   68552 WT5  4380 TIP3 OH2  OT    -0.834000       15.9994           0
   68553 WT5  4380 TIP3 H1   HT     0.417000        1.0080           0
   68554 WT5  4380 TIP3 H2   HT     0.417000        1.0080           0
   68555 WT5  4382 TIP3 OH2  OT    -0.834000       15.9994           0
   68556 WT5  4382 TIP3 H1   HT     0.417000        1.0080           0
   68557 WT5  4382 TIP3 H2   HT     0.417000        1.0080           0
   68558 WT5  4386 TIP3 OH2  OT    -0.834000       15.9994           0
   68559 WT5  4386 TIP3 H1   HT     0.417000        1.0080           0
   68560 WT5  4386 TIP3 H2   HT     0.417000        1.0080           0
   68561 WT5  4390 TIP3 OH2  OT    -0.834000       15.9994           0
   68562 WT5  4390 TIP3 H1   HT     0.417000        1.0080           0
   68563 WT5  4390 TIP3 H2   HT     0.417000        1.0080           0
   68564 WT5  4404 TIP3 OH2  OT    -0.834000       15.9994           0
   68565 WT5  4404 TIP3 H1   HT     0.417000        1.0080           0
   68566 WT5  4404 TIP3 H2   HT     0.417000        1.0080           0
   68567 WT5  4407 TIP3 OH2  OT    -0.834000       15.9994           0
   68568 WT5  4407 TIP3 H1   HT     0.417000        1.0080           0
   68569 WT5  4407 TIP3 H2   HT     0.417000        1.0080           0
   68570 WT5  4409 TIP3 OH2  OT    -0.834000       15.9994           0
   68571 WT5  4409 TIP3 H1   HT     0.417000        1.0080           0
   68572 WT5  4409 TIP3 H2   HT     0.417000        1.0080           0
   68573 WT5  4412 TIP3 OH2  OT    -0.834000       15.9994           0
   68574 WT5  4412 TIP3 H1   HT     0.417000        1.0080           0
   68575 WT5  4412 TIP3 H2   HT     0.417000        1.0080           0
   68576 WT5  4414 TIP3 OH2  OT    -0.834000       15.9994           0
   68577 WT5  4414 TIP3 H1   HT     0.417000        1.0080           0
   68578 WT5  4414 TIP3 H2   HT     0.417000        1.0080           0
   68579 WT5  4419 TIP3 OH2  OT    -0.834000       15.9994           0
   68580 WT5  4419 TIP3 H1   HT     0.417000        1.0080           0
   68581 WT5  4419 TIP3 H2   HT     0.417000        1.0080           0
   68582 WT5  4420 TIP3 OH2  OT    -0.834000       15.9994           0
   68583 WT5  4420 TIP3 H1   HT     0.417000        1.0080           0
   68584 WT5  4420 TIP3 H2   HT     0.417000        1.0080           0
   68585 WT5  4421 TIP3 OH2  OT    -0.834000       15.9994           0
   68586 WT5  4421 TIP3 H1   HT     0.417000        1.0080           0
   68587 WT5  4421 TIP3 H2   HT     0.417000        1.0080           0
   68588 WT5  4433 TIP3 OH2  OT    -0.834000       15.9994           0
   68589 WT5  4433 TIP3 H1   HT     0.417000        1.0080           0
   68590 WT5  4433 TIP3 H2   HT     0.417000        1.0080           0
   68591 WT5  4434 TIP3 OH2  OT    -0.834000       15.9994           0
   68592 WT5  4434 TIP3 H1   HT     0.417000        1.0080           0
   68593 WT5  4434 TIP3 H2   HT     0.417000        1.0080           0
   68594 WT5  4441 TIP3 OH2  OT    -0.834000       15.9994           0
   68595 WT5  4441 TIP3 H1   HT     0.417000        1.0080           0
   68596 WT5  4441 TIP3 H2   HT     0.417000        1.0080           0
   68597 WT5  4449 TIP3 OH2  OT    -0.834000       15.9994           0
   68598 WT5  4449 TIP3 H1   HT     0.417000        1.0080           0
   68599 WT5  4449 TIP3 H2   HT     0.417000        1.0080           0
   68600 WT5  4455 TIP3 OH2  OT    -0.834000       15.9994           0
   68601 WT5  4455 TIP3 H1   HT     0.417000        1.0080           0
   68602 WT5  4455 TIP3 H2   HT     0.417000        1.0080           0
   68603 WT5  4461 TIP3 OH2  OT    -0.834000       15.9994           0
   68604 WT5  4461 TIP3 H1   HT     0.417000        1.0080           0
   68605 WT5  4461 TIP3 H2   HT     0.417000        1.0080           0
   68606 WT5  4463 TIP3 OH2  OT    -0.834000       15.9994           0
   68607 WT5  4463 TIP3 H1   HT     0.417000        1.0080           0
   68608 WT5  4463 TIP3 H2   HT     0.417000        1.0080           0
   68609 WT5  4472 TIP3 OH2  OT    -0.834000       15.9994           0
   68610 WT5  4472 TIP3 H1   HT     0.417000        1.0080           0
   68611 WT5  4472 TIP3 H2   HT     0.417000        1.0080           0
   68612 WT5  4477 TIP3 OH2  OT    -0.834000       15.9994           0
   68613 WT5  4477 TIP3 H1   HT     0.417000        1.0080           0
   68614 WT5  4477 TIP3 H2   HT     0.417000        1.0080           0
   68615 WT5  4485 TIP3 OH2  OT    -0.834000       15.9994           0
   68616 WT5  4485 TIP3 H1   HT     0.417000        1.0080           0
   68617 WT5  4485 TIP3 H2   HT     0.417000        1.0080           0
   68618 WT5  4493 TIP3 OH2  OT    -0.834000       15.9994           0
   68619 WT5  4493 TIP3 H1   HT     0.417000        1.0080           0
   68620 WT5  4493 TIP3 H2   HT     0.417000        1.0080           0
   68621 WT5  4522 TIP3 OH2  OT    -0.834000       15.9994           0
   68622 WT5  4522 TIP3 H1   HT     0.417000        1.0080           0
   68623 WT5  4522 TIP3 H2   HT     0.417000        1.0080           0
   68624 WT5  4527 TIP3 OH2  OT    -0.834000       15.9994           0
   68625 WT5  4527 TIP3 H1   HT     0.417000        1.0080           0
   68626 WT5  4527 TIP3 H2   HT     0.417000        1.0080           0
   68627 WT5  4528 TIP3 OH2  OT    -0.834000       15.9994           0
   68628 WT5  4528 TIP3 H1   HT     0.417000        1.0080           0
   68629 WT5  4528 TIP3 H2   HT     0.417000        1.0080           0
   68630 WT5  4529 TIP3 OH2  OT    -0.834000       15.9994           0
   68631 WT5  4529 TIP3 H1   HT     0.417000        1.0080           0
   68632 WT5  4529 TIP3 H2   HT     0.417000        1.0080           0
   68633 WT5  4530 TIP3 OH2  OT    -0.834000       15.9994           0
   68634 WT5  4530 TIP3 H1   HT     0.417000        1.0080           0
   68635 WT5  4530 TIP3 H2   HT     0.417000        1.0080           0
   68636 WT5  4531 TIP3 OH2  OT    -0.834000       15.9994           0
   68637 WT5  4531 TIP3 H1   HT     0.417000        1.0080           0
   68638 WT5  4531 TIP3 H2   HT     0.417000        1.0080           0
   68639 WT5  4739 TIP3 OH2  OT    -0.834000       15.9994           0
   68640 WT5  4739 TIP3 H1   HT     0.417000        1.0080           0
   68641 WT5  4739 TIP3 H2   HT     0.417000        1.0080           0
   68642 WT5  4798 TIP3 OH2  OT    -0.834000       15.9994           0
   68643 WT5  4798 TIP3 H1   HT     0.417000        1.0080           0
   68644 WT5  4798 TIP3 H2   HT     0.417000        1.0080           0
   68645 WT5  4799 TIP3 OH2  OT    -0.834000       15.9994           0
   68646 WT5  4799 TIP3 H1   HT     0.417000        1.0080           0
   68647 WT5  4799 TIP3 H2   HT     0.417000        1.0080           0
   68648 WT5  4800 TIP3 OH2  OT    -0.834000       15.9994           0
   68649 WT5  4800 TIP3 H1   HT     0.417000        1.0080           0
   68650 WT5  4800 TIP3 H2   HT     0.417000        1.0080           0
   68651 WT5  4807 TIP3 OH2  OT    -0.834000       15.9994           0
   68652 WT5  4807 TIP3 H1   HT     0.417000        1.0080           0
   68653 WT5  4807 TIP3 H2   HT     0.417000        1.0080           0
   68654 WT5  4809 TIP3 OH2  OT    -0.834000       15.9994           0
   68655 WT5  4809 TIP3 H1   HT     0.417000        1.0080           0
   68656 WT5  4809 TIP3 H2   HT     0.417000        1.0080           0
   68657 WT5  4815 TIP3 OH2  OT    -0.834000       15.9994           0
   68658 WT5  4815 TIP3 H1   HT     0.417000        1.0080           0
   68659 WT5  4815 TIP3 H2   HT     0.417000        1.0080           0
   68660 WT5  4820 TIP3 OH2  OT    -0.834000       15.9994           0
   68661 WT5  4820 TIP3 H1   HT     0.417000        1.0080           0
   68662 WT5  4820 TIP3 H2   HT     0.417000        1.0080           0
   68663 WT5  4821 TIP3 OH2  OT    -0.834000       15.9994           0
   68664 WT5  4821 TIP3 H1   HT     0.417000        1.0080           0
   68665 WT5  4821 TIP3 H2   HT     0.417000        1.0080           0
   68666 WT5  4822 TIP3 OH2  OT    -0.834000       15.9994           0
   68667 WT5  4822 TIP3 H1   HT     0.417000        1.0080           0
   68668 WT5  4822 TIP3 H2   HT     0.417000        1.0080           0
   68669 WT5  4829 TIP3 OH2  OT    -0.834000       15.9994           0
   68670 WT5  4829 TIP3 H1   HT     0.417000        1.0080           0
   68671 WT5  4829 TIP3 H2   HT     0.417000        1.0080           0
   68672 WT5  4834 TIP3 OH2  OT    -0.834000       15.9994           0
   68673 WT5  4834 TIP3 H1   HT     0.417000        1.0080           0
   68674 WT5  4834 TIP3 H2   HT     0.417000        1.0080           0
   68675 WT5  4835 TIP3 OH2  OT    -0.834000       15.9994           0
   68676 WT5  4835 TIP3 H1   HT     0.417000        1.0080           0
   68677 WT5  4835 TIP3 H2   HT     0.417000        1.0080           0
   68678 WT5  4836 TIP3 OH2  OT    -0.834000       15.9994           0
   68679 WT5  4836 TIP3 H1   HT     0.417000        1.0080           0
   68680 WT5  4836 TIP3 H2   HT     0.417000        1.0080           0
   68681 WT5  4837 TIP3 OH2  OT    -0.834000       15.9994           0
   68682 WT5  4837 TIP3 H1   HT     0.417000        1.0080           0
   68683 WT5  4837 TIP3 H2   HT     0.417000        1.0080           0
   68684 WT5  4844 TIP3 OH2  OT    -0.834000       15.9994           0
   68685 WT5  4844 TIP3 H1   HT     0.417000        1.0080           0
   68686 WT5  4844 TIP3 H2   HT     0.417000        1.0080           0
   68687 WT5  4847 TIP3 OH2  OT    -0.834000       15.9994           0
   68688 WT5  4847 TIP3 H1   HT     0.417000        1.0080           0
   68689 WT5  4847 TIP3 H2   HT     0.417000        1.0080           0
   68690 WT5  4853 TIP3 OH2  OT    -0.834000       15.9994           0
   68691 WT5  4853 TIP3 H1   HT     0.417000        1.0080           0
   68692 WT5  4853 TIP3 H2   HT     0.417000        1.0080           0
   68693 WT5  4856 TIP3 OH2  OT    -0.834000       15.9994           0
   68694 WT5  4856 TIP3 H1   HT     0.417000        1.0080           0
   68695 WT5  4856 TIP3 H2   HT     0.417000        1.0080           0
   68696 WT5  4858 TIP3 OH2  OT    -0.834000       15.9994           0
   68697 WT5  4858 TIP3 H1   HT     0.417000        1.0080           0
   68698 WT5  4858 TIP3 H2   HT     0.417000        1.0080           0
   68699 WT5  4861 TIP3 OH2  OT    -0.834000       15.9994           0
   68700 WT5  4861 TIP3 H1   HT     0.417000        1.0080           0
   68701 WT5  4861 TIP3 H2   HT     0.417000        1.0080           0
   68702 WT5  4866 TIP3 OH2  OT    -0.834000       15.9994           0
   68703 WT5  4866 TIP3 H1   HT     0.417000        1.0080           0
   68704 WT5  4866 TIP3 H2   HT     0.417000        1.0080           0
   68705 WT5  4875 TIP3 OH2  OT    -0.834000       15.9994           0
   68706 WT5  4875 TIP3 H1   HT     0.417000        1.0080           0
   68707 WT5  4875 TIP3 H2   HT     0.417000        1.0080           0
   68708 WT5  4877 TIP3 OH2  OT    -0.834000       15.9994           0
   68709 WT5  4877 TIP3 H1   HT     0.417000        1.0080           0
   68710 WT5  4877 TIP3 H2   HT     0.417000        1.0080           0
   68711 WT5  4880 TIP3 OH2  OT    -0.834000       15.9994           0
   68712 WT5  4880 TIP3 H1   HT     0.417000        1.0080           0
   68713 WT5  4880 TIP3 H2   HT     0.417000        1.0080           0
   68714 WT5  4887 TIP3 OH2  OT    -0.834000       15.9994           0
   68715 WT5  4887 TIP3 H1   HT     0.417000        1.0080           0
   68716 WT5  4887 TIP3 H2   HT     0.417000        1.0080           0
   68717 WT5  4888 TIP3 OH2  OT    -0.834000       15.9994           0
   68718 WT5  4888 TIP3 H1   HT     0.417000        1.0080           0
   68719 WT5  4888 TIP3 H2   HT     0.417000        1.0080           0
   68720 WT5  4891 TIP3 OH2  OT    -0.834000       15.9994           0
   68721 WT5  4891 TIP3 H1   HT     0.417000        1.0080           0
   68722 WT5  4891 TIP3 H2   HT     0.417000        1.0080           0
   68723 WT5  4894 TIP3 OH2  OT    -0.834000       15.9994           0
   68724 WT5  4894 TIP3 H1   HT     0.417000        1.0080           0
   68725 WT5  4894 TIP3 H2   HT     0.417000        1.0080           0
   68726 WT5  4901 TIP3 OH2  OT    -0.834000       15.9994           0
   68727 WT5  4901 TIP3 H1   HT     0.417000        1.0080           0
   68728 WT5  4901 TIP3 H2   HT     0.417000        1.0080           0
   68729 WT5  4906 TIP3 OH2  OT    -0.834000       15.9994           0
   68730 WT5  4906 TIP3 H1   HT     0.417000        1.0080           0
   68731 WT5  4906 TIP3 H2   HT     0.417000        1.0080           0
   68732 WT5  4909 TIP3 OH2  OT    -0.834000       15.9994           0
   68733 WT5  4909 TIP3 H1   HT     0.417000        1.0080           0
   68734 WT5  4909 TIP3 H2   HT     0.417000        1.0080           0
   68735 WT5  4911 TIP3 OH2  OT    -0.834000       15.9994           0
   68736 WT5  4911 TIP3 H1   HT     0.417000        1.0080           0
   68737 WT5  4911 TIP3 H2   HT     0.417000        1.0080           0
   68738 WT5  4912 TIP3 OH2  OT    -0.834000       15.9994           0
   68739 WT5  4912 TIP3 H1   HT     0.417000        1.0080           0
   68740 WT5  4912 TIP3 H2   HT     0.417000        1.0080           0
   68741 WT5  4913 TIP3 OH2  OT    -0.834000       15.9994           0
   68742 WT5  4913 TIP3 H1   HT     0.417000        1.0080           0
   68743 WT5  4913 TIP3 H2   HT     0.417000        1.0080           0
   68744 WT5  4915 TIP3 OH2  OT    -0.834000       15.9994           0
   68745 WT5  4915 TIP3 H1   HT     0.417000        1.0080           0
   68746 WT5  4915 TIP3 H2   HT     0.417000        1.0080           0
   68747 WT5  4924 TIP3 OH2  OT    -0.834000       15.9994           0
   68748 WT5  4924 TIP3 H1   HT     0.417000        1.0080           0
   68749 WT5  4924 TIP3 H2   HT     0.417000        1.0080           0
   68750 WT5  4932 TIP3 OH2  OT    -0.834000       15.9994           0
   68751 WT5  4932 TIP3 H1   HT     0.417000        1.0080           0
   68752 WT5  4932 TIP3 H2   HT     0.417000        1.0080           0
   68753 WT5  4937 TIP3 OH2  OT    -0.834000       15.9994           0
   68754 WT5  4937 TIP3 H1   HT     0.417000        1.0080           0
   68755 WT5  4937 TIP3 H2   HT     0.417000        1.0080           0
   68756 WT5  4947 TIP3 OH2  OT    -0.834000       15.9994           0
   68757 WT5  4947 TIP3 H1   HT     0.417000        1.0080           0
   68758 WT5  4947 TIP3 H2   HT     0.417000        1.0080           0
   68759 WT5  4953 TIP3 OH2  OT    -0.834000       15.9994           0
   68760 WT5  4953 TIP3 H1   HT     0.417000        1.0080           0
   68761 WT5  4953 TIP3 H2   HT     0.417000        1.0080           0
   68762 WT5  4967 TIP3 OH2  OT    -0.834000       15.9994           0
   68763 WT5  4967 TIP3 H1   HT     0.417000        1.0080           0
   68764 WT5  4967 TIP3 H2   HT     0.417000        1.0080           0
   68765 WT5  4970 TIP3 OH2  OT    -0.834000       15.9994           0
   68766 WT5  4970 TIP3 H1   HT     0.417000        1.0080           0
   68767 WT5  4970 TIP3 H2   HT     0.417000        1.0080           0
   68768 WT5  4992 TIP3 OH2  OT    -0.834000       15.9994           0
   68769 WT5  4992 TIP3 H1   HT     0.417000        1.0080           0
   68770 WT5  4992 TIP3 H2   HT     0.417000        1.0080           0
   68771 WT5  4995 TIP3 OH2  OT    -0.834000       15.9994           0
   68772 WT5  4995 TIP3 H1   HT     0.417000        1.0080           0
   68773 WT5  4995 TIP3 H2   HT     0.417000        1.0080           0
   68774 WT5  5193 TIP3 OH2  OT    -0.834000       15.9994           0
   68775 WT5  5193 TIP3 H1   HT     0.417000        1.0080           0
   68776 WT5  5193 TIP3 H2   HT     0.417000        1.0080           0
   68777 WT5  5234 TIP3 OH2  OT    -0.834000       15.9994           0
   68778 WT5  5234 TIP3 H1   HT     0.417000        1.0080           0
   68779 WT5  5234 TIP3 H2   HT     0.417000        1.0080           0
   68780 WT5  5260 TIP3 OH2  OT    -0.834000       15.9994           0
   68781 WT5  5260 TIP3 H1   HT     0.417000        1.0080           0
   68782 WT5  5260 TIP3 H2   HT     0.417000        1.0080           0
   68783 WT5  5264 TIP3 OH2  OT    -0.834000       15.9994           0
   68784 WT5  5264 TIP3 H1   HT     0.417000        1.0080           0
   68785 WT5  5264 TIP3 H2   HT     0.417000        1.0080           0
   68786 WT5  5266 TIP3 OH2  OT    -0.834000       15.9994           0
   68787 WT5  5266 TIP3 H1   HT     0.417000        1.0080           0
   68788 WT5  5266 TIP3 H2   HT     0.417000        1.0080           0
   68789 WT5  5267 TIP3 OH2  OT    -0.834000       15.9994           0
   68790 WT5  5267 TIP3 H1   HT     0.417000        1.0080           0
   68791 WT5  5267 TIP3 H2   HT     0.417000        1.0080           0
   68792 WT5  5273 TIP3 OH2  OT    -0.834000       15.9994           0
   68793 WT5  5273 TIP3 H1   HT     0.417000        1.0080           0
   68794 WT5  5273 TIP3 H2   HT     0.417000        1.0080           0
   68795 WT5  5284 TIP3 OH2  OT    -0.834000       15.9994           0
   68796 WT5  5284 TIP3 H1   HT     0.417000        1.0080           0
   68797 WT5  5284 TIP3 H2   HT     0.417000        1.0080           0
   68798 WT5  5288 TIP3 OH2  OT    -0.834000       15.9994           0
   68799 WT5  5288 TIP3 H1   HT     0.417000        1.0080           0
   68800 WT5  5288 TIP3 H2   HT     0.417000        1.0080           0
   68801 WT5  5289 TIP3 OH2  OT    -0.834000       15.9994           0
   68802 WT5  5289 TIP3 H1   HT     0.417000        1.0080           0
   68803 WT5  5289 TIP3 H2   HT     0.417000        1.0080           0
   68804 WT5  5309 TIP3 OH2  OT    -0.834000       15.9994           0
   68805 WT5  5309 TIP3 H1   HT     0.417000        1.0080           0
   68806 WT5  5309 TIP3 H2   HT     0.417000        1.0080           0
   68807 WT5  5314 TIP3 OH2  OT    -0.834000       15.9994           0
   68808 WT5  5314 TIP3 H1   HT     0.417000        1.0080           0
   68809 WT5  5314 TIP3 H2   HT     0.417000        1.0080           0
   68810 WT5  5319 TIP3 OH2  OT    -0.834000       15.9994           0
   68811 WT5  5319 TIP3 H1   HT     0.417000        1.0080           0
   68812 WT5  5319 TIP3 H2   HT     0.417000        1.0080           0
   68813 WT5  5322 TIP3 OH2  OT    -0.834000       15.9994           0
   68814 WT5  5322 TIP3 H1   HT     0.417000        1.0080           0
   68815 WT5  5322 TIP3 H2   HT     0.417000        1.0080           0
   68816 WT5  5323 TIP3 OH2  OT    -0.834000       15.9994           0
   68817 WT5  5323 TIP3 H1   HT     0.417000        1.0080           0
   68818 WT5  5323 TIP3 H2   HT     0.417000        1.0080           0
   68819 WT5  5325 TIP3 OH2  OT    -0.834000       15.9994           0
   68820 WT5  5325 TIP3 H1   HT     0.417000        1.0080           0
   68821 WT5  5325 TIP3 H2   HT     0.417000        1.0080           0
   68822 WT5  5327 TIP3 OH2  OT    -0.834000       15.9994           0
   68823 WT5  5327 TIP3 H1   HT     0.417000        1.0080           0
   68824 WT5  5327 TIP3 H2   HT     0.417000        1.0080           0
   68825 WT5  5331 TIP3 OH2  OT    -0.834000       15.9994           0
   68826 WT5  5331 TIP3 H1   HT     0.417000        1.0080           0
   68827 WT5  5331 TIP3 H2   HT     0.417000        1.0080           0
   68828 WT5  5333 TIP3 OH2  OT    -0.834000       15.9994           0
   68829 WT5  5333 TIP3 H1   HT     0.417000        1.0080           0
   68830 WT5  5333 TIP3 H2   HT     0.417000        1.0080           0
   68831 WT5  5344 TIP3 OH2  OT    -0.834000       15.9994           0
   68832 WT5  5344 TIP3 H1   HT     0.417000        1.0080           0
   68833 WT5  5344 TIP3 H2   HT     0.417000        1.0080           0
   68834 WT5  5349 TIP3 OH2  OT    -0.834000       15.9994           0
   68835 WT5  5349 TIP3 H1   HT     0.417000        1.0080           0
   68836 WT5  5349 TIP3 H2   HT     0.417000        1.0080           0
   68837 WT5  5350 TIP3 OH2  OT    -0.834000       15.9994           0
   68838 WT5  5350 TIP3 H1   HT     0.417000        1.0080           0
   68839 WT5  5350 TIP3 H2   HT     0.417000        1.0080           0
   68840 WT5  5355 TIP3 OH2  OT    -0.834000       15.9994           0
   68841 WT5  5355 TIP3 H1   HT     0.417000        1.0080           0
   68842 WT5  5355 TIP3 H2   HT     0.417000        1.0080           0
   68843 WT5  5356 TIP3 OH2  OT    -0.834000       15.9994           0
   68844 WT5  5356 TIP3 H1   HT     0.417000        1.0080           0
   68845 WT5  5356 TIP3 H2   HT     0.417000        1.0080           0
   68846 WT5  5363 TIP3 OH2  OT    -0.834000       15.9994           0
   68847 WT5  5363 TIP3 H1   HT     0.417000        1.0080           0
   68848 WT5  5363 TIP3 H2   HT     0.417000        1.0080           0
   68849 WT5  5369 TIP3 OH2  OT    -0.834000       15.9994           0
   68850 WT5  5369 TIP3 H1   HT     0.417000        1.0080           0
   68851 WT5  5369 TIP3 H2   HT     0.417000        1.0080           0
   68852 WT5  5406 TIP3 OH2  OT    -0.834000       15.9994           0
   68853 WT5  5406 TIP3 H1   HT     0.417000        1.0080           0
   68854 WT5  5406 TIP3 H2   HT     0.417000        1.0080           0
   68855 WT5  5411 TIP3 OH2  OT    -0.834000       15.9994           0
   68856 WT5  5411 TIP3 H1   HT     0.417000        1.0080           0
   68857 WT5  5411 TIP3 H2   HT     0.417000        1.0080           0
   68858 WT5  5412 TIP3 OH2  OT    -0.834000       15.9994           0
   68859 WT5  5412 TIP3 H1   HT     0.417000        1.0080           0
   68860 WT5  5412 TIP3 H2   HT     0.417000        1.0080           0
   68861 WT5  5480 TIP3 OH2  OT    -0.834000       15.9994           0
   68862 WT5  5480 TIP3 H1   HT     0.417000        1.0080           0
   68863 WT5  5480 TIP3 H2   HT     0.417000        1.0080           0
   68864 WT5  5650 TIP3 OH2  OT    -0.834000       15.9994           0
   68865 WT5  5650 TIP3 H1   HT     0.417000        1.0080           0
   68866 WT5  5650 TIP3 H2   HT     0.417000        1.0080           0
   68867 WT5  5654 TIP3 OH2  OT    -0.834000       15.9994           0
   68868 WT5  5654 TIP3 H1   HT     0.417000        1.0080           0
   68869 WT5  5654 TIP3 H2   HT     0.417000        1.0080           0
   68870 WT5  5676 TIP3 OH2  OT    -0.834000       15.9994           0
   68871 WT5  5676 TIP3 H1   HT     0.417000        1.0080           0
   68872 WT5  5676 TIP3 H2   HT     0.417000        1.0080           0
   68873 WT5  5678 TIP3 OH2  OT    -0.834000       15.9994           0
   68874 WT5  5678 TIP3 H1   HT     0.417000        1.0080           0
   68875 WT5  5678 TIP3 H2   HT     0.417000        1.0080           0
   68876 WT5  5690 TIP3 OH2  OT    -0.834000       15.9994           0
   68877 WT5  5690 TIP3 H1   HT     0.417000        1.0080           0
   68878 WT5  5690 TIP3 H2   HT     0.417000        1.0080           0
   68879 WT5  5691 TIP3 OH2  OT    -0.834000       15.9994           0
   68880 WT5  5691 TIP3 H1   HT     0.417000        1.0080           0
   68881 WT5  5691 TIP3 H2   HT     0.417000        1.0080           0
   68882 WT5  5704 TIP3 OH2  OT    -0.834000       15.9994           0
   68883 WT5  5704 TIP3 H1   HT     0.417000        1.0080           0
   68884 WT5  5704 TIP3 H2   HT     0.417000        1.0080           0
   68885 WT5  5706 TIP3 OH2  OT    -0.834000       15.9994           0
   68886 WT5  5706 TIP3 H1   HT     0.417000        1.0080           0
   68887 WT5  5706 TIP3 H2   HT     0.417000        1.0080           0
   68888 WT5  5710 TIP3 OH2  OT    -0.834000       15.9994           0
   68889 WT5  5710 TIP3 H1   HT     0.417000        1.0080           0
   68890 WT5  5710 TIP3 H2   HT     0.417000        1.0080           0
   68891 WT5  5713 TIP3 OH2  OT    -0.834000       15.9994           0
   68892 WT5  5713 TIP3 H1   HT     0.417000        1.0080           0
   68893 WT5  5713 TIP3 H2   HT     0.417000        1.0080           0
   68894 WT5  5714 TIP3 OH2  OT    -0.834000       15.9994           0
   68895 WT5  5714 TIP3 H1   HT     0.417000        1.0080           0
   68896 WT5  5714 TIP3 H2   HT     0.417000        1.0080           0
   68897 WT5  5719 TIP3 OH2  OT    -0.834000       15.9994           0
   68898 WT5  5719 TIP3 H1   HT     0.417000        1.0080           0
   68899 WT5  5719 TIP3 H2   HT     0.417000        1.0080           0
   68900 WT5  5722 TIP3 OH2  OT    -0.834000       15.9994           0
   68901 WT5  5722 TIP3 H1   HT     0.417000        1.0080           0
   68902 WT5  5722 TIP3 H2   HT     0.417000        1.0080           0
   68903 WT5  5723 TIP3 OH2  OT    -0.834000       15.9994           0
   68904 WT5  5723 TIP3 H1   HT     0.417000        1.0080           0
   68905 WT5  5723 TIP3 H2   HT     0.417000        1.0080           0
   68906 WT5  5727 TIP3 OH2  OT    -0.834000       15.9994           0
   68907 WT5  5727 TIP3 H1   HT     0.417000        1.0080           0
   68908 WT5  5727 TIP3 H2   HT     0.417000        1.0080           0
   68909 WT5  5734 TIP3 OH2  OT    -0.834000       15.9994           0
   68910 WT5  5734 TIP3 H1   HT     0.417000        1.0080           0
   68911 WT5  5734 TIP3 H2   HT     0.417000        1.0080           0
   68912 WT5  5736 TIP3 OH2  OT    -0.834000       15.9994           0
   68913 WT5  5736 TIP3 H1   HT     0.417000        1.0080           0
   68914 WT5  5736 TIP3 H2   HT     0.417000        1.0080           0
   68915 WT5  5738 TIP3 OH2  OT    -0.834000       15.9994           0
   68916 WT5  5738 TIP3 H1   HT     0.417000        1.0080           0
   68917 WT5  5738 TIP3 H2   HT     0.417000        1.0080           0
   68918 WT5  5749 TIP3 OH2  OT    -0.834000       15.9994           0
   68919 WT5  5749 TIP3 H1   HT     0.417000        1.0080           0
   68920 WT5  5749 TIP3 H2   HT     0.417000        1.0080           0
   68921 WT5  5754 TIP3 OH2  OT    -0.834000       15.9994           0
   68922 WT5  5754 TIP3 H1   HT     0.417000        1.0080           0
   68923 WT5  5754 TIP3 H2   HT     0.417000        1.0080           0
   68924 WT5  5756 TIP3 OH2  OT    -0.834000       15.9994           0
   68925 WT5  5756 TIP3 H1   HT     0.417000        1.0080           0
   68926 WT5  5756 TIP3 H2   HT     0.417000        1.0080           0
   68927 WT5  5758 TIP3 OH2  OT    -0.834000       15.9994           0
   68928 WT5  5758 TIP3 H1   HT     0.417000        1.0080           0
   68929 WT5  5758 TIP3 H2   HT     0.417000        1.0080           0
   68930 WT5  5760 TIP3 OH2  OT    -0.834000       15.9994           0
   68931 WT5  5760 TIP3 H1   HT     0.417000        1.0080           0
   68932 WT5  5760 TIP3 H2   HT     0.417000        1.0080           0
   68933 WT5  5762 TIP3 OH2  OT    -0.834000       15.9994           0
   68934 WT5  5762 TIP3 H1   HT     0.417000        1.0080           0
   68935 WT5  5762 TIP3 H2   HT     0.417000        1.0080           0
   68936 WT5  5764 TIP3 OH2  OT    -0.834000       15.9994           0
   68937 WT5  5764 TIP3 H1   HT     0.417000        1.0080           0
   68938 WT5  5764 TIP3 H2   HT     0.417000        1.0080           0
   68939 WT5  5765 TIP3 OH2  OT    -0.834000       15.9994           0
   68940 WT5  5765 TIP3 H1   HT     0.417000        1.0080           0
   68941 WT5  5765 TIP3 H2   HT     0.417000        1.0080           0
   68942 WT5  5767 TIP3 OH2  OT    -0.834000       15.9994           0
   68943 WT5  5767 TIP3 H1   HT     0.417000        1.0080           0
   68944 WT5  5767 TIP3 H2   HT     0.417000        1.0080           0
   68945 WT5  5776 TIP3 OH2  OT    -0.834000       15.9994           0
   68946 WT5  5776 TIP3 H1   HT     0.417000        1.0080           0
   68947 WT5  5776 TIP3 H2   HT     0.417000        1.0080           0
   68948 WT5  5783 TIP3 OH2  OT    -0.834000       15.9994           0
   68949 WT5  5783 TIP3 H1   HT     0.417000        1.0080           0
   68950 WT5  5783 TIP3 H2   HT     0.417000        1.0080           0
   68951 WT5  5785 TIP3 OH2  OT    -0.834000       15.9994           0
   68952 WT5  5785 TIP3 H1   HT     0.417000        1.0080           0
   68953 WT5  5785 TIP3 H2   HT     0.417000        1.0080           0
   68954 WT5  5794 TIP3 OH2  OT    -0.834000       15.9994           0
   68955 WT5  5794 TIP3 H1   HT     0.417000        1.0080           0
   68956 WT5  5794 TIP3 H2   HT     0.417000        1.0080           0
   68957 WT5  5802 TIP3 OH2  OT    -0.834000       15.9994           0
   68958 WT5  5802 TIP3 H1   HT     0.417000        1.0080           0
   68959 WT5  5802 TIP3 H2   HT     0.417000        1.0080           0
   68960 WT5  5803 TIP3 OH2  OT    -0.834000       15.9994           0
   68961 WT5  5803 TIP3 H1   HT     0.417000        1.0080           0
   68962 WT5  5803 TIP3 H2   HT     0.417000        1.0080           0
   68963 WT5  5804 TIP3 OH2  OT    -0.834000       15.9994           0
   68964 WT5  5804 TIP3 H1   HT     0.417000        1.0080           0
   68965 WT5  5804 TIP3 H2   HT     0.417000        1.0080           0
   68966 WT5  5805 TIP3 OH2  OT    -0.834000       15.9994           0
   68967 WT5  5805 TIP3 H1   HT     0.417000        1.0080           0
   68968 WT5  5805 TIP3 H2   HT     0.417000        1.0080           0
   68969 WT5  5810 TIP3 OH2  OT    -0.834000       15.9994           0
   68970 WT5  5810 TIP3 H1   HT     0.417000        1.0080           0
   68971 WT5  5810 TIP3 H2   HT     0.417000        1.0080           0
   68972 WT5  5824 TIP3 OH2  OT    -0.834000       15.9994           0
   68973 WT5  5824 TIP3 H1   HT     0.417000        1.0080           0
   68974 WT5  5824 TIP3 H2   HT     0.417000        1.0080           0
   68975 WT5  5830 TIP3 OH2  OT    -0.834000       15.9994           0
   68976 WT5  5830 TIP3 H1   HT     0.417000        1.0080           0
   68977 WT5  5830 TIP3 H2   HT     0.417000        1.0080           0
   68978 WT5  5852 TIP3 OH2  OT    -0.834000       15.9994           0
   68979 WT5  5852 TIP3 H1   HT     0.417000        1.0080           0
   68980 WT5  5852 TIP3 H2   HT     0.417000        1.0080           0
   68981 WT5  5857 TIP3 OH2  OT    -0.834000       15.9994           0
   68982 WT5  5857 TIP3 H1   HT     0.417000        1.0080           0
   68983 WT5  5857 TIP3 H2   HT     0.417000        1.0080           0
   68984 WT5  5875 TIP3 OH2  OT    -0.834000       15.9994           0
   68985 WT5  5875 TIP3 H1   HT     0.417000        1.0080           0
   68986 WT5  5875 TIP3 H2   HT     0.417000        1.0080           0
   68987 WT5  5884 TIP3 OH2  OT    -0.834000       15.9994           0
   68988 WT5  5884 TIP3 H1   HT     0.417000        1.0080           0
   68989 WT5  5884 TIP3 H2   HT     0.417000        1.0080           0
   68990 WT5  6091 TIP3 OH2  OT    -0.834000       15.9994           0
   68991 WT5  6091 TIP3 H1   HT     0.417000        1.0080           0
   68992 WT5  6091 TIP3 H2   HT     0.417000        1.0080           0
   68993 WT5  6107 TIP3 OH2  OT    -0.834000       15.9994           0
   68994 WT5  6107 TIP3 H1   HT     0.417000        1.0080           0
   68995 WT5  6107 TIP3 H2   HT     0.417000        1.0080           0
   68996 WT5  6110 TIP3 OH2  OT    -0.834000       15.9994           0
   68997 WT5  6110 TIP3 H1   HT     0.417000        1.0080           0
   68998 WT5  6110 TIP3 H2   HT     0.417000        1.0080           0
   68999 WT5  6122 TIP3 OH2  OT    -0.834000       15.9994           0
   69000 WT5  6122 TIP3 H1   HT     0.417000        1.0080           0
   69001 WT5  6122 TIP3 H2   HT     0.417000        1.0080           0
   69002 WT5  6126 TIP3 OH2  OT    -0.834000       15.9994           0
   69003 WT5  6126 TIP3 H1   HT     0.417000        1.0080           0
   69004 WT5  6126 TIP3 H2   HT     0.417000        1.0080           0
   69005 WT5  6131 TIP3 OH2  OT    -0.834000       15.9994           0
   69006 WT5  6131 TIP3 H1   HT     0.417000        1.0080           0
   69007 WT5  6131 TIP3 H2   HT     0.417000        1.0080           0
   69008 WT5  6138 TIP3 OH2  OT    -0.834000       15.9994           0
   69009 WT5  6138 TIP3 H1   HT     0.417000        1.0080           0
   69010 WT5  6138 TIP3 H2   HT     0.417000        1.0080           0
   69011 WT5  6153 TIP3 OH2  OT    -0.834000       15.9994           0
   69012 WT5  6153 TIP3 H1   HT     0.417000        1.0080           0
   69013 WT5  6153 TIP3 H2   HT     0.417000        1.0080           0
   69014 WT5  6158 TIP3 OH2  OT    -0.834000       15.9994           0
   69015 WT5  6158 TIP3 H1   HT     0.417000        1.0080           0
   69016 WT5  6158 TIP3 H2   HT     0.417000        1.0080           0
   69017 WT5  6163 TIP3 OH2  OT    -0.834000       15.9994           0
   69018 WT5  6163 TIP3 H1   HT     0.417000        1.0080           0
   69019 WT5  6163 TIP3 H2   HT     0.417000        1.0080           0
   69020 WT5  6166 TIP3 OH2  OT    -0.834000       15.9994           0
   69021 WT5  6166 TIP3 H1   HT     0.417000        1.0080           0
   69022 WT5  6166 TIP3 H2   HT     0.417000        1.0080           0
   69023 WT5  6172 TIP3 OH2  OT    -0.834000       15.9994           0
   69024 WT5  6172 TIP3 H1   HT     0.417000        1.0080           0
   69025 WT5  6172 TIP3 H2   HT     0.417000        1.0080           0
   69026 WT5  6177 TIP3 OH2  OT    -0.834000       15.9994           0
   69027 WT5  6177 TIP3 H1   HT     0.417000        1.0080           0
   69028 WT5  6177 TIP3 H2   HT     0.417000        1.0080           0
   69029 WT5  6179 TIP3 OH2  OT    -0.834000       15.9994           0
   69030 WT5  6179 TIP3 H1   HT     0.417000        1.0080           0
   69031 WT5  6179 TIP3 H2   HT     0.417000        1.0080           0
   69032 WT5  6184 TIP3 OH2  OT    -0.834000       15.9994           0
   69033 WT5  6184 TIP3 H1   HT     0.417000        1.0080           0
   69034 WT5  6184 TIP3 H2   HT     0.417000        1.0080           0
   69035 WT5  6187 TIP3 OH2  OT    -0.834000       15.9994           0
   69036 WT5  6187 TIP3 H1   HT     0.417000        1.0080           0
   69037 WT5  6187 TIP3 H2   HT     0.417000        1.0080           0
   69038 WT5  6188 TIP3 OH2  OT    -0.834000       15.9994           0
   69039 WT5  6188 TIP3 H1   HT     0.417000        1.0080           0
   69040 WT5  6188 TIP3 H2   HT     0.417000        1.0080           0
   69041 WT5  6192 TIP3 OH2  OT    -0.834000       15.9994           0
   69042 WT5  6192 TIP3 H1   HT     0.417000        1.0080           0
   69043 WT5  6192 TIP3 H2   HT     0.417000        1.0080           0
   69044 WT5  6193 TIP3 OH2  OT    -0.834000       15.9994           0
   69045 WT5  6193 TIP3 H1   HT     0.417000        1.0080           0
   69046 WT5  6193 TIP3 H2   HT     0.417000        1.0080           0
   69047 WT5  6194 TIP3 OH2  OT    -0.834000       15.9994           0
   69048 WT5  6194 TIP3 H1   HT     0.417000        1.0080           0
   69049 WT5  6194 TIP3 H2   HT     0.417000        1.0080           0
   69050 WT5  6199 TIP3 OH2  OT    -0.834000       15.9994           0
   69051 WT5  6199 TIP3 H1   HT     0.417000        1.0080           0
   69052 WT5  6199 TIP3 H2   HT     0.417000        1.0080           0
   69053 WT5  6200 TIP3 OH2  OT    -0.834000       15.9994           0
   69054 WT5  6200 TIP3 H1   HT     0.417000        1.0080           0
   69055 WT5  6200 TIP3 H2   HT     0.417000        1.0080           0
   69056 WT5  6204 TIP3 OH2  OT    -0.834000       15.9994           0
   69057 WT5  6204 TIP3 H1   HT     0.417000        1.0080           0
   69058 WT5  6204 TIP3 H2   HT     0.417000        1.0080           0
   69059 WT5  6208 TIP3 OH2  OT    -0.834000       15.9994           0
   69060 WT5  6208 TIP3 H1   HT     0.417000        1.0080           0
   69061 WT5  6208 TIP3 H2   HT     0.417000        1.0080           0
   69062 WT5  6212 TIP3 OH2  OT    -0.834000       15.9994           0
   69063 WT5  6212 TIP3 H1   HT     0.417000        1.0080           0
   69064 WT5  6212 TIP3 H2   HT     0.417000        1.0080           0
   69065 WT5  6215 TIP3 OH2  OT    -0.834000       15.9994           0
   69066 WT5  6215 TIP3 H1   HT     0.417000        1.0080           0
   69067 WT5  6215 TIP3 H2   HT     0.417000        1.0080           0
   69068 WT5  6216 TIP3 OH2  OT    -0.834000       15.9994           0
   69069 WT5  6216 TIP3 H1   HT     0.417000        1.0080           0
   69070 WT5  6216 TIP3 H2   HT     0.417000        1.0080           0
   69071 WT5  6219 TIP3 OH2  OT    -0.834000       15.9994           0
   69072 WT5  6219 TIP3 H1   HT     0.417000        1.0080           0
   69073 WT5  6219 TIP3 H2   HT     0.417000        1.0080           0
   69074 WT5  6229 TIP3 OH2  OT    -0.834000       15.9994           0
   69075 WT5  6229 TIP3 H1   HT     0.417000        1.0080           0
   69076 WT5  6229 TIP3 H2   HT     0.417000        1.0080           0
   69077 WT5  6233 TIP3 OH2  OT    -0.834000       15.9994           0
   69078 WT5  6233 TIP3 H1   HT     0.417000        1.0080           0
   69079 WT5  6233 TIP3 H2   HT     0.417000        1.0080           0
   69080 WT5  6235 TIP3 OH2  OT    -0.834000       15.9994           0
   69081 WT5  6235 TIP3 H1   HT     0.417000        1.0080           0
   69082 WT5  6235 TIP3 H2   HT     0.417000        1.0080           0
   69083 WT5  6236 TIP3 OH2  OT    -0.834000       15.9994           0
   69084 WT5  6236 TIP3 H1   HT     0.417000        1.0080           0
   69085 WT5  6236 TIP3 H2   HT     0.417000        1.0080           0
   69086 WT5  6240 TIP3 OH2  OT    -0.834000       15.9994           0
   69087 WT5  6240 TIP3 H1   HT     0.417000        1.0080           0
   69088 WT5  6240 TIP3 H2   HT     0.417000        1.0080           0
   69089 WT5  6254 TIP3 OH2  OT    -0.834000       15.9994           0
   69090 WT5  6254 TIP3 H1   HT     0.417000        1.0080           0
   69091 WT5  6254 TIP3 H2   HT     0.417000        1.0080           0
   69092 WT5  6255 TIP3 OH2  OT    -0.834000       15.9994           0
   69093 WT5  6255 TIP3 H1   HT     0.417000        1.0080           0
   69094 WT5  6255 TIP3 H2   HT     0.417000        1.0080           0
   69095 WT5  6257 TIP3 OH2  OT    -0.834000       15.9994           0
   69096 WT5  6257 TIP3 H1   HT     0.417000        1.0080           0
   69097 WT5  6257 TIP3 H2   HT     0.417000        1.0080           0
   69098 WT5  6274 TIP3 OH2  OT    -0.834000       15.9994           0
   69099 WT5  6274 TIP3 H1   HT     0.417000        1.0080           0
   69100 WT5  6274 TIP3 H2   HT     0.417000        1.0080           0
   69101 WT5  6278 TIP3 OH2  OT    -0.834000       15.9994           0
   69102 WT5  6278 TIP3 H1   HT     0.417000        1.0080           0
   69103 WT5  6278 TIP3 H2   HT     0.417000        1.0080           0
   69104 WT5  6293 TIP3 OH2  OT    -0.834000       15.9994           0
   69105 WT5  6293 TIP3 H1   HT     0.417000        1.0080           0
   69106 WT5  6293 TIP3 H2   HT     0.417000        1.0080           0
   69107 WT5  6295 TIP3 OH2  OT    -0.834000       15.9994           0
   69108 WT5  6295 TIP3 H1   HT     0.417000        1.0080           0
   69109 WT5  6295 TIP3 H2   HT     0.417000        1.0080           0
   69110 WT5  6299 TIP3 OH2  OT    -0.834000       15.9994           0
   69111 WT5  6299 TIP3 H1   HT     0.417000        1.0080           0
   69112 WT5  6299 TIP3 H2   HT     0.417000        1.0080           0
   69113 WT5  6311 TIP3 OH2  OT    -0.834000       15.9994           0
   69114 WT5  6311 TIP3 H1   HT     0.417000        1.0080           0
   69115 WT5  6311 TIP3 H2   HT     0.417000        1.0080           0
   69116 WT5  6317 TIP3 OH2  OT    -0.834000       15.9994           0
   69117 WT5  6317 TIP3 H1   HT     0.417000        1.0080           0
   69118 WT5  6317 TIP3 H2   HT     0.417000        1.0080           0
   69119 WT5  6555 TIP3 OH2  OT    -0.834000       15.9994           0
   69120 WT5  6555 TIP3 H1   HT     0.417000        1.0080           0
   69121 WT5  6555 TIP3 H2   HT     0.417000        1.0080           0
   69122 WT5  6561 TIP3 OH2  OT    -0.834000       15.9994           0
   69123 WT5  6561 TIP3 H1   HT     0.417000        1.0080           0
   69124 WT5  6561 TIP3 H2   HT     0.417000        1.0080           0
   69125 WT5  6569 TIP3 OH2  OT    -0.834000       15.9994           0
   69126 WT5  6569 TIP3 H1   HT     0.417000        1.0080           0
   69127 WT5  6569 TIP3 H2   HT     0.417000        1.0080           0
   69128 WT5  6577 TIP3 OH2  OT    -0.834000       15.9994           0
   69129 WT5  6577 TIP3 H1   HT     0.417000        1.0080           0
   69130 WT5  6577 TIP3 H2   HT     0.417000        1.0080           0
   69131 WT5  6583 TIP3 OH2  OT    -0.834000       15.9994           0
   69132 WT5  6583 TIP3 H1   HT     0.417000        1.0080           0
   69133 WT5  6583 TIP3 H2   HT     0.417000        1.0080           0
   69134 WT5  6588 TIP3 OH2  OT    -0.834000       15.9994           0
   69135 WT5  6588 TIP3 H1   HT     0.417000        1.0080           0
   69136 WT5  6588 TIP3 H2   HT     0.417000        1.0080           0
   69137 WT5  6592 TIP3 OH2  OT    -0.834000       15.9994           0
   69138 WT5  6592 TIP3 H1   HT     0.417000        1.0080           0
   69139 WT5  6592 TIP3 H2   HT     0.417000        1.0080           0
   69140 WT5  6595 TIP3 OH2  OT    -0.834000       15.9994           0
   69141 WT5  6595 TIP3 H1   HT     0.417000        1.0080           0
   69142 WT5  6595 TIP3 H2   HT     0.417000        1.0080           0
   69143 WT5  6597 TIP3 OH2  OT    -0.834000       15.9994           0
   69144 WT5  6597 TIP3 H1   HT     0.417000        1.0080           0
   69145 WT5  6597 TIP3 H2   HT     0.417000        1.0080           0
   69146 WT5  6601 TIP3 OH2  OT    -0.834000       15.9994           0
   69147 WT5  6601 TIP3 H1   HT     0.417000        1.0080           0
   69148 WT5  6601 TIP3 H2   HT     0.417000        1.0080           0
   69149 WT5  6604 TIP3 OH2  OT    -0.834000       15.9994           0
   69150 WT5  6604 TIP3 H1   HT     0.417000        1.0080           0
   69151 WT5  6604 TIP3 H2   HT     0.417000        1.0080           0
   69152 WT5  6606 TIP3 OH2  OT    -0.834000       15.9994           0
   69153 WT5  6606 TIP3 H1   HT     0.417000        1.0080           0
   69154 WT5  6606 TIP3 H2   HT     0.417000        1.0080           0
   69155 WT5  6613 TIP3 OH2  OT    -0.834000       15.9994           0
   69156 WT5  6613 TIP3 H1   HT     0.417000        1.0080           0
   69157 WT5  6613 TIP3 H2   HT     0.417000        1.0080           0
   69158 WT5  6614 TIP3 OH2  OT    -0.834000       15.9994           0
   69159 WT5  6614 TIP3 H1   HT     0.417000        1.0080           0
   69160 WT5  6614 TIP3 H2   HT     0.417000        1.0080           0
   69161 WT5  6615 TIP3 OH2  OT    -0.834000       15.9994           0
   69162 WT5  6615 TIP3 H1   HT     0.417000        1.0080           0
   69163 WT5  6615 TIP3 H2   HT     0.417000        1.0080           0
   69164 WT5  6620 TIP3 OH2  OT    -0.834000       15.9994           0
   69165 WT5  6620 TIP3 H1   HT     0.417000        1.0080           0
   69166 WT5  6620 TIP3 H2   HT     0.417000        1.0080           0
   69167 WT5  6621 TIP3 OH2  OT    -0.834000       15.9994           0
   69168 WT5  6621 TIP3 H1   HT     0.417000        1.0080           0
   69169 WT5  6621 TIP3 H2   HT     0.417000        1.0080           0
   69170 WT5  6622 TIP3 OH2  OT    -0.834000       15.9994           0
   69171 WT5  6622 TIP3 H1   HT     0.417000        1.0080           0
   69172 WT5  6622 TIP3 H2   HT     0.417000        1.0080           0
   69173 WT5  6625 TIP3 OH2  OT    -0.834000       15.9994           0
   69174 WT5  6625 TIP3 H1   HT     0.417000        1.0080           0
   69175 WT5  6625 TIP3 H2   HT     0.417000        1.0080           0
   69176 WT5  6627 TIP3 OH2  OT    -0.834000       15.9994           0
   69177 WT5  6627 TIP3 H1   HT     0.417000        1.0080           0
   69178 WT5  6627 TIP3 H2   HT     0.417000        1.0080           0
   69179 WT5  6629 TIP3 OH2  OT    -0.834000       15.9994           0
   69180 WT5  6629 TIP3 H1   HT     0.417000        1.0080           0
   69181 WT5  6629 TIP3 H2   HT     0.417000        1.0080           0
   69182 WT5  6632 TIP3 OH2  OT    -0.834000       15.9994           0
   69183 WT5  6632 TIP3 H1   HT     0.417000        1.0080           0
   69184 WT5  6632 TIP3 H2   HT     0.417000        1.0080           0
   69185 WT5  6634 TIP3 OH2  OT    -0.834000       15.9994           0
   69186 WT5  6634 TIP3 H1   HT     0.417000        1.0080           0
   69187 WT5  6634 TIP3 H2   HT     0.417000        1.0080           0
   69188 WT5  6643 TIP3 OH2  OT    -0.834000       15.9994           0
   69189 WT5  6643 TIP3 H1   HT     0.417000        1.0080           0
   69190 WT5  6643 TIP3 H2   HT     0.417000        1.0080           0
   69191 WT5  6650 TIP3 OH2  OT    -0.834000       15.9994           0
   69192 WT5  6650 TIP3 H1   HT     0.417000        1.0080           0
   69193 WT5  6650 TIP3 H2   HT     0.417000        1.0080           0
   69194 WT5  6658 TIP3 OH2  OT    -0.834000       15.9994           0
   69195 WT5  6658 TIP3 H1   HT     0.417000        1.0080           0
   69196 WT5  6658 TIP3 H2   HT     0.417000        1.0080           0
   69197 WT5  6659 TIP3 OH2  OT    -0.834000       15.9994           0
   69198 WT5  6659 TIP3 H1   HT     0.417000        1.0080           0
   69199 WT5  6659 TIP3 H2   HT     0.417000        1.0080           0
   69200 WT5  6667 TIP3 OH2  OT    -0.834000       15.9994           0
   69201 WT5  6667 TIP3 H1   HT     0.417000        1.0080           0
   69202 WT5  6667 TIP3 H2   HT     0.417000        1.0080           0
   69203 WT5  6689 TIP3 OH2  OT    -0.834000       15.9994           0
   69204 WT5  6689 TIP3 H1   HT     0.417000        1.0080           0
   69205 WT5  6689 TIP3 H2   HT     0.417000        1.0080           0
   69206 WT5  6690 TIP3 OH2  OT    -0.834000       15.9994           0
   69207 WT5  6690 TIP3 H1   HT     0.417000        1.0080           0
   69208 WT5  6690 TIP3 H2   HT     0.417000        1.0080           0
   69209 WT5  6700 TIP3 OH2  OT    -0.834000       15.9994           0
   69210 WT5  6700 TIP3 H1   HT     0.417000        1.0080           0
   69211 WT5  6700 TIP3 H2   HT     0.417000        1.0080           0
   69212 WT5  6707 TIP3 OH2  OT    -0.834000       15.9994           0
   69213 WT5  6707 TIP3 H1   HT     0.417000        1.0080           0
   69214 WT5  6707 TIP3 H2   HT     0.417000        1.0080           0
   69215 WT5  6714 TIP3 OH2  OT    -0.834000       15.9994           0
   69216 WT5  6714 TIP3 H1   HT     0.417000        1.0080           0
   69217 WT5  6714 TIP3 H2   HT     0.417000        1.0080           0
   69218 WT5  6725 TIP3 OH2  OT    -0.834000       15.9994           0
   69219 WT5  6725 TIP3 H1   HT     0.417000        1.0080           0
   69220 WT5  6725 TIP3 H2   HT     0.417000        1.0080           0
   69221 WT5  6727 TIP3 OH2  OT    -0.834000       15.9994           0
   69222 WT5  6727 TIP3 H1   HT     0.417000        1.0080           0
   69223 WT5  6727 TIP3 H2   HT     0.417000        1.0080           0
   69224 WT5  6733 TIP3 OH2  OT    -0.834000       15.9994           0
   69225 WT5  6733 TIP3 H1   HT     0.417000        1.0080           0
   69226 WT5  6733 TIP3 H2   HT     0.417000        1.0080           0
   69227 WT5  6754 TIP3 OH2  OT    -0.834000       15.9994           0
   69228 WT5  6754 TIP3 H1   HT     0.417000        1.0080           0
   69229 WT5  6754 TIP3 H2   HT     0.417000        1.0080           0
   69230 WT5  6777 TIP3 OH2  OT    -0.834000       15.9994           0
   69231 WT5  6777 TIP3 H1   HT     0.417000        1.0080           0
   69232 WT5  6777 TIP3 H2   HT     0.417000        1.0080           0
   69233 WT5  6952 TIP3 OH2  OT    -0.834000       15.9994           0
   69234 WT5  6952 TIP3 H1   HT     0.417000        1.0080           0
   69235 WT5  6952 TIP3 H2   HT     0.417000        1.0080           0
   69236 WT5  6955 TIP3 OH2  OT    -0.834000       15.9994           0
   69237 WT5  6955 TIP3 H1   HT     0.417000        1.0080           0
   69238 WT5  6955 TIP3 H2   HT     0.417000        1.0080           0
   69239 WT5  6975 TIP3 OH2  OT    -0.834000       15.9994           0
   69240 WT5  6975 TIP3 H1   HT     0.417000        1.0080           0
   69241 WT5  6975 TIP3 H2   HT     0.417000        1.0080           0
   69242 WT5  6976 TIP3 OH2  OT    -0.834000       15.9994           0
   69243 WT5  6976 TIP3 H1   HT     0.417000        1.0080           0
   69244 WT5  6976 TIP3 H2   HT     0.417000        1.0080           0
   69245 WT5  6988 TIP3 OH2  OT    -0.834000       15.9994           0
   69246 WT5  6988 TIP3 H1   HT     0.417000        1.0080           0
   69247 WT5  6988 TIP3 H2   HT     0.417000        1.0080           0
   69248 WT5  6994 TIP3 OH2  OT    -0.834000       15.9994           0
   69249 WT5  6994 TIP3 H1   HT     0.417000        1.0080           0
   69250 WT5  6994 TIP3 H2   HT     0.417000        1.0080           0
   69251 WT5  7001 TIP3 OH2  OT    -0.834000       15.9994           0
   69252 WT5  7001 TIP3 H1   HT     0.417000        1.0080           0
   69253 WT5  7001 TIP3 H2   HT     0.417000        1.0080           0
   69254 WT5  7003 TIP3 OH2  OT    -0.834000       15.9994           0
   69255 WT5  7003 TIP3 H1   HT     0.417000        1.0080           0
   69256 WT5  7003 TIP3 H2   HT     0.417000        1.0080           0
   69257 WT5  7016 TIP3 OH2  OT    -0.834000       15.9994           0
   69258 WT5  7016 TIP3 H1   HT     0.417000        1.0080           0
   69259 WT5  7016 TIP3 H2   HT     0.417000        1.0080           0
   69260 WT5  7017 TIP3 OH2  OT    -0.834000       15.9994           0
   69261 WT5  7017 TIP3 H1   HT     0.417000        1.0080           0
   69262 WT5  7017 TIP3 H2   HT     0.417000        1.0080           0
   69263 WT5  7020 TIP3 OH2  OT    -0.834000       15.9994           0
   69264 WT5  7020 TIP3 H1   HT     0.417000        1.0080           0
   69265 WT5  7020 TIP3 H2   HT     0.417000        1.0080           0
   69266 WT5  7023 TIP3 OH2  OT    -0.834000       15.9994           0
   69267 WT5  7023 TIP3 H1   HT     0.417000        1.0080           0
   69268 WT5  7023 TIP3 H2   HT     0.417000        1.0080           0
   69269 WT5  7027 TIP3 OH2  OT    -0.834000       15.9994           0
   69270 WT5  7027 TIP3 H1   HT     0.417000        1.0080           0
   69271 WT5  7027 TIP3 H2   HT     0.417000        1.0080           0
   69272 WT5  7029 TIP3 OH2  OT    -0.834000       15.9994           0
   69273 WT5  7029 TIP3 H1   HT     0.417000        1.0080           0
   69274 WT5  7029 TIP3 H2   HT     0.417000        1.0080           0
   69275 WT5  7043 TIP3 OH2  OT    -0.834000       15.9994           0
   69276 WT5  7043 TIP3 H1   HT     0.417000        1.0080           0
   69277 WT5  7043 TIP3 H2   HT     0.417000        1.0080           0
   69278 WT5  7046 TIP3 OH2  OT    -0.834000       15.9994           0
   69279 WT5  7046 TIP3 H1   HT     0.417000        1.0080           0
   69280 WT5  7046 TIP3 H2   HT     0.417000        1.0080           0
   69281 WT5  7048 TIP3 OH2  OT    -0.834000       15.9994           0
   69282 WT5  7048 TIP3 H1   HT     0.417000        1.0080           0
   69283 WT5  7048 TIP3 H2   HT     0.417000        1.0080           0
   69284 WT5  7051 TIP3 OH2  OT    -0.834000       15.9994           0
   69285 WT5  7051 TIP3 H1   HT     0.417000        1.0080           0
   69286 WT5  7051 TIP3 H2   HT     0.417000        1.0080           0
   69287 WT5  7053 TIP3 OH2  OT    -0.834000       15.9994           0
   69288 WT5  7053 TIP3 H1   HT     0.417000        1.0080           0
   69289 WT5  7053 TIP3 H2   HT     0.417000        1.0080           0
   69290 WT5  7056 TIP3 OH2  OT    -0.834000       15.9994           0
   69291 WT5  7056 TIP3 H1   HT     0.417000        1.0080           0
   69292 WT5  7056 TIP3 H2   HT     0.417000        1.0080           0
   69293 WT5  7060 TIP3 OH2  OT    -0.834000       15.9994           0
   69294 WT5  7060 TIP3 H1   HT     0.417000        1.0080           0
   69295 WT5  7060 TIP3 H2   HT     0.417000        1.0080           0
   69296 WT5  7065 TIP3 OH2  OT    -0.834000       15.9994           0
   69297 WT5  7065 TIP3 H1   HT     0.417000        1.0080           0
   69298 WT5  7065 TIP3 H2   HT     0.417000        1.0080           0
   69299 WT5  7067 TIP3 OH2  OT    -0.834000       15.9994           0
   69300 WT5  7067 TIP3 H1   HT     0.417000        1.0080           0
   69301 WT5  7067 TIP3 H2   HT     0.417000        1.0080           0
   69302 WT5  7069 TIP3 OH2  OT    -0.834000       15.9994           0
   69303 WT5  7069 TIP3 H1   HT     0.417000        1.0080           0
   69304 WT5  7069 TIP3 H2   HT     0.417000        1.0080           0
   69305 WT5  7074 TIP3 OH2  OT    -0.834000       15.9994           0
   69306 WT5  7074 TIP3 H1   HT     0.417000        1.0080           0
   69307 WT5  7074 TIP3 H2   HT     0.417000        1.0080           0
   69308 WT5  7076 TIP3 OH2  OT    -0.834000       15.9994           0
   69309 WT5  7076 TIP3 H1   HT     0.417000        1.0080           0
   69310 WT5  7076 TIP3 H2   HT     0.417000        1.0080           0
   69311 WT5  7077 TIP3 OH2  OT    -0.834000       15.9994           0
   69312 WT5  7077 TIP3 H1   HT     0.417000        1.0080           0
   69313 WT5  7077 TIP3 H2   HT     0.417000        1.0080           0
   69314 WT5  7083 TIP3 OH2  OT    -0.834000       15.9994           0
   69315 WT5  7083 TIP3 H1   HT     0.417000        1.0080           0
   69316 WT5  7083 TIP3 H2   HT     0.417000        1.0080           0
   69317 WT5  7089 TIP3 OH2  OT    -0.834000       15.9994           0
   69318 WT5  7089 TIP3 H1   HT     0.417000        1.0080           0
   69319 WT5  7089 TIP3 H2   HT     0.417000        1.0080           0
   69320 WT5  7092 TIP3 OH2  OT    -0.834000       15.9994           0
   69321 WT5  7092 TIP3 H1   HT     0.417000        1.0080           0
   69322 WT5  7092 TIP3 H2   HT     0.417000        1.0080           0
   69323 WT5  7100 TIP3 OH2  OT    -0.834000       15.9994           0
   69324 WT5  7100 TIP3 H1   HT     0.417000        1.0080           0
   69325 WT5  7100 TIP3 H2   HT     0.417000        1.0080           0
   69326 WT5  7103 TIP3 OH2  OT    -0.834000       15.9994           0
   69327 WT5  7103 TIP3 H1   HT     0.417000        1.0080           0
   69328 WT5  7103 TIP3 H2   HT     0.417000        1.0080           0
   69329 WT5  7105 TIP3 OH2  OT    -0.834000       15.9994           0
   69330 WT5  7105 TIP3 H1   HT     0.417000        1.0080           0
   69331 WT5  7105 TIP3 H2   HT     0.417000        1.0080           0
   69332 WT5  7106 TIP3 OH2  OT    -0.834000       15.9994           0
   69333 WT5  7106 TIP3 H1   HT     0.417000        1.0080           0
   69334 WT5  7106 TIP3 H2   HT     0.417000        1.0080           0
   69335 WT5  7112 TIP3 OH2  OT    -0.834000       15.9994           0
   69336 WT5  7112 TIP3 H1   HT     0.417000        1.0080           0
   69337 WT5  7112 TIP3 H2   HT     0.417000        1.0080           0
   69338 WT5  7119 TIP3 OH2  OT    -0.834000       15.9994           0
   69339 WT5  7119 TIP3 H1   HT     0.417000        1.0080           0
   69340 WT5  7119 TIP3 H2   HT     0.417000        1.0080           0
   69341 WT5  7120 TIP3 OH2  OT    -0.834000       15.9994           0
   69342 WT5  7120 TIP3 H1   HT     0.417000        1.0080           0
   69343 WT5  7120 TIP3 H2   HT     0.417000        1.0080           0
   69344 WT5  7131 TIP3 OH2  OT    -0.834000       15.9994           0
   69345 WT5  7131 TIP3 H1   HT     0.417000        1.0080           0
   69346 WT5  7131 TIP3 H2   HT     0.417000        1.0080           0
   69347 WT5  7136 TIP3 OH2  OT    -0.834000       15.9994           0
   69348 WT5  7136 TIP3 H1   HT     0.417000        1.0080           0
   69349 WT5  7136 TIP3 H2   HT     0.417000        1.0080           0
   69350 WT5  7137 TIP3 OH2  OT    -0.834000       15.9994           0
   69351 WT5  7137 TIP3 H1   HT     0.417000        1.0080           0
   69352 WT5  7137 TIP3 H2   HT     0.417000        1.0080           0
   69353 WT5  7176 TIP3 OH2  OT    -0.834000       15.9994           0
   69354 WT5  7176 TIP3 H1   HT     0.417000        1.0080           0
   69355 WT5  7176 TIP3 H2   HT     0.417000        1.0080           0
   69356 WT5  7398 TIP3 OH2  OT    -0.834000       15.9994           0
   69357 WT5  7398 TIP3 H1   HT     0.417000        1.0080           0
   69358 WT5  7398 TIP3 H2   HT     0.417000        1.0080           0
   69359 WT5  7415 TIP3 OH2  OT    -0.834000       15.9994           0
   69360 WT5  7415 TIP3 H1   HT     0.417000        1.0080           0
   69361 WT5  7415 TIP3 H2   HT     0.417000        1.0080           0
   69362 WT5  7418 TIP3 OH2  OT    -0.834000       15.9994           0
   69363 WT5  7418 TIP3 H1   HT     0.417000        1.0080           0
   69364 WT5  7418 TIP3 H2   HT     0.417000        1.0080           0
   69365 WT5  7431 TIP3 OH2  OT    -0.834000       15.9994           0
   69366 WT5  7431 TIP3 H1   HT     0.417000        1.0080           0
   69367 WT5  7431 TIP3 H2   HT     0.417000        1.0080           0
   69368 WT5  7437 TIP3 OH2  OT    -0.834000       15.9994           0
   69369 WT5  7437 TIP3 H1   HT     0.417000        1.0080           0
   69370 WT5  7437 TIP3 H2   HT     0.417000        1.0080           0
   69371 WT5  7439 TIP3 OH2  OT    -0.834000       15.9994           0
   69372 WT5  7439 TIP3 H1   HT     0.417000        1.0080           0
   69373 WT5  7439 TIP3 H2   HT     0.417000        1.0080           0
   69374 WT5  7458 TIP3 OH2  OT    -0.834000       15.9994           0
   69375 WT5  7458 TIP3 H1   HT     0.417000        1.0080           0
   69376 WT5  7458 TIP3 H2   HT     0.417000        1.0080           0
   69377 WT5  7461 TIP3 OH2  OT    -0.834000       15.9994           0
   69378 WT5  7461 TIP3 H1   HT     0.417000        1.0080           0
   69379 WT5  7461 TIP3 H2   HT     0.417000        1.0080           0
   69380 WT5  7471 TIP3 OH2  OT    -0.834000       15.9994           0
   69381 WT5  7471 TIP3 H1   HT     0.417000        1.0080           0
   69382 WT5  7471 TIP3 H2   HT     0.417000        1.0080           0
   69383 WT5  7472 TIP3 OH2  OT    -0.834000       15.9994           0
   69384 WT5  7472 TIP3 H1   HT     0.417000        1.0080           0
   69385 WT5  7472 TIP3 H2   HT     0.417000        1.0080           0
   69386 WT5  7473 TIP3 OH2  OT    -0.834000       15.9994           0
   69387 WT5  7473 TIP3 H1   HT     0.417000        1.0080           0
   69388 WT5  7473 TIP3 H2   HT     0.417000        1.0080           0
   69389 WT5  7479 TIP3 OH2  OT    -0.834000       15.9994           0
   69390 WT5  7479 TIP3 H1   HT     0.417000        1.0080           0
   69391 WT5  7479 TIP3 H2   HT     0.417000        1.0080           0
   69392 WT5  7481 TIP3 OH2  OT    -0.834000       15.9994           0
   69393 WT5  7481 TIP3 H1   HT     0.417000        1.0080           0
   69394 WT5  7481 TIP3 H2   HT     0.417000        1.0080           0
   69395 WT5  7490 TIP3 OH2  OT    -0.834000       15.9994           0
   69396 WT5  7490 TIP3 H1   HT     0.417000        1.0080           0
   69397 WT5  7490 TIP3 H2   HT     0.417000        1.0080           0
   69398 WT5  7492 TIP3 OH2  OT    -0.834000       15.9994           0
   69399 WT5  7492 TIP3 H1   HT     0.417000        1.0080           0
   69400 WT5  7492 TIP3 H2   HT     0.417000        1.0080           0
   69401 WT5  7497 TIP3 OH2  OT    -0.834000       15.9994           0
   69402 WT5  7497 TIP3 H1   HT     0.417000        1.0080           0
   69403 WT5  7497 TIP3 H2   HT     0.417000        1.0080           0
   69404 WT5  7498 TIP3 OH2  OT    -0.834000       15.9994           0
   69405 WT5  7498 TIP3 H1   HT     0.417000        1.0080           0
   69406 WT5  7498 TIP3 H2   HT     0.417000        1.0080           0
   69407 WT5  7501 TIP3 OH2  OT    -0.834000       15.9994           0
   69408 WT5  7501 TIP3 H1   HT     0.417000        1.0080           0
   69409 WT5  7501 TIP3 H2   HT     0.417000        1.0080           0
   69410 WT5  7504 TIP3 OH2  OT    -0.834000       15.9994           0
   69411 WT5  7504 TIP3 H1   HT     0.417000        1.0080           0
   69412 WT5  7504 TIP3 H2   HT     0.417000        1.0080           0
   69413 WT5  7506 TIP3 OH2  OT    -0.834000       15.9994           0
   69414 WT5  7506 TIP3 H1   HT     0.417000        1.0080           0
   69415 WT5  7506 TIP3 H2   HT     0.417000        1.0080           0
   69416 WT5  7507 TIP3 OH2  OT    -0.834000       15.9994           0
   69417 WT5  7507 TIP3 H1   HT     0.417000        1.0080           0
   69418 WT5  7507 TIP3 H2   HT     0.417000        1.0080           0
   69419 WT5  7508 TIP3 OH2  OT    -0.834000       15.9994           0
   69420 WT5  7508 TIP3 H1   HT     0.417000        1.0080           0
   69421 WT5  7508 TIP3 H2   HT     0.417000        1.0080           0
   69422 WT5  7509 TIP3 OH2  OT    -0.834000       15.9994           0
   69423 WT5  7509 TIP3 H1   HT     0.417000        1.0080           0
   69424 WT5  7509 TIP3 H2   HT     0.417000        1.0080           0
   69425 WT5  7511 TIP3 OH2  OT    -0.834000       15.9994           0
   69426 WT5  7511 TIP3 H1   HT     0.417000        1.0080           0
   69427 WT5  7511 TIP3 H2   HT     0.417000        1.0080           0
   69428 WT5  7513 TIP3 OH2  OT    -0.834000       15.9994           0
   69429 WT5  7513 TIP3 H1   HT     0.417000        1.0080           0
   69430 WT5  7513 TIP3 H2   HT     0.417000        1.0080           0
   69431 WT5  7516 TIP3 OH2  OT    -0.834000       15.9994           0
   69432 WT5  7516 TIP3 H1   HT     0.417000        1.0080           0
   69433 WT5  7516 TIP3 H2   HT     0.417000        1.0080           0
   69434 WT5  7528 TIP3 OH2  OT    -0.834000       15.9994           0
   69435 WT5  7528 TIP3 H1   HT     0.417000        1.0080           0
   69436 WT5  7528 TIP3 H2   HT     0.417000        1.0080           0
   69437 WT5  7530 TIP3 OH2  OT    -0.834000       15.9994           0
   69438 WT5  7530 TIP3 H1   HT     0.417000        1.0080           0
   69439 WT5  7530 TIP3 H2   HT     0.417000        1.0080           0
   69440 WT5  7555 TIP3 OH2  OT    -0.834000       15.9994           0
   69441 WT5  7555 TIP3 H1   HT     0.417000        1.0080           0
   69442 WT5  7555 TIP3 H2   HT     0.417000        1.0080           0
   69443 WT5  7558 TIP3 OH2  OT    -0.834000       15.9994           0
   69444 WT5  7558 TIP3 H1   HT     0.417000        1.0080           0
   69445 WT5  7558 TIP3 H2   HT     0.417000        1.0080           0
   69446 WT5  7571 TIP3 OH2  OT    -0.834000       15.9994           0
   69447 WT5  7571 TIP3 H1   HT     0.417000        1.0080           0
   69448 WT5  7571 TIP3 H2   HT     0.417000        1.0080           0
   69449 WT5  7573 TIP3 OH2  OT    -0.834000       15.9994           0
   69450 WT5  7573 TIP3 H1   HT     0.417000        1.0080           0
   69451 WT5  7573 TIP3 H2   HT     0.417000        1.0080           0
   69452 WT5  7575 TIP3 OH2  OT    -0.834000       15.9994           0
   69453 WT5  7575 TIP3 H1   HT     0.417000        1.0080           0
   69454 WT5  7575 TIP3 H2   HT     0.417000        1.0080           0
   69455 WT5  7581 TIP3 OH2  OT    -0.834000       15.9994           0
   69456 WT5  7581 TIP3 H1   HT     0.417000        1.0080           0
   69457 WT5  7581 TIP3 H2   HT     0.417000        1.0080           0
   69458 WT5  7608 TIP3 OH2  OT    -0.834000       15.9994           0
   69459 WT5  7608 TIP3 H1   HT     0.417000        1.0080           0
   69460 WT5  7608 TIP3 H2   HT     0.417000        1.0080           0
   69461 WT5  7621 TIP3 OH2  OT    -0.834000       15.9994           0
   69462 WT5  7621 TIP3 H1   HT     0.417000        1.0080           0
   69463 WT5  7621 TIP3 H2   HT     0.417000        1.0080           0
   69464 WT5  7629 TIP3 OH2  OT    -0.834000       15.9994           0
   69465 WT5  7629 TIP3 H1   HT     0.417000        1.0080           0
   69466 WT5  7629 TIP3 H2   HT     0.417000        1.0080           0
   69467 WT5  7707 TIP3 OH2  OT    -0.834000       15.9994           0
   69468 WT5  7707 TIP3 H1   HT     0.417000        1.0080           0
   69469 WT5  7707 TIP3 H2   HT     0.417000        1.0080           0
   69470 WT5  7855 TIP3 OH2  OT    -0.834000       15.9994           0
   69471 WT5  7855 TIP3 H1   HT     0.417000        1.0080           0
   69472 WT5  7855 TIP3 H2   HT     0.417000        1.0080           0
   69473 WT5  7867 TIP3 OH2  OT    -0.834000       15.9994           0
   69474 WT5  7867 TIP3 H1   HT     0.417000        1.0080           0
   69475 WT5  7867 TIP3 H2   HT     0.417000        1.0080           0
   69476 WT5  7869 TIP3 OH2  OT    -0.834000       15.9994           0
   69477 WT5  7869 TIP3 H1   HT     0.417000        1.0080           0
   69478 WT5  7869 TIP3 H2   HT     0.417000        1.0080           0
   69479 WT5  7872 TIP3 OH2  OT    -0.834000       15.9994           0
   69480 WT5  7872 TIP3 H1   HT     0.417000        1.0080           0
   69481 WT5  7872 TIP3 H2   HT     0.417000        1.0080           0
   69482 WT5  7883 TIP3 OH2  OT    -0.834000       15.9994           0
   69483 WT5  7883 TIP3 H1   HT     0.417000        1.0080           0
   69484 WT5  7883 TIP3 H2   HT     0.417000        1.0080           0
   69485 WT5  7886 TIP3 OH2  OT    -0.834000       15.9994           0
   69486 WT5  7886 TIP3 H1   HT     0.417000        1.0080           0
   69487 WT5  7886 TIP3 H2   HT     0.417000        1.0080           0
   69488 WT5  7891 TIP3 OH2  OT    -0.834000       15.9994           0
   69489 WT5  7891 TIP3 H1   HT     0.417000        1.0080           0
   69490 WT5  7891 TIP3 H2   HT     0.417000        1.0080           0
   69491 WT5  7894 TIP3 OH2  OT    -0.834000       15.9994           0
   69492 WT5  7894 TIP3 H1   HT     0.417000        1.0080           0
   69493 WT5  7894 TIP3 H2   HT     0.417000        1.0080           0
   69494 WT5  7895 TIP3 OH2  OT    -0.834000       15.9994           0
   69495 WT5  7895 TIP3 H1   HT     0.417000        1.0080           0
   69496 WT5  7895 TIP3 H2   HT     0.417000        1.0080           0
   69497 WT5  7896 TIP3 OH2  OT    -0.834000       15.9994           0
   69498 WT5  7896 TIP3 H1   HT     0.417000        1.0080           0
   69499 WT5  7896 TIP3 H2   HT     0.417000        1.0080           0
   69500 WT5  7902 TIP3 OH2  OT    -0.834000       15.9994           0
   69501 WT5  7902 TIP3 H1   HT     0.417000        1.0080           0
   69502 WT5  7902 TIP3 H2   HT     0.417000        1.0080           0
   69503 WT5  7904 TIP3 OH2  OT    -0.834000       15.9994           0
   69504 WT5  7904 TIP3 H1   HT     0.417000        1.0080           0
   69505 WT5  7904 TIP3 H2   HT     0.417000        1.0080           0
   69506 WT5  7908 TIP3 OH2  OT    -0.834000       15.9994           0
   69507 WT5  7908 TIP3 H1   HT     0.417000        1.0080           0
   69508 WT5  7908 TIP3 H2   HT     0.417000        1.0080           0
   69509 WT5  7923 TIP3 OH2  OT    -0.834000       15.9994           0
   69510 WT5  7923 TIP3 H1   HT     0.417000        1.0080           0
   69511 WT5  7923 TIP3 H2   HT     0.417000        1.0080           0
   69512 WT5  7924 TIP3 OH2  OT    -0.834000       15.9994           0
   69513 WT5  7924 TIP3 H1   HT     0.417000        1.0080           0
   69514 WT5  7924 TIP3 H2   HT     0.417000        1.0080           0
   69515 WT5  7926 TIP3 OH2  OT    -0.834000       15.9994           0
   69516 WT5  7926 TIP3 H1   HT     0.417000        1.0080           0
   69517 WT5  7926 TIP3 H2   HT     0.417000        1.0080           0
   69518 WT5  7930 TIP3 OH2  OT    -0.834000       15.9994           0
   69519 WT5  7930 TIP3 H1   HT     0.417000        1.0080           0
   69520 WT5  7930 TIP3 H2   HT     0.417000        1.0080           0
   69521 WT5  7931 TIP3 OH2  OT    -0.834000       15.9994           0
   69522 WT5  7931 TIP3 H1   HT     0.417000        1.0080           0
   69523 WT5  7931 TIP3 H2   HT     0.417000        1.0080           0
   69524 WT5  7933 TIP3 OH2  OT    -0.834000       15.9994           0
   69525 WT5  7933 TIP3 H1   HT     0.417000        1.0080           0
   69526 WT5  7933 TIP3 H2   HT     0.417000        1.0080           0
   69527 WT5  7937 TIP3 OH2  OT    -0.834000       15.9994           0
   69528 WT5  7937 TIP3 H1   HT     0.417000        1.0080           0
   69529 WT5  7937 TIP3 H2   HT     0.417000        1.0080           0
   69530 WT5  7938 TIP3 OH2  OT    -0.834000       15.9994           0
   69531 WT5  7938 TIP3 H1   HT     0.417000        1.0080           0
   69532 WT5  7938 TIP3 H2   HT     0.417000        1.0080           0
   69533 WT5  7941 TIP3 OH2  OT    -0.834000       15.9994           0
   69534 WT5  7941 TIP3 H1   HT     0.417000        1.0080           0
   69535 WT5  7941 TIP3 H2   HT     0.417000        1.0080           0
   69536 WT5  7951 TIP3 OH2  OT    -0.834000       15.9994           0
   69537 WT5  7951 TIP3 H1   HT     0.417000        1.0080           0
   69538 WT5  7951 TIP3 H2   HT     0.417000        1.0080           0
   69539 WT5  7955 TIP3 OH2  OT    -0.834000       15.9994           0
   69540 WT5  7955 TIP3 H1   HT     0.417000        1.0080           0
   69541 WT5  7955 TIP3 H2   HT     0.417000        1.0080           0
   69542 WT5  7962 TIP3 OH2  OT    -0.834000       15.9994           0
   69543 WT5  7962 TIP3 H1   HT     0.417000        1.0080           0
   69544 WT5  7962 TIP3 H2   HT     0.417000        1.0080           0
   69545 WT5  7965 TIP3 OH2  OT    -0.834000       15.9994           0
   69546 WT5  7965 TIP3 H1   HT     0.417000        1.0080           0
   69547 WT5  7965 TIP3 H2   HT     0.417000        1.0080           0
   69548 WT5  7978 TIP3 OH2  OT    -0.834000       15.9994           0
   69549 WT5  7978 TIP3 H1   HT     0.417000        1.0080           0
   69550 WT5  7978 TIP3 H2   HT     0.417000        1.0080           0
   69551 WT5  7992 TIP3 OH2  OT    -0.834000       15.9994           0
   69552 WT5  7992 TIP3 H1   HT     0.417000        1.0080           0
   69553 WT5  7992 TIP3 H2   HT     0.417000        1.0080           0
   69554 WT5  8005 TIP3 OH2  OT    -0.834000       15.9994           0
   69555 WT5  8005 TIP3 H1   HT     0.417000        1.0080           0
   69556 WT5  8005 TIP3 H2   HT     0.417000        1.0080           0
   69557 WT5  8006 TIP3 OH2  OT    -0.834000       15.9994           0
   69558 WT5  8006 TIP3 H1   HT     0.417000        1.0080           0
   69559 WT5  8006 TIP3 H2   HT     0.417000        1.0080           0
   69560 WT5  8009 TIP3 OH2  OT    -0.834000       15.9994           0
   69561 WT5  8009 TIP3 H1   HT     0.417000        1.0080           0
   69562 WT5  8009 TIP3 H2   HT     0.417000        1.0080           0
   69563 WT5  8022 TIP3 OH2  OT    -0.834000       15.9994           0
   69564 WT5  8022 TIP3 H1   HT     0.417000        1.0080           0
   69565 WT5  8022 TIP3 H2   HT     0.417000        1.0080           0
   69566 WT5  8037 TIP3 OH2  OT    -0.834000       15.9994           0
   69567 WT5  8037 TIP3 H1   HT     0.417000        1.0080           0
   69568 WT5  8037 TIP3 H2   HT     0.417000        1.0080           0
   69569 WT5  8039 TIP3 OH2  OT    -0.834000       15.9994           0
   69570 WT5  8039 TIP3 H1   HT     0.417000        1.0080           0
   69571 WT5  8039 TIP3 H2   HT     0.417000        1.0080           0
   69572 WT5  8047 TIP3 OH2  OT    -0.834000       15.9994           0
   69573 WT5  8047 TIP3 H1   HT     0.417000        1.0080           0
   69574 WT5  8047 TIP3 H2   HT     0.417000        1.0080           0
   69575 WT5  8056 TIP3 OH2  OT    -0.834000       15.9994           0
   69576 WT5  8056 TIP3 H1   HT     0.417000        1.0080           0
   69577 WT5  8056 TIP3 H2   HT     0.417000        1.0080           0
   69578 WT5  8270 TIP3 OH2  OT    -0.834000       15.9994           0
   69579 WT5  8270 TIP3 H1   HT     0.417000        1.0080           0
   69580 WT5  8270 TIP3 H2   HT     0.417000        1.0080           0
   69581 WT5  8290 TIP3 OH2  OT    -0.834000       15.9994           0
   69582 WT5  8290 TIP3 H1   HT     0.417000        1.0080           0
   69583 WT5  8290 TIP3 H2   HT     0.417000        1.0080           0
   69584 WT5  8309 TIP3 OH2  OT    -0.834000       15.9994           0
   69585 WT5  8309 TIP3 H1   HT     0.417000        1.0080           0
   69586 WT5  8309 TIP3 H2   HT     0.417000        1.0080           0
   69587 WT5  8319 TIP3 OH2  OT    -0.834000       15.9994           0
   69588 WT5  8319 TIP3 H1   HT     0.417000        1.0080           0
   69589 WT5  8319 TIP3 H2   HT     0.417000        1.0080           0
   69590 WT5  8324 TIP3 OH2  OT    -0.834000       15.9994           0
   69591 WT5  8324 TIP3 H1   HT     0.417000        1.0080           0
   69592 WT5  8324 TIP3 H2   HT     0.417000        1.0080           0
   69593 WT5  8326 TIP3 OH2  OT    -0.834000       15.9994           0
   69594 WT5  8326 TIP3 H1   HT     0.417000        1.0080           0
   69595 WT5  8326 TIP3 H2   HT     0.417000        1.0080           0
   69596 WT5  8327 TIP3 OH2  OT    -0.834000       15.9994           0
   69597 WT5  8327 TIP3 H1   HT     0.417000        1.0080           0
   69598 WT5  8327 TIP3 H2   HT     0.417000        1.0080           0
   69599 WT5  8339 TIP3 OH2  OT    -0.834000       15.9994           0
   69600 WT5  8339 TIP3 H1   HT     0.417000        1.0080           0
   69601 WT5  8339 TIP3 H2   HT     0.417000        1.0080           0
   69602 WT5  8355 TIP3 OH2  OT    -0.834000       15.9994           0
   69603 WT5  8355 TIP3 H1   HT     0.417000        1.0080           0
   69604 WT5  8355 TIP3 H2   HT     0.417000        1.0080           0
   69605 WT5  8369 TIP3 OH2  OT    -0.834000       15.9994           0
   69606 WT5  8369 TIP3 H1   HT     0.417000        1.0080           0
   69607 WT5  8369 TIP3 H2   HT     0.417000        1.0080           0
   69608 WT5  8370 TIP3 OH2  OT    -0.834000       15.9994           0
   69609 WT5  8370 TIP3 H1   HT     0.417000        1.0080           0
   69610 WT5  8370 TIP3 H2   HT     0.417000        1.0080           0
   69611 WT5  8377 TIP3 OH2  OT    -0.834000       15.9994           0
   69612 WT5  8377 TIP3 H1   HT     0.417000        1.0080           0
   69613 WT5  8377 TIP3 H2   HT     0.417000        1.0080           0
   69614 WT5  8384 TIP3 OH2  OT    -0.834000       15.9994           0
   69615 WT5  8384 TIP3 H1   HT     0.417000        1.0080           0
   69616 WT5  8384 TIP3 H2   HT     0.417000        1.0080           0
   69617 WT5  8391 TIP3 OH2  OT    -0.834000       15.9994           0
   69618 WT5  8391 TIP3 H1   HT     0.417000        1.0080           0
   69619 WT5  8391 TIP3 H2   HT     0.417000        1.0080           0
   69620 WT5  8396 TIP3 OH2  OT    -0.834000       15.9994           0
   69621 WT5  8396 TIP3 H1   HT     0.417000        1.0080           0
   69622 WT5  8396 TIP3 H2   HT     0.417000        1.0080           0
   69623 WT5  8402 TIP3 OH2  OT    -0.834000       15.9994           0
   69624 WT5  8402 TIP3 H1   HT     0.417000        1.0080           0
   69625 WT5  8402 TIP3 H2   HT     0.417000        1.0080           0
   69626 WT5  8408 TIP3 OH2  OT    -0.834000       15.9994           0
   69627 WT5  8408 TIP3 H1   HT     0.417000        1.0080           0
   69628 WT5  8408 TIP3 H2   HT     0.417000        1.0080           0
   69629 WT5  8411 TIP3 OH2  OT    -0.834000       15.9994           0
   69630 WT5  8411 TIP3 H1   HT     0.417000        1.0080           0
   69631 WT5  8411 TIP3 H2   HT     0.417000        1.0080           0
   69632 WT5  8412 TIP3 OH2  OT    -0.834000       15.9994           0
   69633 WT5  8412 TIP3 H1   HT     0.417000        1.0080           0
   69634 WT5  8412 TIP3 H2   HT     0.417000        1.0080           0
   69635 WT5  8413 TIP3 OH2  OT    -0.834000       15.9994           0
   69636 WT5  8413 TIP3 H1   HT     0.417000        1.0080           0
   69637 WT5  8413 TIP3 H2   HT     0.417000        1.0080           0
   69638 WT5  8416 TIP3 OH2  OT    -0.834000       15.9994           0
   69639 WT5  8416 TIP3 H1   HT     0.417000        1.0080           0
   69640 WT5  8416 TIP3 H2   HT     0.417000        1.0080           0
   69641 WT5  8421 TIP3 OH2  OT    -0.834000       15.9994           0
   69642 WT5  8421 TIP3 H1   HT     0.417000        1.0080           0
   69643 WT5  8421 TIP3 H2   HT     0.417000        1.0080           0
   69644 WT5  8423 TIP3 OH2  OT    -0.834000       15.9994           0
   69645 WT5  8423 TIP3 H1   HT     0.417000        1.0080           0
   69646 WT5  8423 TIP3 H2   HT     0.417000        1.0080           0
   69647 WT5  8425 TIP3 OH2  OT    -0.834000       15.9994           0
   69648 WT5  8425 TIP3 H1   HT     0.417000        1.0080           0
   69649 WT5  8425 TIP3 H2   HT     0.417000        1.0080           0
   69650 WT5  8431 TIP3 OH2  OT    -0.834000       15.9994           0
   69651 WT5  8431 TIP3 H1   HT     0.417000        1.0080           0
   69652 WT5  8431 TIP3 H2   HT     0.417000        1.0080           0
   69653 WT5  8434 TIP3 OH2  OT    -0.834000       15.9994           0
   69654 WT5  8434 TIP3 H1   HT     0.417000        1.0080           0
   69655 WT5  8434 TIP3 H2   HT     0.417000        1.0080           0
   69656 WT5  8439 TIP3 OH2  OT    -0.834000       15.9994           0
   69657 WT5  8439 TIP3 H1   HT     0.417000        1.0080           0
   69658 WT5  8439 TIP3 H2   HT     0.417000        1.0080           0
   69659 WT5  8446 TIP3 OH2  OT    -0.834000       15.9994           0
   69660 WT5  8446 TIP3 H1   HT     0.417000        1.0080           0
   69661 WT5  8446 TIP3 H2   HT     0.417000        1.0080           0
   69662 WT5  8447 TIP3 OH2  OT    -0.834000       15.9994           0
   69663 WT5  8447 TIP3 H1   HT     0.417000        1.0080           0
   69664 WT5  8447 TIP3 H2   HT     0.417000        1.0080           0
   69665 WT5  8450 TIP3 OH2  OT    -0.834000       15.9994           0
   69666 WT5  8450 TIP3 H1   HT     0.417000        1.0080           0
   69667 WT5  8450 TIP3 H2   HT     0.417000        1.0080           0
   69668 WT5  8509 TIP3 OH2  OT    -0.834000       15.9994           0
   69669 WT5  8509 TIP3 H1   HT     0.417000        1.0080           0
   69670 WT5  8509 TIP3 H2   HT     0.417000        1.0080           0
   69671 WT5  8514 TIP3 OH2  OT    -0.834000       15.9994           0
   69672 WT5  8514 TIP3 H1   HT     0.417000        1.0080           0
   69673 WT5  8514 TIP3 H2   HT     0.417000        1.0080           0
   69674 WT5  8753 TIP3 OH2  OT    -0.834000       15.9994           0
   69675 WT5  8753 TIP3 H1   HT     0.417000        1.0080           0
   69676 WT5  8753 TIP3 H2   HT     0.417000        1.0080           0
   69677 WT5  8762 TIP3 OH2  OT    -0.834000       15.9994           0
   69678 WT5  8762 TIP3 H1   HT     0.417000        1.0080           0
   69679 WT5  8762 TIP3 H2   HT     0.417000        1.0080           0
   69680 WT5  8779 TIP3 OH2  OT    -0.834000       15.9994           0
   69681 WT5  8779 TIP3 H1   HT     0.417000        1.0080           0
   69682 WT5  8779 TIP3 H2   HT     0.417000        1.0080           0
   69683 WT5  8790 TIP3 OH2  OT    -0.834000       15.9994           0
   69684 WT5  8790 TIP3 H1   HT     0.417000        1.0080           0
   69685 WT5  8790 TIP3 H2   HT     0.417000        1.0080           0
   69686 WT5  8792 TIP3 OH2  OT    -0.834000       15.9994           0
   69687 WT5  8792 TIP3 H1   HT     0.417000        1.0080           0
   69688 WT5  8792 TIP3 H2   HT     0.417000        1.0080           0
   69689 WT5  8802 TIP3 OH2  OT    -0.834000       15.9994           0
   69690 WT5  8802 TIP3 H1   HT     0.417000        1.0080           0
   69691 WT5  8802 TIP3 H2   HT     0.417000        1.0080           0
   69692 WT5  8803 TIP3 OH2  OT    -0.834000       15.9994           0
   69693 WT5  8803 TIP3 H1   HT     0.417000        1.0080           0
   69694 WT5  8803 TIP3 H2   HT     0.417000        1.0080           0
   69695 WT5  8807 TIP3 OH2  OT    -0.834000       15.9994           0
   69696 WT5  8807 TIP3 H1   HT     0.417000        1.0080           0
   69697 WT5  8807 TIP3 H2   HT     0.417000        1.0080           0
   69698 WT5  8820 TIP3 OH2  OT    -0.834000       15.9994           0
   69699 WT5  8820 TIP3 H1   HT     0.417000        1.0080           0
   69700 WT5  8820 TIP3 H2   HT     0.417000        1.0080           0
   69701 WT5  8823 TIP3 OH2  OT    -0.834000       15.9994           0
   69702 WT5  8823 TIP3 H1   HT     0.417000        1.0080           0
   69703 WT5  8823 TIP3 H2   HT     0.417000        1.0080           0
   69704 WT5  8824 TIP3 OH2  OT    -0.834000       15.9994           0
   69705 WT5  8824 TIP3 H1   HT     0.417000        1.0080           0
   69706 WT5  8824 TIP3 H2   HT     0.417000        1.0080           0
   69707 WT5  8831 TIP3 OH2  OT    -0.834000       15.9994           0
   69708 WT5  8831 TIP3 H1   HT     0.417000        1.0080           0
   69709 WT5  8831 TIP3 H2   HT     0.417000        1.0080           0
   69710 WT5  8833 TIP3 OH2  OT    -0.834000       15.9994           0
   69711 WT5  8833 TIP3 H1   HT     0.417000        1.0080           0
   69712 WT5  8833 TIP3 H2   HT     0.417000        1.0080           0
   69713 WT5  8836 TIP3 OH2  OT    -0.834000       15.9994           0
   69714 WT5  8836 TIP3 H1   HT     0.417000        1.0080           0
   69715 WT5  8836 TIP3 H2   HT     0.417000        1.0080           0
   69716 WT5  8837 TIP3 OH2  OT    -0.834000       15.9994           0
   69717 WT5  8837 TIP3 H1   HT     0.417000        1.0080           0
   69718 WT5  8837 TIP3 H2   HT     0.417000        1.0080           0
   69719 WT5  8838 TIP3 OH2  OT    -0.834000       15.9994           0
   69720 WT5  8838 TIP3 H1   HT     0.417000        1.0080           0
   69721 WT5  8838 TIP3 H2   HT     0.417000        1.0080           0
   69722 WT5  8843 TIP3 OH2  OT    -0.834000       15.9994           0
   69723 WT5  8843 TIP3 H1   HT     0.417000        1.0080           0
   69724 WT5  8843 TIP3 H2   HT     0.417000        1.0080           0
   69725 WT5  8846 TIP3 OH2  OT    -0.834000       15.9994           0
   69726 WT5  8846 TIP3 H1   HT     0.417000        1.0080           0
   69727 WT5  8846 TIP3 H2   HT     0.417000        1.0080           0
   69728 WT5  8848 TIP3 OH2  OT    -0.834000       15.9994           0
   69729 WT5  8848 TIP3 H1   HT     0.417000        1.0080           0
   69730 WT5  8848 TIP3 H2   HT     0.417000        1.0080           0
   69731 WT5  8849 TIP3 OH2  OT    -0.834000       15.9994           0
   69732 WT5  8849 TIP3 H1   HT     0.417000        1.0080           0
   69733 WT5  8849 TIP3 H2   HT     0.417000        1.0080           0
   69734 WT5  8855 TIP3 OH2  OT    -0.834000       15.9994           0
   69735 WT5  8855 TIP3 H1   HT     0.417000        1.0080           0
   69736 WT5  8855 TIP3 H2   HT     0.417000        1.0080           0
   69737 WT5  8859 TIP3 OH2  OT    -0.834000       15.9994           0
   69738 WT5  8859 TIP3 H1   HT     0.417000        1.0080           0
   69739 WT5  8859 TIP3 H2   HT     0.417000        1.0080           0
   69740 WT5  8863 TIP3 OH2  OT    -0.834000       15.9994           0
   69741 WT5  8863 TIP3 H1   HT     0.417000        1.0080           0
   69742 WT5  8863 TIP3 H2   HT     0.417000        1.0080           0
   69743 WT5  8864 TIP3 OH2  OT    -0.834000       15.9994           0
   69744 WT5  8864 TIP3 H1   HT     0.417000        1.0080           0
   69745 WT5  8864 TIP3 H2   HT     0.417000        1.0080           0
   69746 WT5  8866 TIP3 OH2  OT    -0.834000       15.9994           0
   69747 WT5  8866 TIP3 H1   HT     0.417000        1.0080           0
   69748 WT5  8866 TIP3 H2   HT     0.417000        1.0080           0
   69749 WT5  8869 TIP3 OH2  OT    -0.834000       15.9994           0
   69750 WT5  8869 TIP3 H1   HT     0.417000        1.0080           0
   69751 WT5  8869 TIP3 H2   HT     0.417000        1.0080           0
   69752 WT5  8903 TIP3 OH2  OT    -0.834000       15.9994           0
   69753 WT5  8903 TIP3 H1   HT     0.417000        1.0080           0
   69754 WT5  8903 TIP3 H2   HT     0.417000        1.0080           0
   69755 WT5  8907 TIP3 OH2  OT    -0.834000       15.9994           0
   69756 WT5  8907 TIP3 H1   HT     0.417000        1.0080           0
   69757 WT5  8907 TIP3 H2   HT     0.417000        1.0080           0
   69758 WT5  8917 TIP3 OH2  OT    -0.834000       15.9994           0
   69759 WT5  8917 TIP3 H1   HT     0.417000        1.0080           0
   69760 WT5  8917 TIP3 H2   HT     0.417000        1.0080           0
   69761 WT5  8925 TIP3 OH2  OT    -0.834000       15.9994           0
   69762 WT5  8925 TIP3 H1   HT     0.417000        1.0080           0
   69763 WT5  8925 TIP3 H2   HT     0.417000        1.0080           0
   69764 WT5  8942 TIP3 OH2  OT    -0.834000       15.9994           0
   69765 WT5  8942 TIP3 H1   HT     0.417000        1.0080           0
   69766 WT5  8942 TIP3 H2   HT     0.417000        1.0080           0
   69767 WT5  9137 TIP3 OH2  OT    -0.834000       15.9994           0
   69768 WT5  9137 TIP3 H1   HT     0.417000        1.0080           0
   69769 WT5  9137 TIP3 H2   HT     0.417000        1.0080           0
   69770 WT5  9151 TIP3 OH2  OT    -0.834000       15.9994           0
   69771 WT5  9151 TIP3 H1   HT     0.417000        1.0080           0
   69772 WT5  9151 TIP3 H2   HT     0.417000        1.0080           0
   69773 WT5  9165 TIP3 OH2  OT    -0.834000       15.9994           0
   69774 WT5  9165 TIP3 H1   HT     0.417000        1.0080           0
   69775 WT5  9165 TIP3 H2   HT     0.417000        1.0080           0
   69776 WT5  9168 TIP3 OH2  OT    -0.834000       15.9994           0
   69777 WT5  9168 TIP3 H1   HT     0.417000        1.0080           0
   69778 WT5  9168 TIP3 H2   HT     0.417000        1.0080           0
   69779 WT5  9169 TIP3 OH2  OT    -0.834000       15.9994           0
   69780 WT5  9169 TIP3 H1   HT     0.417000        1.0080           0
   69781 WT5  9169 TIP3 H2   HT     0.417000        1.0080           0
   69782 WT5  9212 TIP3 OH2  OT    -0.834000       15.9994           0
   69783 WT5  9212 TIP3 H1   HT     0.417000        1.0080           0
   69784 WT5  9212 TIP3 H2   HT     0.417000        1.0080           0
   69785 WT5  9214 TIP3 OH2  OT    -0.834000       15.9994           0
   69786 WT5  9214 TIP3 H1   HT     0.417000        1.0080           0
   69787 WT5  9214 TIP3 H2   HT     0.417000        1.0080           0
   69788 WT5  9226 TIP3 OH2  OT    -0.834000       15.9994           0
   69789 WT5  9226 TIP3 H1   HT     0.417000        1.0080           0
   69790 WT5  9226 TIP3 H2   HT     0.417000        1.0080           0
   69791 WT5  9230 TIP3 OH2  OT    -0.834000       15.9994           0
   69792 WT5  9230 TIP3 H1   HT     0.417000        1.0080           0
   69793 WT5  9230 TIP3 H2   HT     0.417000        1.0080           0
   69794 WT5  9231 TIP3 OH2  OT    -0.834000       15.9994           0
   69795 WT5  9231 TIP3 H1   HT     0.417000        1.0080           0
   69796 WT5  9231 TIP3 H2   HT     0.417000        1.0080           0
   69797 WT5  9240 TIP3 OH2  OT    -0.834000       15.9994           0
   69798 WT5  9240 TIP3 H1   HT     0.417000        1.0080           0
   69799 WT5  9240 TIP3 H2   HT     0.417000        1.0080           0
   69800 WT5  9246 TIP3 OH2  OT    -0.834000       15.9994           0
   69801 WT5  9246 TIP3 H1   HT     0.417000        1.0080           0
   69802 WT5  9246 TIP3 H2   HT     0.417000        1.0080           0
   69803 WT5  9253 TIP3 OH2  OT    -0.834000       15.9994           0
   69804 WT5  9253 TIP3 H1   HT     0.417000        1.0080           0
   69805 WT5  9253 TIP3 H2   HT     0.417000        1.0080           0
   69806 WT5  9260 TIP3 OH2  OT    -0.834000       15.9994           0
   69807 WT5  9260 TIP3 H1   HT     0.417000        1.0080           0
   69808 WT5  9260 TIP3 H2   HT     0.417000        1.0080           0
   69809 WT5  9261 TIP3 OH2  OT    -0.834000       15.9994           0
   69810 WT5  9261 TIP3 H1   HT     0.417000        1.0080           0
   69811 WT5  9261 TIP3 H2   HT     0.417000        1.0080           0
   69812 WT6  7    TIP3 OH2  OT    -0.834000       15.9994           0
   69813 WT6  7    TIP3 H1   HT     0.417000        1.0080           0
   69814 WT6  7    TIP3 H2   HT     0.417000        1.0080           0
   69815 WT6  8    TIP3 OH2  OT    -0.834000       15.9994           0
   69816 WT6  8    TIP3 H1   HT     0.417000        1.0080           0
   69817 WT6  8    TIP3 H2   HT     0.417000        1.0080           0
   69818 WT6  10   TIP3 OH2  OT    -0.834000       15.9994           0
   69819 WT6  10   TIP3 H1   HT     0.417000        1.0080           0
   69820 WT6  10   TIP3 H2   HT     0.417000        1.0080           0
   69821 WT6  11   TIP3 OH2  OT    -0.834000       15.9994           0
   69822 WT6  11   TIP3 H1   HT     0.417000        1.0080           0
   69823 WT6  11   TIP3 H2   HT     0.417000        1.0080           0
   69824 WT6  16   TIP3 OH2  OT    -0.834000       15.9994           0
   69825 WT6  16   TIP3 H1   HT     0.417000        1.0080           0
   69826 WT6  16   TIP3 H2   HT     0.417000        1.0080           0
   69827 WT6  22   TIP3 OH2  OT    -0.834000       15.9994           0
   69828 WT6  22   TIP3 H1   HT     0.417000        1.0080           0
   69829 WT6  22   TIP3 H2   HT     0.417000        1.0080           0
   69830 WT6  26   TIP3 OH2  OT    -0.834000       15.9994           0
   69831 WT6  26   TIP3 H1   HT     0.417000        1.0080           0
   69832 WT6  26   TIP3 H2   HT     0.417000        1.0080           0
   69833 WT6  32   TIP3 OH2  OT    -0.834000       15.9994           0
   69834 WT6  32   TIP3 H1   HT     0.417000        1.0080           0
   69835 WT6  32   TIP3 H2   HT     0.417000        1.0080           0
   69836 WT6  37   TIP3 OH2  OT    -0.834000       15.9994           0
   69837 WT6  37   TIP3 H1   HT     0.417000        1.0080           0
   69838 WT6  37   TIP3 H2   HT     0.417000        1.0080           0
   69839 WT6  69   TIP3 OH2  OT    -0.834000       15.9994           0
   69840 WT6  69   TIP3 H1   HT     0.417000        1.0080           0
   69841 WT6  69   TIP3 H2   HT     0.417000        1.0080           0
   69842 WT6  71   TIP3 OH2  OT    -0.834000       15.9994           0
   69843 WT6  71   TIP3 H1   HT     0.417000        1.0080           0
   69844 WT6  71   TIP3 H2   HT     0.417000        1.0080           0
   69845 WT6  76   TIP3 OH2  OT    -0.834000       15.9994           0
   69846 WT6  76   TIP3 H1   HT     0.417000        1.0080           0
   69847 WT6  76   TIP3 H2   HT     0.417000        1.0080           0
   69848 WT6  93   TIP3 OH2  OT    -0.834000       15.9994           0
   69849 WT6  93   TIP3 H1   HT     0.417000        1.0080           0
   69850 WT6  93   TIP3 H2   HT     0.417000        1.0080           0
   69851 WT6  94   TIP3 OH2  OT    -0.834000       15.9994           0
   69852 WT6  94   TIP3 H1   HT     0.417000        1.0080           0
   69853 WT6  94   TIP3 H2   HT     0.417000        1.0080           0
   69854 WT6  107  TIP3 OH2  OT    -0.834000       15.9994           0
   69855 WT6  107  TIP3 H1   HT     0.417000        1.0080           0
   69856 WT6  107  TIP3 H2   HT     0.417000        1.0080           0
   69857 WT6  116  TIP3 OH2  OT    -0.834000       15.9994           0
   69858 WT6  116  TIP3 H1   HT     0.417000        1.0080           0
   69859 WT6  116  TIP3 H2   HT     0.417000        1.0080           0
   69860 WT6  125  TIP3 OH2  OT    -0.834000       15.9994           0
   69861 WT6  125  TIP3 H1   HT     0.417000        1.0080           0
   69862 WT6  125  TIP3 H2   HT     0.417000        1.0080           0
   69863 WT6  130  TIP3 OH2  OT    -0.834000       15.9994           0
   69864 WT6  130  TIP3 H1   HT     0.417000        1.0080           0
   69865 WT6  130  TIP3 H2   HT     0.417000        1.0080           0
   69866 WT6  133  TIP3 OH2  OT    -0.834000       15.9994           0
   69867 WT6  133  TIP3 H1   HT     0.417000        1.0080           0
   69868 WT6  133  TIP3 H2   HT     0.417000        1.0080           0
   69869 WT6  407  TIP3 OH2  OT    -0.834000       15.9994           0
   69870 WT6  407  TIP3 H1   HT     0.417000        1.0080           0
   69871 WT6  407  TIP3 H2   HT     0.417000        1.0080           0
   69872 WT6  408  TIP3 OH2  OT    -0.834000       15.9994           0
   69873 WT6  408  TIP3 H1   HT     0.417000        1.0080           0
   69874 WT6  408  TIP3 H2   HT     0.417000        1.0080           0
   69875 WT6  429  TIP3 OH2  OT    -0.834000       15.9994           0
   69876 WT6  429  TIP3 H1   HT     0.417000        1.0080           0
   69877 WT6  429  TIP3 H2   HT     0.417000        1.0080           0
   69878 WT6  432  TIP3 OH2  OT    -0.834000       15.9994           0
   69879 WT6  432  TIP3 H1   HT     0.417000        1.0080           0
   69880 WT6  432  TIP3 H2   HT     0.417000        1.0080           0
   69881 WT6  447  TIP3 OH2  OT    -0.834000       15.9994           0
   69882 WT6  447  TIP3 H1   HT     0.417000        1.0080           0
   69883 WT6  447  TIP3 H2   HT     0.417000        1.0080           0
   69884 WT6  450  TIP3 OH2  OT    -0.834000       15.9994           0
   69885 WT6  450  TIP3 H1   HT     0.417000        1.0080           0
   69886 WT6  450  TIP3 H2   HT     0.417000        1.0080           0
   69887 WT6  453  TIP3 OH2  OT    -0.834000       15.9994           0
   69888 WT6  453  TIP3 H1   HT     0.417000        1.0080           0
   69889 WT6  453  TIP3 H2   HT     0.417000        1.0080           0
   69890 WT6  465  TIP3 OH2  OT    -0.834000       15.9994           0
   69891 WT6  465  TIP3 H1   HT     0.417000        1.0080           0
   69892 WT6  465  TIP3 H2   HT     0.417000        1.0080           0
   69893 WT6  474  TIP3 OH2  OT    -0.834000       15.9994           0
   69894 WT6  474  TIP3 H1   HT     0.417000        1.0080           0
   69895 WT6  474  TIP3 H2   HT     0.417000        1.0080           0
   69896 WT6  484  TIP3 OH2  OT    -0.834000       15.9994           0
   69897 WT6  484  TIP3 H1   HT     0.417000        1.0080           0
   69898 WT6  484  TIP3 H2   HT     0.417000        1.0080           0
   69899 WT6  486  TIP3 OH2  OT    -0.834000       15.9994           0
   69900 WT6  486  TIP3 H1   HT     0.417000        1.0080           0
   69901 WT6  486  TIP3 H2   HT     0.417000        1.0080           0
   69902 WT6  488  TIP3 OH2  OT    -0.834000       15.9994           0
   69903 WT6  488  TIP3 H1   HT     0.417000        1.0080           0
   69904 WT6  488  TIP3 H2   HT     0.417000        1.0080           0
   69905 WT6  490  TIP3 OH2  OT    -0.834000       15.9994           0
   69906 WT6  490  TIP3 H1   HT     0.417000        1.0080           0
   69907 WT6  490  TIP3 H2   HT     0.417000        1.0080           0
   69908 WT6  506  TIP3 OH2  OT    -0.834000       15.9994           0
   69909 WT6  506  TIP3 H1   HT     0.417000        1.0080           0
   69910 WT6  506  TIP3 H2   HT     0.417000        1.0080           0
   69911 WT6  509  TIP3 OH2  OT    -0.834000       15.9994           0
   69912 WT6  509  TIP3 H1   HT     0.417000        1.0080           0
   69913 WT6  509  TIP3 H2   HT     0.417000        1.0080           0
   69914 WT6  510  TIP3 OH2  OT    -0.834000       15.9994           0
   69915 WT6  510  TIP3 H1   HT     0.417000        1.0080           0
   69916 WT6  510  TIP3 H2   HT     0.417000        1.0080           0
   69917 WT6  514  TIP3 OH2  OT    -0.834000       15.9994           0
   69918 WT6  514  TIP3 H1   HT     0.417000        1.0080           0
   69919 WT6  514  TIP3 H2   HT     0.417000        1.0080           0
   69920 WT6  516  TIP3 OH2  OT    -0.834000       15.9994           0
   69921 WT6  516  TIP3 H1   HT     0.417000        1.0080           0
   69922 WT6  516  TIP3 H2   HT     0.417000        1.0080           0
   69923 WT6  538  TIP3 OH2  OT    -0.834000       15.9994           0
   69924 WT6  538  TIP3 H1   HT     0.417000        1.0080           0
   69925 WT6  538  TIP3 H2   HT     0.417000        1.0080           0
   69926 WT6  552  TIP3 OH2  OT    -0.834000       15.9994           0
   69927 WT6  552  TIP3 H1   HT     0.417000        1.0080           0
   69928 WT6  552  TIP3 H2   HT     0.417000        1.0080           0
   69929 WT6  558  TIP3 OH2  OT    -0.834000       15.9994           0
   69930 WT6  558  TIP3 H1   HT     0.417000        1.0080           0
   69931 WT6  558  TIP3 H2   HT     0.417000        1.0080           0
   69932 WT6  597  TIP3 OH2  OT    -0.834000       15.9994           0
   69933 WT6  597  TIP3 H1   HT     0.417000        1.0080           0
   69934 WT6  597  TIP3 H2   HT     0.417000        1.0080           0
   69935 WT6  758  TIP3 OH2  OT    -0.834000       15.9994           0
   69936 WT6  758  TIP3 H1   HT     0.417000        1.0080           0
   69937 WT6  758  TIP3 H2   HT     0.417000        1.0080           0
   69938 WT6  805  TIP3 OH2  OT    -0.834000       15.9994           0
   69939 WT6  805  TIP3 H1   HT     0.417000        1.0080           0
   69940 WT6  805  TIP3 H2   HT     0.417000        1.0080           0
   69941 WT6  822  TIP3 OH2  OT    -0.834000       15.9994           0
   69942 WT6  822  TIP3 H1   HT     0.417000        1.0080           0
   69943 WT6  822  TIP3 H2   HT     0.417000        1.0080           0
   69944 WT6  825  TIP3 OH2  OT    -0.834000       15.9994           0
   69945 WT6  825  TIP3 H1   HT     0.417000        1.0080           0
   69946 WT6  825  TIP3 H2   HT     0.417000        1.0080           0
   69947 WT6  835  TIP3 OH2  OT    -0.834000       15.9994           0
   69948 WT6  835  TIP3 H1   HT     0.417000        1.0080           0
   69949 WT6  835  TIP3 H2   HT     0.417000        1.0080           0
   69950 WT6  849  TIP3 OH2  OT    -0.834000       15.9994           0
   69951 WT6  849  TIP3 H1   HT     0.417000        1.0080           0
   69952 WT6  849  TIP3 H2   HT     0.417000        1.0080           0
   69953 WT6  852  TIP3 OH2  OT    -0.834000       15.9994           0
   69954 WT6  852  TIP3 H1   HT     0.417000        1.0080           0
   69955 WT6  852  TIP3 H2   HT     0.417000        1.0080           0
   69956 WT6  858  TIP3 OH2  OT    -0.834000       15.9994           0
   69957 WT6  858  TIP3 H1   HT     0.417000        1.0080           0
   69958 WT6  858  TIP3 H2   HT     0.417000        1.0080           0
   69959 WT6  889  TIP3 OH2  OT    -0.834000       15.9994           0
   69960 WT6  889  TIP3 H1   HT     0.417000        1.0080           0
   69961 WT6  889  TIP3 H2   HT     0.417000        1.0080           0
   69962 WT6  906  TIP3 OH2  OT    -0.834000       15.9994           0
   69963 WT6  906  TIP3 H1   HT     0.417000        1.0080           0
   69964 WT6  906  TIP3 H2   HT     0.417000        1.0080           0
   69965 WT6  907  TIP3 OH2  OT    -0.834000       15.9994           0
   69966 WT6  907  TIP3 H1   HT     0.417000        1.0080           0
   69967 WT6  907  TIP3 H2   HT     0.417000        1.0080           0
   69968 WT6  912  TIP3 OH2  OT    -0.834000       15.9994           0
   69969 WT6  912  TIP3 H1   HT     0.417000        1.0080           0
   69970 WT6  912  TIP3 H2   HT     0.417000        1.0080           0
   69971 WT6  918  TIP3 OH2  OT    -0.834000       15.9994           0
   69972 WT6  918  TIP3 H1   HT     0.417000        1.0080           0
   69973 WT6  918  TIP3 H2   HT     0.417000        1.0080           0
   69974 WT6  928  TIP3 OH2  OT    -0.834000       15.9994           0
   69975 WT6  928  TIP3 H1   HT     0.417000        1.0080           0
   69976 WT6  928  TIP3 H2   HT     0.417000        1.0080           0
   69977 WT6  936  TIP3 OH2  OT    -0.834000       15.9994           0
   69978 WT6  936  TIP3 H1   HT     0.417000        1.0080           0
   69979 WT6  936  TIP3 H2   HT     0.417000        1.0080           0
   69980 WT6  940  TIP3 OH2  OT    -0.834000       15.9994           0
   69981 WT6  940  TIP3 H1   HT     0.417000        1.0080           0
   69982 WT6  940  TIP3 H2   HT     0.417000        1.0080           0
   69983 WT6  947  TIP3 OH2  OT    -0.834000       15.9994           0
   69984 WT6  947  TIP3 H1   HT     0.417000        1.0080           0
   69985 WT6  947  TIP3 H2   HT     0.417000        1.0080           0
   69986 WT6  948  TIP3 OH2  OT    -0.834000       15.9994           0
   69987 WT6  948  TIP3 H1   HT     0.417000        1.0080           0
   69988 WT6  948  TIP3 H2   HT     0.417000        1.0080           0
   69989 WT6  953  TIP3 OH2  OT    -0.834000       15.9994           0
   69990 WT6  953  TIP3 H1   HT     0.417000        1.0080           0
   69991 WT6  953  TIP3 H2   HT     0.417000        1.0080           0
   69992 WT6  975  TIP3 OH2  OT    -0.834000       15.9994           0
   69993 WT6  975  TIP3 H1   HT     0.417000        1.0080           0
   69994 WT6  975  TIP3 H2   HT     0.417000        1.0080           0
   69995 WT6  992  TIP3 OH2  OT    -0.834000       15.9994           0
   69996 WT6  992  TIP3 H1   HT     0.417000        1.0080           0
   69997 WT6  992  TIP3 H2   HT     0.417000        1.0080           0
   69998 WT6  993  TIP3 OH2  OT    -0.834000       15.9994           0
   69999 WT6  993  TIP3 H1   HT     0.417000        1.0080           0
   70000 WT6  993  TIP3 H2   HT     0.417000        1.0080           0
   70001 WT6  1272 TIP3 OH2  OT    -0.834000       15.9994           0
   70002 WT6  1272 TIP3 H1   HT     0.417000        1.0080           0
   70003 WT6  1272 TIP3 H2   HT     0.417000        1.0080           0
   70004 WT6  1274 TIP3 OH2  OT    -0.834000       15.9994           0
   70005 WT6  1274 TIP3 H1   HT     0.417000        1.0080           0
   70006 WT6  1274 TIP3 H2   HT     0.417000        1.0080           0
   70007 WT6  1298 TIP3 OH2  OT    -0.834000       15.9994           0
   70008 WT6  1298 TIP3 H1   HT     0.417000        1.0080           0
   70009 WT6  1298 TIP3 H2   HT     0.417000        1.0080           0
   70010 WT6  1301 TIP3 OH2  OT    -0.834000       15.9994           0
   70011 WT6  1301 TIP3 H1   HT     0.417000        1.0080           0
   70012 WT6  1301 TIP3 H2   HT     0.417000        1.0080           0
   70013 WT6  1305 TIP3 OH2  OT    -0.834000       15.9994           0
   70014 WT6  1305 TIP3 H1   HT     0.417000        1.0080           0
   70015 WT6  1305 TIP3 H2   HT     0.417000        1.0080           0
   70016 WT6  1309 TIP3 OH2  OT    -0.834000       15.9994           0
   70017 WT6  1309 TIP3 H1   HT     0.417000        1.0080           0
   70018 WT6  1309 TIP3 H2   HT     0.417000        1.0080           0
   70019 WT6  1310 TIP3 OH2  OT    -0.834000       15.9994           0
   70020 WT6  1310 TIP3 H1   HT     0.417000        1.0080           0
   70021 WT6  1310 TIP3 H2   HT     0.417000        1.0080           0
   70022 WT6  1317 TIP3 OH2  OT    -0.834000       15.9994           0
   70023 WT6  1317 TIP3 H1   HT     0.417000        1.0080           0
   70024 WT6  1317 TIP3 H2   HT     0.417000        1.0080           0
   70025 WT6  1322 TIP3 OH2  OT    -0.834000       15.9994           0
   70026 WT6  1322 TIP3 H1   HT     0.417000        1.0080           0
   70027 WT6  1322 TIP3 H2   HT     0.417000        1.0080           0
   70028 WT6  1326 TIP3 OH2  OT    -0.834000       15.9994           0
   70029 WT6  1326 TIP3 H1   HT     0.417000        1.0080           0
   70030 WT6  1326 TIP3 H2   HT     0.417000        1.0080           0
   70031 WT6  1327 TIP3 OH2  OT    -0.834000       15.9994           0
   70032 WT6  1327 TIP3 H1   HT     0.417000        1.0080           0
   70033 WT6  1327 TIP3 H2   HT     0.417000        1.0080           0
   70034 WT6  1331 TIP3 OH2  OT    -0.834000       15.9994           0
   70035 WT6  1331 TIP3 H1   HT     0.417000        1.0080           0
   70036 WT6  1331 TIP3 H2   HT     0.417000        1.0080           0
   70037 WT6  1332 TIP3 OH2  OT    -0.834000       15.9994           0
   70038 WT6  1332 TIP3 H1   HT     0.417000        1.0080           0
   70039 WT6  1332 TIP3 H2   HT     0.417000        1.0080           0
   70040 WT6  1370 TIP3 OH2  OT    -0.834000       15.9994           0
   70041 WT6  1370 TIP3 H1   HT     0.417000        1.0080           0
   70042 WT6  1370 TIP3 H2   HT     0.417000        1.0080           0
   70043 WT6  1372 TIP3 OH2  OT    -0.834000       15.9994           0
   70044 WT6  1372 TIP3 H1   HT     0.417000        1.0080           0
   70045 WT6  1372 TIP3 H2   HT     0.417000        1.0080           0
   70046 WT6  1379 TIP3 OH2  OT    -0.834000       15.9994           0
   70047 WT6  1379 TIP3 H1   HT     0.417000        1.0080           0
   70048 WT6  1379 TIP3 H2   HT     0.417000        1.0080           0
   70049 WT6  1386 TIP3 OH2  OT    -0.834000       15.9994           0
   70050 WT6  1386 TIP3 H1   HT     0.417000        1.0080           0
   70051 WT6  1386 TIP3 H2   HT     0.417000        1.0080           0
   70052 WT6  1398 TIP3 OH2  OT    -0.834000       15.9994           0
   70053 WT6  1398 TIP3 H1   HT     0.417000        1.0080           0
   70054 WT6  1398 TIP3 H2   HT     0.417000        1.0080           0
   70055 WT6  1418 TIP3 OH2  OT    -0.834000       15.9994           0
   70056 WT6  1418 TIP3 H1   HT     0.417000        1.0080           0
   70057 WT6  1418 TIP3 H2   HT     0.417000        1.0080           0
   70058 WT6  1428 TIP3 OH2  OT    -0.834000       15.9994           0
   70059 WT6  1428 TIP3 H1   HT     0.417000        1.0080           0
   70060 WT6  1428 TIP3 H2   HT     0.417000        1.0080           0
   70061 WT6  1440 TIP3 OH2  OT    -0.834000       15.9994           0
   70062 WT6  1440 TIP3 H1   HT     0.417000        1.0080           0
   70063 WT6  1440 TIP3 H2   HT     0.417000        1.0080           0
   70064 WT6  1650 TIP3 OH2  OT    -0.834000       15.9994           0
   70065 WT6  1650 TIP3 H1   HT     0.417000        1.0080           0
   70066 WT6  1650 TIP3 H2   HT     0.417000        1.0080           0
   70067 WT6  1692 TIP3 OH2  OT    -0.834000       15.9994           0
   70068 WT6  1692 TIP3 H1   HT     0.417000        1.0080           0
   70069 WT6  1692 TIP3 H2   HT     0.417000        1.0080           0
   70070 WT6  1707 TIP3 OH2  OT    -0.834000       15.9994           0
   70071 WT6  1707 TIP3 H1   HT     0.417000        1.0080           0
   70072 WT6  1707 TIP3 H2   HT     0.417000        1.0080           0
   70073 WT6  1711 TIP3 OH2  OT    -0.834000       15.9994           0
   70074 WT6  1711 TIP3 H1   HT     0.417000        1.0080           0
   70075 WT6  1711 TIP3 H2   HT     0.417000        1.0080           0
   70076 WT6  1712 TIP3 OH2  OT    -0.834000       15.9994           0
   70077 WT6  1712 TIP3 H1   HT     0.417000        1.0080           0
   70078 WT6  1712 TIP3 H2   HT     0.417000        1.0080           0
   70079 WT6  1718 TIP3 OH2  OT    -0.834000       15.9994           0
   70080 WT6  1718 TIP3 H1   HT     0.417000        1.0080           0
   70081 WT6  1718 TIP3 H2   HT     0.417000        1.0080           0
   70082 WT6  1723 TIP3 OH2  OT    -0.834000       15.9994           0
   70083 WT6  1723 TIP3 H1   HT     0.417000        1.0080           0
   70084 WT6  1723 TIP3 H2   HT     0.417000        1.0080           0
   70085 WT6  1725 TIP3 OH2  OT    -0.834000       15.9994           0
   70086 WT6  1725 TIP3 H1   HT     0.417000        1.0080           0
   70087 WT6  1725 TIP3 H2   HT     0.417000        1.0080           0
   70088 WT6  1730 TIP3 OH2  OT    -0.834000       15.9994           0
   70089 WT6  1730 TIP3 H1   HT     0.417000        1.0080           0
   70090 WT6  1730 TIP3 H2   HT     0.417000        1.0080           0
   70091 WT6  1744 TIP3 OH2  OT    -0.834000       15.9994           0
   70092 WT6  1744 TIP3 H1   HT     0.417000        1.0080           0
   70093 WT6  1744 TIP3 H2   HT     0.417000        1.0080           0
   70094 WT6  1748 TIP3 OH2  OT    -0.834000       15.9994           0
   70095 WT6  1748 TIP3 H1   HT     0.417000        1.0080           0
   70096 WT6  1748 TIP3 H2   HT     0.417000        1.0080           0
   70097 WT6  1755 TIP3 OH2  OT    -0.834000       15.9994           0
   70098 WT6  1755 TIP3 H1   HT     0.417000        1.0080           0
   70099 WT6  1755 TIP3 H2   HT     0.417000        1.0080           0
   70100 WT6  1764 TIP3 OH2  OT    -0.834000       15.9994           0
   70101 WT6  1764 TIP3 H1   HT     0.417000        1.0080           0
   70102 WT6  1764 TIP3 H2   HT     0.417000        1.0080           0
   70103 WT6  1771 TIP3 OH2  OT    -0.834000       15.9994           0
   70104 WT6  1771 TIP3 H1   HT     0.417000        1.0080           0
   70105 WT6  1771 TIP3 H2   HT     0.417000        1.0080           0
   70106 WT6  1772 TIP3 OH2  OT    -0.834000       15.9994           0
   70107 WT6  1772 TIP3 H1   HT     0.417000        1.0080           0
   70108 WT6  1772 TIP3 H2   HT     0.417000        1.0080           0
   70109 WT6  1775 TIP3 OH2  OT    -0.834000       15.9994           0
   70110 WT6  1775 TIP3 H1   HT     0.417000        1.0080           0
   70111 WT6  1775 TIP3 H2   HT     0.417000        1.0080           0
   70112 WT6  1776 TIP3 OH2  OT    -0.834000       15.9994           0
   70113 WT6  1776 TIP3 H1   HT     0.417000        1.0080           0
   70114 WT6  1776 TIP3 H2   HT     0.417000        1.0080           0
   70115 WT6  1794 TIP3 OH2  OT    -0.834000       15.9994           0
   70116 WT6  1794 TIP3 H1   HT     0.417000        1.0080           0
   70117 WT6  1794 TIP3 H2   HT     0.417000        1.0080           0
   70118 WT6  1795 TIP3 OH2  OT    -0.834000       15.9994           0
   70119 WT6  1795 TIP3 H1   HT     0.417000        1.0080           0
   70120 WT6  1795 TIP3 H2   HT     0.417000        1.0080           0
   70121 WT6  1796 TIP3 OH2  OT    -0.834000       15.9994           0
   70122 WT6  1796 TIP3 H1   HT     0.417000        1.0080           0
   70123 WT6  1796 TIP3 H2   HT     0.417000        1.0080           0
   70124 WT6  1811 TIP3 OH2  OT    -0.834000       15.9994           0
   70125 WT6  1811 TIP3 H1   HT     0.417000        1.0080           0
   70126 WT6  1811 TIP3 H2   HT     0.417000        1.0080           0
   70127 WT6  1820 TIP3 OH2  OT    -0.834000       15.9994           0
   70128 WT6  1820 TIP3 H1   HT     0.417000        1.0080           0
   70129 WT6  1820 TIP3 H2   HT     0.417000        1.0080           0
   70130 WT6  1824 TIP3 OH2  OT    -0.834000       15.9994           0
   70131 WT6  1824 TIP3 H1   HT     0.417000        1.0080           0
   70132 WT6  1824 TIP3 H2   HT     0.417000        1.0080           0
   70133 WT6  1831 TIP3 OH2  OT    -0.834000       15.9994           0
   70134 WT6  1831 TIP3 H1   HT     0.417000        1.0080           0
   70135 WT6  1831 TIP3 H2   HT     0.417000        1.0080           0
   70136 WT6  1862 TIP3 OH2  OT    -0.834000       15.9994           0
   70137 WT6  1862 TIP3 H1   HT     0.417000        1.0080           0
   70138 WT6  1862 TIP3 H2   HT     0.417000        1.0080           0
   70139 WT6  1938 TIP3 OH2  OT    -0.834000       15.9994           0
   70140 WT6  1938 TIP3 H1   HT     0.417000        1.0080           0
   70141 WT6  1938 TIP3 H2   HT     0.417000        1.0080           0
   70142 WT6  2123 TIP3 OH2  OT    -0.834000       15.9994           0
   70143 WT6  2123 TIP3 H1   HT     0.417000        1.0080           0
   70144 WT6  2123 TIP3 H2   HT     0.417000        1.0080           0
   70145 WT6  2133 TIP3 OH2  OT    -0.834000       15.9994           0
   70146 WT6  2133 TIP3 H1   HT     0.417000        1.0080           0
   70147 WT6  2133 TIP3 H2   HT     0.417000        1.0080           0
   70148 WT6  2151 TIP3 OH2  OT    -0.834000       15.9994           0
   70149 WT6  2151 TIP3 H1   HT     0.417000        1.0080           0
   70150 WT6  2151 TIP3 H2   HT     0.417000        1.0080           0
   70151 WT6  2165 TIP3 OH2  OT    -0.834000       15.9994           0
   70152 WT6  2165 TIP3 H1   HT     0.417000        1.0080           0
   70153 WT6  2165 TIP3 H2   HT     0.417000        1.0080           0
   70154 WT6  2167 TIP3 OH2  OT    -0.834000       15.9994           0
   70155 WT6  2167 TIP3 H1   HT     0.417000        1.0080           0
   70156 WT6  2167 TIP3 H2   HT     0.417000        1.0080           0
   70157 WT6  2172 TIP3 OH2  OT    -0.834000       15.9994           0
   70158 WT6  2172 TIP3 H1   HT     0.417000        1.0080           0
   70159 WT6  2172 TIP3 H2   HT     0.417000        1.0080           0
   70160 WT6  2185 TIP3 OH2  OT    -0.834000       15.9994           0
   70161 WT6  2185 TIP3 H1   HT     0.417000        1.0080           0
   70162 WT6  2185 TIP3 H2   HT     0.417000        1.0080           0
   70163 WT6  2186 TIP3 OH2  OT    -0.834000       15.9994           0
   70164 WT6  2186 TIP3 H1   HT     0.417000        1.0080           0
   70165 WT6  2186 TIP3 H2   HT     0.417000        1.0080           0
   70166 WT6  2187 TIP3 OH2  OT    -0.834000       15.9994           0
   70167 WT6  2187 TIP3 H1   HT     0.417000        1.0080           0
   70168 WT6  2187 TIP3 H2   HT     0.417000        1.0080           0
   70169 WT6  2198 TIP3 OH2  OT    -0.834000       15.9994           0
   70170 WT6  2198 TIP3 H1   HT     0.417000        1.0080           0
   70171 WT6  2198 TIP3 H2   HT     0.417000        1.0080           0
   70172 WT6  2211 TIP3 OH2  OT    -0.834000       15.9994           0
   70173 WT6  2211 TIP3 H1   HT     0.417000        1.0080           0
   70174 WT6  2211 TIP3 H2   HT     0.417000        1.0080           0
   70175 WT6  2227 TIP3 OH2  OT    -0.834000       15.9994           0
   70176 WT6  2227 TIP3 H1   HT     0.417000        1.0080           0
   70177 WT6  2227 TIP3 H2   HT     0.417000        1.0080           0
   70178 WT6  2231 TIP3 OH2  OT    -0.834000       15.9994           0
   70179 WT6  2231 TIP3 H1   HT     0.417000        1.0080           0
   70180 WT6  2231 TIP3 H2   HT     0.417000        1.0080           0
   70181 WT6  2237 TIP3 OH2  OT    -0.834000       15.9994           0
   70182 WT6  2237 TIP3 H1   HT     0.417000        1.0080           0
   70183 WT6  2237 TIP3 H2   HT     0.417000        1.0080           0
   70184 WT6  2240 TIP3 OH2  OT    -0.834000       15.9994           0
   70185 WT6  2240 TIP3 H1   HT     0.417000        1.0080           0
   70186 WT6  2240 TIP3 H2   HT     0.417000        1.0080           0
   70187 WT6  2244 TIP3 OH2  OT    -0.834000       15.9994           0
   70188 WT6  2244 TIP3 H1   HT     0.417000        1.0080           0
   70189 WT6  2244 TIP3 H2   HT     0.417000        1.0080           0
   70190 WT6  2250 TIP3 OH2  OT    -0.834000       15.9994           0
   70191 WT6  2250 TIP3 H1   HT     0.417000        1.0080           0
   70192 WT6  2250 TIP3 H2   HT     0.417000        1.0080           0
   70193 WT6  2257 TIP3 OH2  OT    -0.834000       15.9994           0
   70194 WT6  2257 TIP3 H1   HT     0.417000        1.0080           0
   70195 WT6  2257 TIP3 H2   HT     0.417000        1.0080           0
   70196 WT6  2258 TIP3 OH2  OT    -0.834000       15.9994           0
   70197 WT6  2258 TIP3 H1   HT     0.417000        1.0080           0
   70198 WT6  2258 TIP3 H2   HT     0.417000        1.0080           0
   70199 WT6  2272 TIP3 OH2  OT    -0.834000       15.9994           0
   70200 WT6  2272 TIP3 H1   HT     0.417000        1.0080           0
   70201 WT6  2272 TIP3 H2   HT     0.417000        1.0080           0
   70202 WT6  2278 TIP3 OH2  OT    -0.834000       15.9994           0
   70203 WT6  2278 TIP3 H1   HT     0.417000        1.0080           0
   70204 WT6  2278 TIP3 H2   HT     0.417000        1.0080           0
   70205 WT6  2280 TIP3 OH2  OT    -0.834000       15.9994           0
   70206 WT6  2280 TIP3 H1   HT     0.417000        1.0080           0
   70207 WT6  2280 TIP3 H2   HT     0.417000        1.0080           0
   70208 WT6  2285 TIP3 OH2  OT    -0.834000       15.9994           0
   70209 WT6  2285 TIP3 H1   HT     0.417000        1.0080           0
   70210 WT6  2285 TIP3 H2   HT     0.417000        1.0080           0
   70211 WT6  2292 TIP3 OH2  OT    -0.834000       15.9994           0
   70212 WT6  2292 TIP3 H1   HT     0.417000        1.0080           0
   70213 WT6  2292 TIP3 H2   HT     0.417000        1.0080           0
   70214 WT6  2295 TIP3 OH2  OT    -0.834000       15.9994           0
   70215 WT6  2295 TIP3 H1   HT     0.417000        1.0080           0
   70216 WT6  2295 TIP3 H2   HT     0.417000        1.0080           0
   70217 WT6  2298 TIP3 OH2  OT    -0.834000       15.9994           0
   70218 WT6  2298 TIP3 H1   HT     0.417000        1.0080           0
   70219 WT6  2298 TIP3 H2   HT     0.417000        1.0080           0
   70220 WT6  2304 TIP3 OH2  OT    -0.834000       15.9994           0
   70221 WT6  2304 TIP3 H1   HT     0.417000        1.0080           0
   70222 WT6  2304 TIP3 H2   HT     0.417000        1.0080           0
   70223 WT6  2305 TIP3 OH2  OT    -0.834000       15.9994           0
   70224 WT6  2305 TIP3 H1   HT     0.417000        1.0080           0
   70225 WT6  2305 TIP3 H2   HT     0.417000        1.0080           0
   70226 WT6  2316 TIP3 OH2  OT    -0.834000       15.9994           0
   70227 WT6  2316 TIP3 H1   HT     0.417000        1.0080           0
   70228 WT6  2316 TIP3 H2   HT     0.417000        1.0080           0
   70229 WT6  2362 TIP3 OH2  OT    -0.834000       15.9994           0
   70230 WT6  2362 TIP3 H1   HT     0.417000        1.0080           0
   70231 WT6  2362 TIP3 H2   HT     0.417000        1.0080           0
   70232 WT6  2587 TIP3 OH2  OT    -0.834000       15.9994           0
   70233 WT6  2587 TIP3 H1   HT     0.417000        1.0080           0
   70234 WT6  2587 TIP3 H2   HT     0.417000        1.0080           0
   70235 WT6  2590 TIP3 OH2  OT    -0.834000       15.9994           0
   70236 WT6  2590 TIP3 H1   HT     0.417000        1.0080           0
   70237 WT6  2590 TIP3 H2   HT     0.417000        1.0080           0
   70238 WT6  2591 TIP3 OH2  OT    -0.834000       15.9994           0
   70239 WT6  2591 TIP3 H1   HT     0.417000        1.0080           0
   70240 WT6  2591 TIP3 H2   HT     0.417000        1.0080           0
   70241 WT6  2606 TIP3 OH2  OT    -0.834000       15.9994           0
   70242 WT6  2606 TIP3 H1   HT     0.417000        1.0080           0
   70243 WT6  2606 TIP3 H2   HT     0.417000        1.0080           0
   70244 WT6  2608 TIP3 OH2  OT    -0.834000       15.9994           0
   70245 WT6  2608 TIP3 H1   HT     0.417000        1.0080           0
   70246 WT6  2608 TIP3 H2   HT     0.417000        1.0080           0
   70247 WT6  2617 TIP3 OH2  OT    -0.834000       15.9994           0
   70248 WT6  2617 TIP3 H1   HT     0.417000        1.0080           0
   70249 WT6  2617 TIP3 H2   HT     0.417000        1.0080           0
   70250 WT6  2624 TIP3 OH2  OT    -0.834000       15.9994           0
   70251 WT6  2624 TIP3 H1   HT     0.417000        1.0080           0
   70252 WT6  2624 TIP3 H2   HT     0.417000        1.0080           0
   70253 WT6  2630 TIP3 OH2  OT    -0.834000       15.9994           0
   70254 WT6  2630 TIP3 H1   HT     0.417000        1.0080           0
   70255 WT6  2630 TIP3 H2   HT     0.417000        1.0080           0
   70256 WT6  2635 TIP3 OH2  OT    -0.834000       15.9994           0
   70257 WT6  2635 TIP3 H1   HT     0.417000        1.0080           0
   70258 WT6  2635 TIP3 H2   HT     0.417000        1.0080           0
   70259 WT6  2643 TIP3 OH2  OT    -0.834000       15.9994           0
   70260 WT6  2643 TIP3 H1   HT     0.417000        1.0080           0
   70261 WT6  2643 TIP3 H2   HT     0.417000        1.0080           0
   70262 WT6  2650 TIP3 OH2  OT    -0.834000       15.9994           0
   70263 WT6  2650 TIP3 H1   HT     0.417000        1.0080           0
   70264 WT6  2650 TIP3 H2   HT     0.417000        1.0080           0
   70265 WT6  2652 TIP3 OH2  OT    -0.834000       15.9994           0
   70266 WT6  2652 TIP3 H1   HT     0.417000        1.0080           0
   70267 WT6  2652 TIP3 H2   HT     0.417000        1.0080           0
   70268 WT6  2662 TIP3 OH2  OT    -0.834000       15.9994           0
   70269 WT6  2662 TIP3 H1   HT     0.417000        1.0080           0
   70270 WT6  2662 TIP3 H2   HT     0.417000        1.0080           0
   70271 WT6  2667 TIP3 OH2  OT    -0.834000       15.9994           0
   70272 WT6  2667 TIP3 H1   HT     0.417000        1.0080           0
   70273 WT6  2667 TIP3 H2   HT     0.417000        1.0080           0
   70274 WT6  2673 TIP3 OH2  OT    -0.834000       15.9994           0
   70275 WT6  2673 TIP3 H1   HT     0.417000        1.0080           0
   70276 WT6  2673 TIP3 H2   HT     0.417000        1.0080           0
   70277 WT6  2674 TIP3 OH2  OT    -0.834000       15.9994           0
   70278 WT6  2674 TIP3 H1   HT     0.417000        1.0080           0
   70279 WT6  2674 TIP3 H2   HT     0.417000        1.0080           0
   70280 WT6  2675 TIP3 OH2  OT    -0.834000       15.9994           0
   70281 WT6  2675 TIP3 H1   HT     0.417000        1.0080           0
   70282 WT6  2675 TIP3 H2   HT     0.417000        1.0080           0
   70283 WT6  2681 TIP3 OH2  OT    -0.834000       15.9994           0
   70284 WT6  2681 TIP3 H1   HT     0.417000        1.0080           0
   70285 WT6  2681 TIP3 H2   HT     0.417000        1.0080           0
   70286 WT6  2683 TIP3 OH2  OT    -0.834000       15.9994           0
   70287 WT6  2683 TIP3 H1   HT     0.417000        1.0080           0
   70288 WT6  2683 TIP3 H2   HT     0.417000        1.0080           0
   70289 WT6  2684 TIP3 OH2  OT    -0.834000       15.9994           0
   70290 WT6  2684 TIP3 H1   HT     0.417000        1.0080           0
   70291 WT6  2684 TIP3 H2   HT     0.417000        1.0080           0
   70292 WT6  2689 TIP3 OH2  OT    -0.834000       15.9994           0
   70293 WT6  2689 TIP3 H1   HT     0.417000        1.0080           0
   70294 WT6  2689 TIP3 H2   HT     0.417000        1.0080           0
   70295 WT6  2690 TIP3 OH2  OT    -0.834000       15.9994           0
   70296 WT6  2690 TIP3 H1   HT     0.417000        1.0080           0
   70297 WT6  2690 TIP3 H2   HT     0.417000        1.0080           0
   70298 WT6  2691 TIP3 OH2  OT    -0.834000       15.9994           0
   70299 WT6  2691 TIP3 H1   HT     0.417000        1.0080           0
   70300 WT6  2691 TIP3 H2   HT     0.417000        1.0080           0
   70301 WT6  2693 TIP3 OH2  OT    -0.834000       15.9994           0
   70302 WT6  2693 TIP3 H1   HT     0.417000        1.0080           0
   70303 WT6  2693 TIP3 H2   HT     0.417000        1.0080           0
   70304 WT6  2694 TIP3 OH2  OT    -0.834000       15.9994           0
   70305 WT6  2694 TIP3 H1   HT     0.417000        1.0080           0
   70306 WT6  2694 TIP3 H2   HT     0.417000        1.0080           0
   70307 WT6  2696 TIP3 OH2  OT    -0.834000       15.9994           0
   70308 WT6  2696 TIP3 H1   HT     0.417000        1.0080           0
   70309 WT6  2696 TIP3 H2   HT     0.417000        1.0080           0
   70310 WT6  2702 TIP3 OH2  OT    -0.834000       15.9994           0
   70311 WT6  2702 TIP3 H1   HT     0.417000        1.0080           0
   70312 WT6  2702 TIP3 H2   HT     0.417000        1.0080           0
   70313 WT6  2722 TIP3 OH2  OT    -0.834000       15.9994           0
   70314 WT6  2722 TIP3 H1   HT     0.417000        1.0080           0
   70315 WT6  2722 TIP3 H2   HT     0.417000        1.0080           0
   70316 WT6  2786 TIP3 OH2  OT    -0.834000       15.9994           0
   70317 WT6  2786 TIP3 H1   HT     0.417000        1.0080           0
   70318 WT6  2786 TIP3 H2   HT     0.417000        1.0080           0
   70319 WT6  3010 TIP3 OH2  OT    -0.834000       15.9994           0
   70320 WT6  3010 TIP3 H1   HT     0.417000        1.0080           0
   70321 WT6  3010 TIP3 H2   HT     0.417000        1.0080           0
   70322 WT6  3016 TIP3 OH2  OT    -0.834000       15.9994           0
   70323 WT6  3016 TIP3 H1   HT     0.417000        1.0080           0
   70324 WT6  3016 TIP3 H2   HT     0.417000        1.0080           0
   70325 WT6  3033 TIP3 OH2  OT    -0.834000       15.9994           0
   70326 WT6  3033 TIP3 H1   HT     0.417000        1.0080           0
   70327 WT6  3033 TIP3 H2   HT     0.417000        1.0080           0
   70328 WT6  3036 TIP3 OH2  OT    -0.834000       15.9994           0
   70329 WT6  3036 TIP3 H1   HT     0.417000        1.0080           0
   70330 WT6  3036 TIP3 H2   HT     0.417000        1.0080           0
   70331 WT6  3049 TIP3 OH2  OT    -0.834000       15.9994           0
   70332 WT6  3049 TIP3 H1   HT     0.417000        1.0080           0
   70333 WT6  3049 TIP3 H2   HT     0.417000        1.0080           0
   70334 WT6  3050 TIP3 OH2  OT    -0.834000       15.9994           0
   70335 WT6  3050 TIP3 H1   HT     0.417000        1.0080           0
   70336 WT6  3050 TIP3 H2   HT     0.417000        1.0080           0
   70337 WT6  3053 TIP3 OH2  OT    -0.834000       15.9994           0
   70338 WT6  3053 TIP3 H1   HT     0.417000        1.0080           0
   70339 WT6  3053 TIP3 H2   HT     0.417000        1.0080           0
   70340 WT6  3057 TIP3 OH2  OT    -0.834000       15.9994           0
   70341 WT6  3057 TIP3 H1   HT     0.417000        1.0080           0
   70342 WT6  3057 TIP3 H2   HT     0.417000        1.0080           0
   70343 WT6  3058 TIP3 OH2  OT    -0.834000       15.9994           0
   70344 WT6  3058 TIP3 H1   HT     0.417000        1.0080           0
   70345 WT6  3058 TIP3 H2   HT     0.417000        1.0080           0
   70346 WT6  3068 TIP3 OH2  OT    -0.834000       15.9994           0
   70347 WT6  3068 TIP3 H1   HT     0.417000        1.0080           0
   70348 WT6  3068 TIP3 H2   HT     0.417000        1.0080           0
   70349 WT6  3072 TIP3 OH2  OT    -0.834000       15.9994           0
   70350 WT6  3072 TIP3 H1   HT     0.417000        1.0080           0
   70351 WT6  3072 TIP3 H2   HT     0.417000        1.0080           0
   70352 WT6  3073 TIP3 OH2  OT    -0.834000       15.9994           0
   70353 WT6  3073 TIP3 H1   HT     0.417000        1.0080           0
   70354 WT6  3073 TIP3 H2   HT     0.417000        1.0080           0
   70355 WT6  3075 TIP3 OH2  OT    -0.834000       15.9994           0
   70356 WT6  3075 TIP3 H1   HT     0.417000        1.0080           0
   70357 WT6  3075 TIP3 H2   HT     0.417000        1.0080           0
   70358 WT6  3085 TIP3 OH2  OT    -0.834000       15.9994           0
   70359 WT6  3085 TIP3 H1   HT     0.417000        1.0080           0
   70360 WT6  3085 TIP3 H2   HT     0.417000        1.0080           0
   70361 WT6  3096 TIP3 OH2  OT    -0.834000       15.9994           0
   70362 WT6  3096 TIP3 H1   HT     0.417000        1.0080           0
   70363 WT6  3096 TIP3 H2   HT     0.417000        1.0080           0
   70364 WT6  3097 TIP3 OH2  OT    -0.834000       15.9994           0
   70365 WT6  3097 TIP3 H1   HT     0.417000        1.0080           0
   70366 WT6  3097 TIP3 H2   HT     0.417000        1.0080           0
   70367 WT6  3099 TIP3 OH2  OT    -0.834000       15.9994           0
   70368 WT6  3099 TIP3 H1   HT     0.417000        1.0080           0
   70369 WT6  3099 TIP3 H2   HT     0.417000        1.0080           0
   70370 WT6  3101 TIP3 OH2  OT    -0.834000       15.9994           0
   70371 WT6  3101 TIP3 H1   HT     0.417000        1.0080           0
   70372 WT6  3101 TIP3 H2   HT     0.417000        1.0080           0
   70373 WT6  3108 TIP3 OH2  OT    -0.834000       15.9994           0
   70374 WT6  3108 TIP3 H1   HT     0.417000        1.0080           0
   70375 WT6  3108 TIP3 H2   HT     0.417000        1.0080           0
   70376 WT6  3117 TIP3 OH2  OT    -0.834000       15.9994           0
   70377 WT6  3117 TIP3 H1   HT     0.417000        1.0080           0
   70378 WT6  3117 TIP3 H2   HT     0.417000        1.0080           0
   70379 WT6  3119 TIP3 OH2  OT    -0.834000       15.9994           0
   70380 WT6  3119 TIP3 H1   HT     0.417000        1.0080           0
   70381 WT6  3119 TIP3 H2   HT     0.417000        1.0080           0
   70382 WT6  3121 TIP3 OH2  OT    -0.834000       15.9994           0
   70383 WT6  3121 TIP3 H1   HT     0.417000        1.0080           0
   70384 WT6  3121 TIP3 H2   HT     0.417000        1.0080           0
   70385 WT6  3133 TIP3 OH2  OT    -0.834000       15.9994           0
   70386 WT6  3133 TIP3 H1   HT     0.417000        1.0080           0
   70387 WT6  3133 TIP3 H2   HT     0.417000        1.0080           0
   70388 WT6  3136 TIP3 OH2  OT    -0.834000       15.9994           0
   70389 WT6  3136 TIP3 H1   HT     0.417000        1.0080           0
   70390 WT6  3136 TIP3 H2   HT     0.417000        1.0080           0
   70391 WT6  3139 TIP3 OH2  OT    -0.834000       15.9994           0
   70392 WT6  3139 TIP3 H1   HT     0.417000        1.0080           0
   70393 WT6  3139 TIP3 H2   HT     0.417000        1.0080           0
   70394 WT6  3140 TIP3 OH2  OT    -0.834000       15.9994           0
   70395 WT6  3140 TIP3 H1   HT     0.417000        1.0080           0
   70396 WT6  3140 TIP3 H2   HT     0.417000        1.0080           0
   70397 WT6  3141 TIP3 OH2  OT    -0.834000       15.9994           0
   70398 WT6  3141 TIP3 H1   HT     0.417000        1.0080           0
   70399 WT6  3141 TIP3 H2   HT     0.417000        1.0080           0
   70400 WT6  3142 TIP3 OH2  OT    -0.834000       15.9994           0
   70401 WT6  3142 TIP3 H1   HT     0.417000        1.0080           0
   70402 WT6  3142 TIP3 H2   HT     0.417000        1.0080           0
   70403 WT6  3143 TIP3 OH2  OT    -0.834000       15.9994           0
   70404 WT6  3143 TIP3 H1   HT     0.417000        1.0080           0
   70405 WT6  3143 TIP3 H2   HT     0.417000        1.0080           0
   70406 WT6  3152 TIP3 OH2  OT    -0.834000       15.9994           0
   70407 WT6  3152 TIP3 H1   HT     0.417000        1.0080           0
   70408 WT6  3152 TIP3 H2   HT     0.417000        1.0080           0
   70409 WT6  3162 TIP3 OH2  OT    -0.834000       15.9994           0
   70410 WT6  3162 TIP3 H1   HT     0.417000        1.0080           0
   70411 WT6  3162 TIP3 H2   HT     0.417000        1.0080           0
   70412 WT6  3426 TIP3 OH2  OT    -0.834000       15.9994           0
   70413 WT6  3426 TIP3 H1   HT     0.417000        1.0080           0
   70414 WT6  3426 TIP3 H2   HT     0.417000        1.0080           0
   70415 WT6  3434 TIP3 OH2  OT    -0.834000       15.9994           0
   70416 WT6  3434 TIP3 H1   HT     0.417000        1.0080           0
   70417 WT6  3434 TIP3 H2   HT     0.417000        1.0080           0
   70418 WT6  3447 TIP3 OH2  OT    -0.834000       15.9994           0
   70419 WT6  3447 TIP3 H1   HT     0.417000        1.0080           0
   70420 WT6  3447 TIP3 H2   HT     0.417000        1.0080           0
   70421 WT6  3476 TIP3 OH2  OT    -0.834000       15.9994           0
   70422 WT6  3476 TIP3 H1   HT     0.417000        1.0080           0
   70423 WT6  3476 TIP3 H2   HT     0.417000        1.0080           0
   70424 WT6  3480 TIP3 OH2  OT    -0.834000       15.9994           0
   70425 WT6  3480 TIP3 H1   HT     0.417000        1.0080           0
   70426 WT6  3480 TIP3 H2   HT     0.417000        1.0080           0
   70427 WT6  3484 TIP3 OH2  OT    -0.834000       15.9994           0
   70428 WT6  3484 TIP3 H1   HT     0.417000        1.0080           0
   70429 WT6  3484 TIP3 H2   HT     0.417000        1.0080           0
   70430 WT6  3496 TIP3 OH2  OT    -0.834000       15.9994           0
   70431 WT6  3496 TIP3 H1   HT     0.417000        1.0080           0
   70432 WT6  3496 TIP3 H2   HT     0.417000        1.0080           0
   70433 WT6  3497 TIP3 OH2  OT    -0.834000       15.9994           0
   70434 WT6  3497 TIP3 H1   HT     0.417000        1.0080           0
   70435 WT6  3497 TIP3 H2   HT     0.417000        1.0080           0
   70436 WT6  3514 TIP3 OH2  OT    -0.834000       15.9994           0
   70437 WT6  3514 TIP3 H1   HT     0.417000        1.0080           0
   70438 WT6  3514 TIP3 H2   HT     0.417000        1.0080           0
   70439 WT6  3533 TIP3 OH2  OT    -0.834000       15.9994           0
   70440 WT6  3533 TIP3 H1   HT     0.417000        1.0080           0
   70441 WT6  3533 TIP3 H2   HT     0.417000        1.0080           0
   70442 WT6  3544 TIP3 OH2  OT    -0.834000       15.9994           0
   70443 WT6  3544 TIP3 H1   HT     0.417000        1.0080           0
   70444 WT6  3544 TIP3 H2   HT     0.417000        1.0080           0
   70445 WT6  3555 TIP3 OH2  OT    -0.834000       15.9994           0
   70446 WT6  3555 TIP3 H1   HT     0.417000        1.0080           0
   70447 WT6  3555 TIP3 H2   HT     0.417000        1.0080           0
   70448 WT6  3561 TIP3 OH2  OT    -0.834000       15.9994           0
   70449 WT6  3561 TIP3 H1   HT     0.417000        1.0080           0
   70450 WT6  3561 TIP3 H2   HT     0.417000        1.0080           0
   70451 WT6  3562 TIP3 OH2  OT    -0.834000       15.9994           0
   70452 WT6  3562 TIP3 H1   HT     0.417000        1.0080           0
   70453 WT6  3562 TIP3 H2   HT     0.417000        1.0080           0
   70454 WT6  3569 TIP3 OH2  OT    -0.834000       15.9994           0
   70455 WT6  3569 TIP3 H1   HT     0.417000        1.0080           0
   70456 WT6  3569 TIP3 H2   HT     0.417000        1.0080           0
   70457 WT6  3612 TIP3 OH2  OT    -0.834000       15.9994           0
   70458 WT6  3612 TIP3 H1   HT     0.417000        1.0080           0
   70459 WT6  3612 TIP3 H2   HT     0.417000        1.0080           0
   70460 WT6  3619 TIP3 OH2  OT    -0.834000       15.9994           0
   70461 WT6  3619 TIP3 H1   HT     0.417000        1.0080           0
   70462 WT6  3619 TIP3 H2   HT     0.417000        1.0080           0
   70463 WT6  3622 TIP3 OH2  OT    -0.834000       15.9994           0
   70464 WT6  3622 TIP3 H1   HT     0.417000        1.0080           0
   70465 WT6  3622 TIP3 H2   HT     0.417000        1.0080           0
   70466 WT6  3623 TIP3 OH2  OT    -0.834000       15.9994           0
   70467 WT6  3623 TIP3 H1   HT     0.417000        1.0080           0
   70468 WT6  3623 TIP3 H2   HT     0.417000        1.0080           0
   70469 WT6  3919 TIP3 OH2  OT    -0.834000       15.9994           0
   70470 WT6  3919 TIP3 H1   HT     0.417000        1.0080           0
   70471 WT6  3919 TIP3 H2   HT     0.417000        1.0080           0
   70472 WT6  3925 TIP3 OH2  OT    -0.834000       15.9994           0
   70473 WT6  3925 TIP3 H1   HT     0.417000        1.0080           0
   70474 WT6  3925 TIP3 H2   HT     0.417000        1.0080           0
   70475 WT6  3933 TIP3 OH2  OT    -0.834000       15.9994           0
   70476 WT6  3933 TIP3 H1   HT     0.417000        1.0080           0
   70477 WT6  3933 TIP3 H2   HT     0.417000        1.0080           0
   70478 WT6  3951 TIP3 OH2  OT    -0.834000       15.9994           0
   70479 WT6  3951 TIP3 H1   HT     0.417000        1.0080           0
   70480 WT6  3951 TIP3 H2   HT     0.417000        1.0080           0
   70481 WT6  3974 TIP3 OH2  OT    -0.834000       15.9994           0
   70482 WT6  3974 TIP3 H1   HT     0.417000        1.0080           0
   70483 WT6  3974 TIP3 H2   HT     0.417000        1.0080           0
   70484 WT6  3982 TIP3 OH2  OT    -0.834000       15.9994           0
   70485 WT6  3982 TIP3 H1   HT     0.417000        1.0080           0
   70486 WT6  3982 TIP3 H2   HT     0.417000        1.0080           0
   70487 WT6  3983 TIP3 OH2  OT    -0.834000       15.9994           0
   70488 WT6  3983 TIP3 H1   HT     0.417000        1.0080           0
   70489 WT6  3983 TIP3 H2   HT     0.417000        1.0080           0
   70490 WT6  3986 TIP3 OH2  OT    -0.834000       15.9994           0
   70491 WT6  3986 TIP3 H1   HT     0.417000        1.0080           0
   70492 WT6  3986 TIP3 H2   HT     0.417000        1.0080           0
   70493 WT6  3991 TIP3 OH2  OT    -0.834000       15.9994           0
   70494 WT6  3991 TIP3 H1   HT     0.417000        1.0080           0
   70495 WT6  3991 TIP3 H2   HT     0.417000        1.0080           0
   70496 WT6  3997 TIP3 OH2  OT    -0.834000       15.9994           0
   70497 WT6  3997 TIP3 H1   HT     0.417000        1.0080           0
   70498 WT6  3997 TIP3 H2   HT     0.417000        1.0080           0
   70499 WT6  3999 TIP3 OH2  OT    -0.834000       15.9994           0
   70500 WT6  3999 TIP3 H1   HT     0.417000        1.0080           0
   70501 WT6  3999 TIP3 H2   HT     0.417000        1.0080           0
   70502 WT6  4001 TIP3 OH2  OT    -0.834000       15.9994           0
   70503 WT6  4001 TIP3 H1   HT     0.417000        1.0080           0
   70504 WT6  4001 TIP3 H2   HT     0.417000        1.0080           0
   70505 WT6  4003 TIP3 OH2  OT    -0.834000       15.9994           0
   70506 WT6  4003 TIP3 H1   HT     0.417000        1.0080           0
   70507 WT6  4003 TIP3 H2   HT     0.417000        1.0080           0
   70508 WT6  4004 TIP3 OH2  OT    -0.834000       15.9994           0
   70509 WT6  4004 TIP3 H1   HT     0.417000        1.0080           0
   70510 WT6  4004 TIP3 H2   HT     0.417000        1.0080           0
   70511 WT6  4005 TIP3 OH2  OT    -0.834000       15.9994           0
   70512 WT6  4005 TIP3 H1   HT     0.417000        1.0080           0
   70513 WT6  4005 TIP3 H2   HT     0.417000        1.0080           0
   70514 WT6  4006 TIP3 OH2  OT    -0.834000       15.9994           0
   70515 WT6  4006 TIP3 H1   HT     0.417000        1.0080           0
   70516 WT6  4006 TIP3 H2   HT     0.417000        1.0080           0
   70517 WT6  4014 TIP3 OH2  OT    -0.834000       15.9994           0
   70518 WT6  4014 TIP3 H1   HT     0.417000        1.0080           0
   70519 WT6  4014 TIP3 H2   HT     0.417000        1.0080           0
   70520 WT6  4015 TIP3 OH2  OT    -0.834000       15.9994           0
   70521 WT6  4015 TIP3 H1   HT     0.417000        1.0080           0
   70522 WT6  4015 TIP3 H2   HT     0.417000        1.0080           0
   70523 WT6  4017 TIP3 OH2  OT    -0.834000       15.9994           0
   70524 WT6  4017 TIP3 H1   HT     0.417000        1.0080           0
   70525 WT6  4017 TIP3 H2   HT     0.417000        1.0080           0
   70526 WT6  4021 TIP3 OH2  OT    -0.834000       15.9994           0
   70527 WT6  4021 TIP3 H1   HT     0.417000        1.0080           0
   70528 WT6  4021 TIP3 H2   HT     0.417000        1.0080           0
   70529 WT6  4035 TIP3 OH2  OT    -0.834000       15.9994           0
   70530 WT6  4035 TIP3 H1   HT     0.417000        1.0080           0
   70531 WT6  4035 TIP3 H2   HT     0.417000        1.0080           0
   70532 WT6  4036 TIP3 OH2  OT    -0.834000       15.9994           0
   70533 WT6  4036 TIP3 H1   HT     0.417000        1.0080           0
   70534 WT6  4036 TIP3 H2   HT     0.417000        1.0080           0
   70535 WT6  4040 TIP3 OH2  OT    -0.834000       15.9994           0
   70536 WT6  4040 TIP3 H1   HT     0.417000        1.0080           0
   70537 WT6  4040 TIP3 H2   HT     0.417000        1.0080           0
   70538 WT6  4041 TIP3 OH2  OT    -0.834000       15.9994           0
   70539 WT6  4041 TIP3 H1   HT     0.417000        1.0080           0
   70540 WT6  4041 TIP3 H2   HT     0.417000        1.0080           0
   70541 WT6  4062 TIP3 OH2  OT    -0.834000       15.9994           0
   70542 WT6  4062 TIP3 H1   HT     0.417000        1.0080           0
   70543 WT6  4062 TIP3 H2   HT     0.417000        1.0080           0
   70544 WT6  4356 TIP3 OH2  OT    -0.834000       15.9994           0
   70545 WT6  4356 TIP3 H1   HT     0.417000        1.0080           0
   70546 WT6  4356 TIP3 H2   HT     0.417000        1.0080           0
   70547 WT6  4374 TIP3 OH2  OT    -0.834000       15.9994           0
   70548 WT6  4374 TIP3 H1   HT     0.417000        1.0080           0
   70549 WT6  4374 TIP3 H2   HT     0.417000        1.0080           0
   70550 WT6  4380 TIP3 OH2  OT    -0.834000       15.9994           0
   70551 WT6  4380 TIP3 H1   HT     0.417000        1.0080           0
   70552 WT6  4380 TIP3 H2   HT     0.417000        1.0080           0
   70553 WT6  4382 TIP3 OH2  OT    -0.834000       15.9994           0
   70554 WT6  4382 TIP3 H1   HT     0.417000        1.0080           0
   70555 WT6  4382 TIP3 H2   HT     0.417000        1.0080           0
   70556 WT6  4404 TIP3 OH2  OT    -0.834000       15.9994           0
   70557 WT6  4404 TIP3 H1   HT     0.417000        1.0080           0
   70558 WT6  4404 TIP3 H2   HT     0.417000        1.0080           0
   70559 WT6  4414 TIP3 OH2  OT    -0.834000       15.9994           0
   70560 WT6  4414 TIP3 H1   HT     0.417000        1.0080           0
   70561 WT6  4414 TIP3 H2   HT     0.417000        1.0080           0
   70562 WT6  4419 TIP3 OH2  OT    -0.834000       15.9994           0
   70563 WT6  4419 TIP3 H1   HT     0.417000        1.0080           0
   70564 WT6  4419 TIP3 H2   HT     0.417000        1.0080           0
   70565 WT6  4420 TIP3 OH2  OT    -0.834000       15.9994           0
   70566 WT6  4420 TIP3 H1   HT     0.417000        1.0080           0
   70567 WT6  4420 TIP3 H2   HT     0.417000        1.0080           0
   70568 WT6  4421 TIP3 OH2  OT    -0.834000       15.9994           0
   70569 WT6  4421 TIP3 H1   HT     0.417000        1.0080           0
   70570 WT6  4421 TIP3 H2   HT     0.417000        1.0080           0
   70571 WT6  4422 TIP3 OH2  OT    -0.834000       15.9994           0
   70572 WT6  4422 TIP3 H1   HT     0.417000        1.0080           0
   70573 WT6  4422 TIP3 H2   HT     0.417000        1.0080           0
   70574 WT6  4434 TIP3 OH2  OT    -0.834000       15.9994           0
   70575 WT6  4434 TIP3 H1   HT     0.417000        1.0080           0
   70576 WT6  4434 TIP3 H2   HT     0.417000        1.0080           0
   70577 WT6  4441 TIP3 OH2  OT    -0.834000       15.9994           0
   70578 WT6  4441 TIP3 H1   HT     0.417000        1.0080           0
   70579 WT6  4441 TIP3 H2   HT     0.417000        1.0080           0
   70580 WT6  4455 TIP3 OH2  OT    -0.834000       15.9994           0
   70581 WT6  4455 TIP3 H1   HT     0.417000        1.0080           0
   70582 WT6  4455 TIP3 H2   HT     0.417000        1.0080           0
   70583 WT6  4463 TIP3 OH2  OT    -0.834000       15.9994           0
   70584 WT6  4463 TIP3 H1   HT     0.417000        1.0080           0
   70585 WT6  4463 TIP3 H2   HT     0.417000        1.0080           0
   70586 WT6  4477 TIP3 OH2  OT    -0.834000       15.9994           0
   70587 WT6  4477 TIP3 H1   HT     0.417000        1.0080           0
   70588 WT6  4477 TIP3 H2   HT     0.417000        1.0080           0
   70589 WT6  4485 TIP3 OH2  OT    -0.834000       15.9994           0
   70590 WT6  4485 TIP3 H1   HT     0.417000        1.0080           0
   70591 WT6  4485 TIP3 H2   HT     0.417000        1.0080           0
   70592 WT6  4522 TIP3 OH2  OT    -0.834000       15.9994           0
   70593 WT6  4522 TIP3 H1   HT     0.417000        1.0080           0
   70594 WT6  4522 TIP3 H2   HT     0.417000        1.0080           0
   70595 WT6  4527 TIP3 OH2  OT    -0.834000       15.9994           0
   70596 WT6  4527 TIP3 H1   HT     0.417000        1.0080           0
   70597 WT6  4527 TIP3 H2   HT     0.417000        1.0080           0
   70598 WT6  4531 TIP3 OH2  OT    -0.834000       15.9994           0
   70599 WT6  4531 TIP3 H1   HT     0.417000        1.0080           0
   70600 WT6  4531 TIP3 H2   HT     0.417000        1.0080           0
   70601 WT6  4739 TIP3 OH2  OT    -0.834000       15.9994           0
   70602 WT6  4739 TIP3 H1   HT     0.417000        1.0080           0
   70603 WT6  4739 TIP3 H2   HT     0.417000        1.0080           0
   70604 WT6  4798 TIP3 OH2  OT    -0.834000       15.9994           0
   70605 WT6  4798 TIP3 H1   HT     0.417000        1.0080           0
   70606 WT6  4798 TIP3 H2   HT     0.417000        1.0080           0
   70607 WT6  4799 TIP3 OH2  OT    -0.834000       15.9994           0
   70608 WT6  4799 TIP3 H1   HT     0.417000        1.0080           0
   70609 WT6  4799 TIP3 H2   HT     0.417000        1.0080           0
   70610 WT6  4800 TIP3 OH2  OT    -0.834000       15.9994           0
   70611 WT6  4800 TIP3 H1   HT     0.417000        1.0080           0
   70612 WT6  4800 TIP3 H2   HT     0.417000        1.0080           0
   70613 WT6  4801 TIP3 OH2  OT    -0.834000       15.9994           0
   70614 WT6  4801 TIP3 H1   HT     0.417000        1.0080           0
   70615 WT6  4801 TIP3 H2   HT     0.417000        1.0080           0
   70616 WT6  4809 TIP3 OH2  OT    -0.834000       15.9994           0
   70617 WT6  4809 TIP3 H1   HT     0.417000        1.0080           0
   70618 WT6  4809 TIP3 H2   HT     0.417000        1.0080           0
   70619 WT6  4814 TIP3 OH2  OT    -0.834000       15.9994           0
   70620 WT6  4814 TIP3 H1   HT     0.417000        1.0080           0
   70621 WT6  4814 TIP3 H2   HT     0.417000        1.0080           0
   70622 WT6  4820 TIP3 OH2  OT    -0.834000       15.9994           0
   70623 WT6  4820 TIP3 H1   HT     0.417000        1.0080           0
   70624 WT6  4820 TIP3 H2   HT     0.417000        1.0080           0
   70625 WT6  4821 TIP3 OH2  OT    -0.834000       15.9994           0
   70626 WT6  4821 TIP3 H1   HT     0.417000        1.0080           0
   70627 WT6  4821 TIP3 H2   HT     0.417000        1.0080           0
   70628 WT6  4822 TIP3 OH2  OT    -0.834000       15.9994           0
   70629 WT6  4822 TIP3 H1   HT     0.417000        1.0080           0
   70630 WT6  4822 TIP3 H2   HT     0.417000        1.0080           0
   70631 WT6  4834 TIP3 OH2  OT    -0.834000       15.9994           0
   70632 WT6  4834 TIP3 H1   HT     0.417000        1.0080           0
   70633 WT6  4834 TIP3 H2   HT     0.417000        1.0080           0
   70634 WT6  4835 TIP3 OH2  OT    -0.834000       15.9994           0
   70635 WT6  4835 TIP3 H1   HT     0.417000        1.0080           0
   70636 WT6  4835 TIP3 H2   HT     0.417000        1.0080           0
   70637 WT6  4836 TIP3 OH2  OT    -0.834000       15.9994           0
   70638 WT6  4836 TIP3 H1   HT     0.417000        1.0080           0
   70639 WT6  4836 TIP3 H2   HT     0.417000        1.0080           0
   70640 WT6  4837 TIP3 OH2  OT    -0.834000       15.9994           0
   70641 WT6  4837 TIP3 H1   HT     0.417000        1.0080           0
   70642 WT6  4837 TIP3 H2   HT     0.417000        1.0080           0
   70643 WT6  4853 TIP3 OH2  OT    -0.834000       15.9994           0
   70644 WT6  4853 TIP3 H1   HT     0.417000        1.0080           0
   70645 WT6  4853 TIP3 H2   HT     0.417000        1.0080           0
   70646 WT6  4856 TIP3 OH2  OT    -0.834000       15.9994           0
   70647 WT6  4856 TIP3 H1   HT     0.417000        1.0080           0
   70648 WT6  4856 TIP3 H2   HT     0.417000        1.0080           0
   70649 WT6  4858 TIP3 OH2  OT    -0.834000       15.9994           0
   70650 WT6  4858 TIP3 H1   HT     0.417000        1.0080           0
   70651 WT6  4858 TIP3 H2   HT     0.417000        1.0080           0
   70652 WT6  4861 TIP3 OH2  OT    -0.834000       15.9994           0
   70653 WT6  4861 TIP3 H1   HT     0.417000        1.0080           0
   70654 WT6  4861 TIP3 H2   HT     0.417000        1.0080           0
   70655 WT6  4866 TIP3 OH2  OT    -0.834000       15.9994           0
   70656 WT6  4866 TIP3 H1   HT     0.417000        1.0080           0
   70657 WT6  4866 TIP3 H2   HT     0.417000        1.0080           0
   70658 WT6  4875 TIP3 OH2  OT    -0.834000       15.9994           0
   70659 WT6  4875 TIP3 H1   HT     0.417000        1.0080           0
   70660 WT6  4875 TIP3 H2   HT     0.417000        1.0080           0
   70661 WT6  4877 TIP3 OH2  OT    -0.834000       15.9994           0
   70662 WT6  4877 TIP3 H1   HT     0.417000        1.0080           0
   70663 WT6  4877 TIP3 H2   HT     0.417000        1.0080           0
   70664 WT6  4880 TIP3 OH2  OT    -0.834000       15.9994           0
   70665 WT6  4880 TIP3 H1   HT     0.417000        1.0080           0
   70666 WT6  4880 TIP3 H2   HT     0.417000        1.0080           0
   70667 WT6  4884 TIP3 OH2  OT    -0.834000       15.9994           0
   70668 WT6  4884 TIP3 H1   HT     0.417000        1.0080           0
   70669 WT6  4884 TIP3 H2   HT     0.417000        1.0080           0
   70670 WT6  4901 TIP3 OH2  OT    -0.834000       15.9994           0
   70671 WT6  4901 TIP3 H1   HT     0.417000        1.0080           0
   70672 WT6  4901 TIP3 H2   HT     0.417000        1.0080           0
   70673 WT6  4906 TIP3 OH2  OT    -0.834000       15.9994           0
   70674 WT6  4906 TIP3 H1   HT     0.417000        1.0080           0
   70675 WT6  4906 TIP3 H2   HT     0.417000        1.0080           0
   70676 WT6  4911 TIP3 OH2  OT    -0.834000       15.9994           0
   70677 WT6  4911 TIP3 H1   HT     0.417000        1.0080           0
   70678 WT6  4911 TIP3 H2   HT     0.417000        1.0080           0
   70679 WT6  4915 TIP3 OH2  OT    -0.834000       15.9994           0
   70680 WT6  4915 TIP3 H1   HT     0.417000        1.0080           0
   70681 WT6  4915 TIP3 H2   HT     0.417000        1.0080           0
   70682 WT6  4924 TIP3 OH2  OT    -0.834000       15.9994           0
   70683 WT6  4924 TIP3 H1   HT     0.417000        1.0080           0
   70684 WT6  4924 TIP3 H2   HT     0.417000        1.0080           0
   70685 WT6  4927 TIP3 OH2  OT    -0.834000       15.9994           0
   70686 WT6  4927 TIP3 H1   HT     0.417000        1.0080           0
   70687 WT6  4927 TIP3 H2   HT     0.417000        1.0080           0
   70688 WT6  4937 TIP3 OH2  OT    -0.834000       15.9994           0
   70689 WT6  4937 TIP3 H1   HT     0.417000        1.0080           0
   70690 WT6  4937 TIP3 H2   HT     0.417000        1.0080           0
   70691 WT6  4947 TIP3 OH2  OT    -0.834000       15.9994           0
   70692 WT6  4947 TIP3 H1   HT     0.417000        1.0080           0
   70693 WT6  4947 TIP3 H2   HT     0.417000        1.0080           0
   70694 WT6  4967 TIP3 OH2  OT    -0.834000       15.9994           0
   70695 WT6  4967 TIP3 H1   HT     0.417000        1.0080           0
   70696 WT6  4967 TIP3 H2   HT     0.417000        1.0080           0
   70697 WT6  5193 TIP3 OH2  OT    -0.834000       15.9994           0
   70698 WT6  5193 TIP3 H1   HT     0.417000        1.0080           0
   70699 WT6  5193 TIP3 H2   HT     0.417000        1.0080           0
   70700 WT6  5234 TIP3 OH2  OT    -0.834000       15.9994           0
   70701 WT6  5234 TIP3 H1   HT     0.417000        1.0080           0
   70702 WT6  5234 TIP3 H2   HT     0.417000        1.0080           0
   70703 WT6  5260 TIP3 OH2  OT    -0.834000       15.9994           0
   70704 WT6  5260 TIP3 H1   HT     0.417000        1.0080           0
   70705 WT6  5260 TIP3 H2   HT     0.417000        1.0080           0
   70706 WT6  5267 TIP3 OH2  OT    -0.834000       15.9994           0
   70707 WT6  5267 TIP3 H1   HT     0.417000        1.0080           0
   70708 WT6  5267 TIP3 H2   HT     0.417000        1.0080           0
   70709 WT6  5322 TIP3 OH2  OT    -0.834000       15.9994           0
   70710 WT6  5322 TIP3 H1   HT     0.417000        1.0080           0
   70711 WT6  5322 TIP3 H2   HT     0.417000        1.0080           0
   70712 WT6  5323 TIP3 OH2  OT    -0.834000       15.9994           0
   70713 WT6  5323 TIP3 H1   HT     0.417000        1.0080           0
   70714 WT6  5323 TIP3 H2   HT     0.417000        1.0080           0
   70715 WT6  5325 TIP3 OH2  OT    -0.834000       15.9994           0
   70716 WT6  5325 TIP3 H1   HT     0.417000        1.0080           0
   70717 WT6  5325 TIP3 H2   HT     0.417000        1.0080           0
   70718 WT6  5327 TIP3 OH2  OT    -0.834000       15.9994           0
   70719 WT6  5327 TIP3 H1   HT     0.417000        1.0080           0
   70720 WT6  5327 TIP3 H2   HT     0.417000        1.0080           0
   70721 WT6  5332 TIP3 OH2  OT    -0.834000       15.9994           0
   70722 WT6  5332 TIP3 H1   HT     0.417000        1.0080           0
   70723 WT6  5332 TIP3 H2   HT     0.417000        1.0080           0
   70724 WT6  5344 TIP3 OH2  OT    -0.834000       15.9994           0
   70725 WT6  5344 TIP3 H1   HT     0.417000        1.0080           0
   70726 WT6  5344 TIP3 H2   HT     0.417000        1.0080           0
   70727 WT6  5349 TIP3 OH2  OT    -0.834000       15.9994           0
   70728 WT6  5349 TIP3 H1   HT     0.417000        1.0080           0
   70729 WT6  5349 TIP3 H2   HT     0.417000        1.0080           0
   70730 WT6  5366 TIP3 OH2  OT    -0.834000       15.9994           0
   70731 WT6  5366 TIP3 H1   HT     0.417000        1.0080           0
   70732 WT6  5366 TIP3 H2   HT     0.417000        1.0080           0
   70733 WT6  5369 TIP3 OH2  OT    -0.834000       15.9994           0
   70734 WT6  5369 TIP3 H1   HT     0.417000        1.0080           0
   70735 WT6  5369 TIP3 H2   HT     0.417000        1.0080           0
   70736 WT6  5406 TIP3 OH2  OT    -0.834000       15.9994           0
   70737 WT6  5406 TIP3 H1   HT     0.417000        1.0080           0
   70738 WT6  5406 TIP3 H2   HT     0.417000        1.0080           0
   70739 WT6  5411 TIP3 OH2  OT    -0.834000       15.9994           0
   70740 WT6  5411 TIP3 H1   HT     0.417000        1.0080           0
   70741 WT6  5411 TIP3 H2   HT     0.417000        1.0080           0
   70742 WT6  5412 TIP3 OH2  OT    -0.834000       15.9994           0
   70743 WT6  5412 TIP3 H1   HT     0.417000        1.0080           0
   70744 WT6  5412 TIP3 H2   HT     0.417000        1.0080           0
   70745 WT6  5650 TIP3 OH2  OT    -0.834000       15.9994           0
   70746 WT6  5650 TIP3 H1   HT     0.417000        1.0080           0
   70747 WT6  5650 TIP3 H2   HT     0.417000        1.0080           0
   70748 WT6  5654 TIP3 OH2  OT    -0.834000       15.9994           0
   70749 WT6  5654 TIP3 H1   HT     0.417000        1.0080           0
   70750 WT6  5654 TIP3 H2   HT     0.417000        1.0080           0
   70751 WT6  5669 TIP3 OH2  OT    -0.834000       15.9994           0
   70752 WT6  5669 TIP3 H1   HT     0.417000        1.0080           0
   70753 WT6  5669 TIP3 H2   HT     0.417000        1.0080           0
   70754 WT6  5676 TIP3 OH2  OT    -0.834000       15.9994           0
   70755 WT6  5676 TIP3 H1   HT     0.417000        1.0080           0
   70756 WT6  5676 TIP3 H2   HT     0.417000        1.0080           0
   70757 WT6  5678 TIP3 OH2  OT    -0.834000       15.9994           0
   70758 WT6  5678 TIP3 H1   HT     0.417000        1.0080           0
   70759 WT6  5678 TIP3 H2   HT     0.417000        1.0080           0
   70760 WT6  5690 TIP3 OH2  OT    -0.834000       15.9994           0
   70761 WT6  5690 TIP3 H1   HT     0.417000        1.0080           0
   70762 WT6  5690 TIP3 H2   HT     0.417000        1.0080           0
   70763 WT6  5704 TIP3 OH2  OT    -0.834000       15.9994           0
   70764 WT6  5704 TIP3 H1   HT     0.417000        1.0080           0
   70765 WT6  5704 TIP3 H2   HT     0.417000        1.0080           0
   70766 WT6  5706 TIP3 OH2  OT    -0.834000       15.9994           0
   70767 WT6  5706 TIP3 H1   HT     0.417000        1.0080           0
   70768 WT6  5706 TIP3 H2   HT     0.417000        1.0080           0
   70769 WT6  5710 TIP3 OH2  OT    -0.834000       15.9994           0
   70770 WT6  5710 TIP3 H1   HT     0.417000        1.0080           0
   70771 WT6  5710 TIP3 H2   HT     0.417000        1.0080           0
   70772 WT6  5713 TIP3 OH2  OT    -0.834000       15.9994           0
   70773 WT6  5713 TIP3 H1   HT     0.417000        1.0080           0
   70774 WT6  5713 TIP3 H2   HT     0.417000        1.0080           0
   70775 WT6  5714 TIP3 OH2  OT    -0.834000       15.9994           0
   70776 WT6  5714 TIP3 H1   HT     0.417000        1.0080           0
   70777 WT6  5714 TIP3 H2   HT     0.417000        1.0080           0
   70778 WT6  5715 TIP3 OH2  OT    -0.834000       15.9994           0
   70779 WT6  5715 TIP3 H1   HT     0.417000        1.0080           0
   70780 WT6  5715 TIP3 H2   HT     0.417000        1.0080           0
   70781 WT6  5719 TIP3 OH2  OT    -0.834000       15.9994           0
   70782 WT6  5719 TIP3 H1   HT     0.417000        1.0080           0
   70783 WT6  5719 TIP3 H2   HT     0.417000        1.0080           0
   70784 WT6  5723 TIP3 OH2  OT    -0.834000       15.9994           0
   70785 WT6  5723 TIP3 H1   HT     0.417000        1.0080           0
   70786 WT6  5723 TIP3 H2   HT     0.417000        1.0080           0
   70787 WT6  5727 TIP3 OH2  OT    -0.834000       15.9994           0
   70788 WT6  5727 TIP3 H1   HT     0.417000        1.0080           0
   70789 WT6  5727 TIP3 H2   HT     0.417000        1.0080           0
   70790 WT6  5734 TIP3 OH2  OT    -0.834000       15.9994           0
   70791 WT6  5734 TIP3 H1   HT     0.417000        1.0080           0
   70792 WT6  5734 TIP3 H2   HT     0.417000        1.0080           0
   70793 WT6  5736 TIP3 OH2  OT    -0.834000       15.9994           0
   70794 WT6  5736 TIP3 H1   HT     0.417000        1.0080           0
   70795 WT6  5736 TIP3 H2   HT     0.417000        1.0080           0
   70796 WT6  5738 TIP3 OH2  OT    -0.834000       15.9994           0
   70797 WT6  5738 TIP3 H1   HT     0.417000        1.0080           0
   70798 WT6  5738 TIP3 H2   HT     0.417000        1.0080           0
   70799 WT6  5756 TIP3 OH2  OT    -0.834000       15.9994           0
   70800 WT6  5756 TIP3 H1   HT     0.417000        1.0080           0
   70801 WT6  5756 TIP3 H2   HT     0.417000        1.0080           0
   70802 WT6  5758 TIP3 OH2  OT    -0.834000       15.9994           0
   70803 WT6  5758 TIP3 H1   HT     0.417000        1.0080           0
   70804 WT6  5758 TIP3 H2   HT     0.417000        1.0080           0
   70805 WT6  5760 TIP3 OH2  OT    -0.834000       15.9994           0
   70806 WT6  5760 TIP3 H1   HT     0.417000        1.0080           0
   70807 WT6  5760 TIP3 H2   HT     0.417000        1.0080           0
   70808 WT6  5762 TIP3 OH2  OT    -0.834000       15.9994           0
   70809 WT6  5762 TIP3 H1   HT     0.417000        1.0080           0
   70810 WT6  5762 TIP3 H2   HT     0.417000        1.0080           0
   70811 WT6  5764 TIP3 OH2  OT    -0.834000       15.9994           0
   70812 WT6  5764 TIP3 H1   HT     0.417000        1.0080           0
   70813 WT6  5764 TIP3 H2   HT     0.417000        1.0080           0
   70814 WT6  5765 TIP3 OH2  OT    -0.834000       15.9994           0
   70815 WT6  5765 TIP3 H1   HT     0.417000        1.0080           0
   70816 WT6  5765 TIP3 H2   HT     0.417000        1.0080           0
   70817 WT6  5783 TIP3 OH2  OT    -0.834000       15.9994           0
   70818 WT6  5783 TIP3 H1   HT     0.417000        1.0080           0
   70819 WT6  5783 TIP3 H2   HT     0.417000        1.0080           0
   70820 WT6  5802 TIP3 OH2  OT    -0.834000       15.9994           0
   70821 WT6  5802 TIP3 H1   HT     0.417000        1.0080           0
   70822 WT6  5802 TIP3 H2   HT     0.417000        1.0080           0
   70823 WT6  5803 TIP3 OH2  OT    -0.834000       15.9994           0
   70824 WT6  5803 TIP3 H1   HT     0.417000        1.0080           0
   70825 WT6  5803 TIP3 H2   HT     0.417000        1.0080           0
   70826 WT6  5804 TIP3 OH2  OT    -0.834000       15.9994           0
   70827 WT6  5804 TIP3 H1   HT     0.417000        1.0080           0
   70828 WT6  5804 TIP3 H2   HT     0.417000        1.0080           0
   70829 WT6  5805 TIP3 OH2  OT    -0.834000       15.9994           0
   70830 WT6  5805 TIP3 H1   HT     0.417000        1.0080           0
   70831 WT6  5805 TIP3 H2   HT     0.417000        1.0080           0
   70832 WT6  5824 TIP3 OH2  OT    -0.834000       15.9994           0
   70833 WT6  5824 TIP3 H1   HT     0.417000        1.0080           0
   70834 WT6  5824 TIP3 H2   HT     0.417000        1.0080           0
   70835 WT6  5841 TIP3 OH2  OT    -0.834000       15.9994           0
   70836 WT6  5841 TIP3 H1   HT     0.417000        1.0080           0
   70837 WT6  5841 TIP3 H2   HT     0.417000        1.0080           0
   70838 WT6  5884 TIP3 OH2  OT    -0.834000       15.9994           0
   70839 WT6  5884 TIP3 H1   HT     0.417000        1.0080           0
   70840 WT6  5884 TIP3 H2   HT     0.417000        1.0080           0
   70841 WT6  6091 TIP3 OH2  OT    -0.834000       15.9994           0
   70842 WT6  6091 TIP3 H1   HT     0.417000        1.0080           0
   70843 WT6  6091 TIP3 H2   HT     0.417000        1.0080           0
   70844 WT6  6138 TIP3 OH2  OT    -0.834000       15.9994           0
   70845 WT6  6138 TIP3 H1   HT     0.417000        1.0080           0
   70846 WT6  6138 TIP3 H2   HT     0.417000        1.0080           0
   70847 WT6  6158 TIP3 OH2  OT    -0.834000       15.9994           0
   70848 WT6  6158 TIP3 H1   HT     0.417000        1.0080           0
   70849 WT6  6158 TIP3 H2   HT     0.417000        1.0080           0
   70850 WT6  6163 TIP3 OH2  OT    -0.834000       15.9994           0
   70851 WT6  6163 TIP3 H1   HT     0.417000        1.0080           0
   70852 WT6  6163 TIP3 H2   HT     0.417000        1.0080           0
   70853 WT6  6166 TIP3 OH2  OT    -0.834000       15.9994           0
   70854 WT6  6166 TIP3 H1   HT     0.417000        1.0080           0
   70855 WT6  6166 TIP3 H2   HT     0.417000        1.0080           0
   70856 WT6  6174 TIP3 OH2  OT    -0.834000       15.9994           0
   70857 WT6  6174 TIP3 H1   HT     0.417000        1.0080           0
   70858 WT6  6174 TIP3 H2   HT     0.417000        1.0080           0
   70859 WT6  6177 TIP3 OH2  OT    -0.834000       15.9994           0
   70860 WT6  6177 TIP3 H1   HT     0.417000        1.0080           0
   70861 WT6  6177 TIP3 H2   HT     0.417000        1.0080           0
   70862 WT6  6179 TIP3 OH2  OT    -0.834000       15.9994           0
   70863 WT6  6179 TIP3 H1   HT     0.417000        1.0080           0
   70864 WT6  6179 TIP3 H2   HT     0.417000        1.0080           0
   70865 WT6  6183 TIP3 OH2  OT    -0.834000       15.9994           0
   70866 WT6  6183 TIP3 H1   HT     0.417000        1.0080           0
   70867 WT6  6183 TIP3 H2   HT     0.417000        1.0080           0
   70868 WT6  6184 TIP3 OH2  OT    -0.834000       15.9994           0
   70869 WT6  6184 TIP3 H1   HT     0.417000        1.0080           0
   70870 WT6  6184 TIP3 H2   HT     0.417000        1.0080           0
   70871 WT6  6187 TIP3 OH2  OT    -0.834000       15.9994           0
   70872 WT6  6187 TIP3 H1   HT     0.417000        1.0080           0
   70873 WT6  6187 TIP3 H2   HT     0.417000        1.0080           0
   70874 WT6  6188 TIP3 OH2  OT    -0.834000       15.9994           0
   70875 WT6  6188 TIP3 H1   HT     0.417000        1.0080           0
   70876 WT6  6188 TIP3 H2   HT     0.417000        1.0080           0
   70877 WT6  6192 TIP3 OH2  OT    -0.834000       15.9994           0
   70878 WT6  6192 TIP3 H1   HT     0.417000        1.0080           0
   70879 WT6  6192 TIP3 H2   HT     0.417000        1.0080           0
   70880 WT6  6193 TIP3 OH2  OT    -0.834000       15.9994           0
   70881 WT6  6193 TIP3 H1   HT     0.417000        1.0080           0
   70882 WT6  6193 TIP3 H2   HT     0.417000        1.0080           0
   70883 WT6  6200 TIP3 OH2  OT    -0.834000       15.9994           0
   70884 WT6  6200 TIP3 H1   HT     0.417000        1.0080           0
   70885 WT6  6200 TIP3 H2   HT     0.417000        1.0080           0
   70886 WT6  6204 TIP3 OH2  OT    -0.834000       15.9994           0
   70887 WT6  6204 TIP3 H1   HT     0.417000        1.0080           0
   70888 WT6  6204 TIP3 H2   HT     0.417000        1.0080           0
   70889 WT6  6207 TIP3 OH2  OT    -0.834000       15.9994           0
   70890 WT6  6207 TIP3 H1   HT     0.417000        1.0080           0
   70891 WT6  6207 TIP3 H2   HT     0.417000        1.0080           0
   70892 WT6  6208 TIP3 OH2  OT    -0.834000       15.9994           0
   70893 WT6  6208 TIP3 H1   HT     0.417000        1.0080           0
   70894 WT6  6208 TIP3 H2   HT     0.417000        1.0080           0
   70895 WT6  6212 TIP3 OH2  OT    -0.834000       15.9994           0
   70896 WT6  6212 TIP3 H1   HT     0.417000        1.0080           0
   70897 WT6  6212 TIP3 H2   HT     0.417000        1.0080           0
   70898 WT6  6215 TIP3 OH2  OT    -0.834000       15.9994           0
   70899 WT6  6215 TIP3 H1   HT     0.417000        1.0080           0
   70900 WT6  6215 TIP3 H2   HT     0.417000        1.0080           0
   70901 WT6  6216 TIP3 OH2  OT    -0.834000       15.9994           0
   70902 WT6  6216 TIP3 H1   HT     0.417000        1.0080           0
   70903 WT6  6216 TIP3 H2   HT     0.417000        1.0080           0
   70904 WT6  6219 TIP3 OH2  OT    -0.834000       15.9994           0
   70905 WT6  6219 TIP3 H1   HT     0.417000        1.0080           0
   70906 WT6  6219 TIP3 H2   HT     0.417000        1.0080           0
   70907 WT6  6229 TIP3 OH2  OT    -0.834000       15.9994           0
   70908 WT6  6229 TIP3 H1   HT     0.417000        1.0080           0
   70909 WT6  6229 TIP3 H2   HT     0.417000        1.0080           0
   70910 WT6  6233 TIP3 OH2  OT    -0.834000       15.9994           0
   70911 WT6  6233 TIP3 H1   HT     0.417000        1.0080           0
   70912 WT6  6233 TIP3 H2   HT     0.417000        1.0080           0
   70913 WT6  6240 TIP3 OH2  OT    -0.834000       15.9994           0
   70914 WT6  6240 TIP3 H1   HT     0.417000        1.0080           0
   70915 WT6  6240 TIP3 H2   HT     0.417000        1.0080           0
   70916 WT6  6254 TIP3 OH2  OT    -0.834000       15.9994           0
   70917 WT6  6254 TIP3 H1   HT     0.417000        1.0080           0
   70918 WT6  6254 TIP3 H2   HT     0.417000        1.0080           0
   70919 WT6  6265 TIP3 OH2  OT    -0.834000       15.9994           0
   70920 WT6  6265 TIP3 H1   HT     0.417000        1.0080           0
   70921 WT6  6265 TIP3 H2   HT     0.417000        1.0080           0
   70922 WT6  6274 TIP3 OH2  OT    -0.834000       15.9994           0
   70923 WT6  6274 TIP3 H1   HT     0.417000        1.0080           0
   70924 WT6  6274 TIP3 H2   HT     0.417000        1.0080           0
   70925 WT6  6293 TIP3 OH2  OT    -0.834000       15.9994           0
   70926 WT6  6293 TIP3 H1   HT     0.417000        1.0080           0
   70927 WT6  6293 TIP3 H2   HT     0.417000        1.0080           0
   70928 WT6  6311 TIP3 OH2  OT    -0.834000       15.9994           0
   70929 WT6  6311 TIP3 H1   HT     0.417000        1.0080           0
   70930 WT6  6311 TIP3 H2   HT     0.417000        1.0080           0
   70931 WT6  6334 TIP3 OH2  OT    -0.834000       15.9994           0
   70932 WT6  6334 TIP3 H1   HT     0.417000        1.0080           0
   70933 WT6  6334 TIP3 H2   HT     0.417000        1.0080           0
   70934 WT6  6561 TIP3 OH2  OT    -0.834000       15.9994           0
   70935 WT6  6561 TIP3 H1   HT     0.417000        1.0080           0
   70936 WT6  6561 TIP3 H2   HT     0.417000        1.0080           0
   70937 WT6  6577 TIP3 OH2  OT    -0.834000       15.9994           0
   70938 WT6  6577 TIP3 H1   HT     0.417000        1.0080           0
   70939 WT6  6577 TIP3 H2   HT     0.417000        1.0080           0
   70940 WT6  6578 TIP3 OH2  OT    -0.834000       15.9994           0
   70941 WT6  6578 TIP3 H1   HT     0.417000        1.0080           0
   70942 WT6  6578 TIP3 H2   HT     0.417000        1.0080           0
   70943 WT6  6583 TIP3 OH2  OT    -0.834000       15.9994           0
   70944 WT6  6583 TIP3 H1   HT     0.417000        1.0080           0
   70945 WT6  6583 TIP3 H2   HT     0.417000        1.0080           0
   70946 WT6  6588 TIP3 OH2  OT    -0.834000       15.9994           0
   70947 WT6  6588 TIP3 H1   HT     0.417000        1.0080           0
   70948 WT6  6588 TIP3 H2   HT     0.417000        1.0080           0
   70949 WT6  6595 TIP3 OH2  OT    -0.834000       15.9994           0
   70950 WT6  6595 TIP3 H1   HT     0.417000        1.0080           0
   70951 WT6  6595 TIP3 H2   HT     0.417000        1.0080           0
   70952 WT6  6597 TIP3 OH2  OT    -0.834000       15.9994           0
   70953 WT6  6597 TIP3 H1   HT     0.417000        1.0080           0
   70954 WT6  6597 TIP3 H2   HT     0.417000        1.0080           0
   70955 WT6  6601 TIP3 OH2  OT    -0.834000       15.9994           0
   70956 WT6  6601 TIP3 H1   HT     0.417000        1.0080           0
   70957 WT6  6601 TIP3 H2   HT     0.417000        1.0080           0
   70958 WT6  6604 TIP3 OH2  OT    -0.834000       15.9994           0
   70959 WT6  6604 TIP3 H1   HT     0.417000        1.0080           0
   70960 WT6  6604 TIP3 H2   HT     0.417000        1.0080           0
   70961 WT6  6606 TIP3 OH2  OT    -0.834000       15.9994           0
   70962 WT6  6606 TIP3 H1   HT     0.417000        1.0080           0
   70963 WT6  6606 TIP3 H2   HT     0.417000        1.0080           0
   70964 WT6  6614 TIP3 OH2  OT    -0.834000       15.9994           0
   70965 WT6  6614 TIP3 H1   HT     0.417000        1.0080           0
   70966 WT6  6614 TIP3 H2   HT     0.417000        1.0080           0
   70967 WT6  6615 TIP3 OH2  OT    -0.834000       15.9994           0
   70968 WT6  6615 TIP3 H1   HT     0.417000        1.0080           0
   70969 WT6  6615 TIP3 H2   HT     0.417000        1.0080           0
   70970 WT6  6621 TIP3 OH2  OT    -0.834000       15.9994           0
   70971 WT6  6621 TIP3 H1   HT     0.417000        1.0080           0
   70972 WT6  6621 TIP3 H2   HT     0.417000        1.0080           0
   70973 WT6  6622 TIP3 OH2  OT    -0.834000       15.9994           0
   70974 WT6  6622 TIP3 H1   HT     0.417000        1.0080           0
   70975 WT6  6622 TIP3 H2   HT     0.417000        1.0080           0
   70976 WT6  6625 TIP3 OH2  OT    -0.834000       15.9994           0
   70977 WT6  6625 TIP3 H1   HT     0.417000        1.0080           0
   70978 WT6  6625 TIP3 H2   HT     0.417000        1.0080           0
   70979 WT6  6627 TIP3 OH2  OT    -0.834000       15.9994           0
   70980 WT6  6627 TIP3 H1   HT     0.417000        1.0080           0
   70981 WT6  6627 TIP3 H2   HT     0.417000        1.0080           0
   70982 WT6  6629 TIP3 OH2  OT    -0.834000       15.9994           0
   70983 WT6  6629 TIP3 H1   HT     0.417000        1.0080           0
   70984 WT6  6629 TIP3 H2   HT     0.417000        1.0080           0
   70985 WT6  6643 TIP3 OH2  OT    -0.834000       15.9994           0
   70986 WT6  6643 TIP3 H1   HT     0.417000        1.0080           0
   70987 WT6  6643 TIP3 H2   HT     0.417000        1.0080           0
   70988 WT6  6650 TIP3 OH2  OT    -0.834000       15.9994           0
   70989 WT6  6650 TIP3 H1   HT     0.417000        1.0080           0
   70990 WT6  6650 TIP3 H2   HT     0.417000        1.0080           0
   70991 WT6  6659 TIP3 OH2  OT    -0.834000       15.9994           0
   70992 WT6  6659 TIP3 H1   HT     0.417000        1.0080           0
   70993 WT6  6659 TIP3 H2   HT     0.417000        1.0080           0
   70994 WT6  6662 TIP3 OH2  OT    -0.834000       15.9994           0
   70995 WT6  6662 TIP3 H1   HT     0.417000        1.0080           0
   70996 WT6  6662 TIP3 H2   HT     0.417000        1.0080           0
   70997 WT6  6667 TIP3 OH2  OT    -0.834000       15.9994           0
   70998 WT6  6667 TIP3 H1   HT     0.417000        1.0080           0
   70999 WT6  6667 TIP3 H2   HT     0.417000        1.0080           0
   71000 WT6  6689 TIP3 OH2  OT    -0.834000       15.9994           0
   71001 WT6  6689 TIP3 H1   HT     0.417000        1.0080           0
   71002 WT6  6689 TIP3 H2   HT     0.417000        1.0080           0
   71003 WT6  6700 TIP3 OH2  OT    -0.834000       15.9994           0
   71004 WT6  6700 TIP3 H1   HT     0.417000        1.0080           0
   71005 WT6  6700 TIP3 H2   HT     0.417000        1.0080           0
   71006 WT6  6707 TIP3 OH2  OT    -0.834000       15.9994           0
   71007 WT6  6707 TIP3 H1   HT     0.417000        1.0080           0
   71008 WT6  6707 TIP3 H2   HT     0.417000        1.0080           0
   71009 WT6  6714 TIP3 OH2  OT    -0.834000       15.9994           0
   71010 WT6  6714 TIP3 H1   HT     0.417000        1.0080           0
   71011 WT6  6714 TIP3 H2   HT     0.417000        1.0080           0
   71012 WT6  6725 TIP3 OH2  OT    -0.834000       15.9994           0
   71013 WT6  6725 TIP3 H1   HT     0.417000        1.0080           0
   71014 WT6  6725 TIP3 H2   HT     0.417000        1.0080           0
   71015 WT6  6733 TIP3 OH2  OT    -0.834000       15.9994           0
   71016 WT6  6733 TIP3 H1   HT     0.417000        1.0080           0
   71017 WT6  6733 TIP3 H2   HT     0.417000        1.0080           0
   71018 WT6  6754 TIP3 OH2  OT    -0.834000       15.9994           0
   71019 WT6  6754 TIP3 H1   HT     0.417000        1.0080           0
   71020 WT6  6754 TIP3 H2   HT     0.417000        1.0080           0
   71021 WT6  6777 TIP3 OH2  OT    -0.834000       15.9994           0
   71022 WT6  6777 TIP3 H1   HT     0.417000        1.0080           0
   71023 WT6  6777 TIP3 H2   HT     0.417000        1.0080           0
   71024 WT6  6952 TIP3 OH2  OT    -0.834000       15.9994           0
   71025 WT6  6952 TIP3 H1   HT     0.417000        1.0080           0
   71026 WT6  6952 TIP3 H2   HT     0.417000        1.0080           0
   71027 WT6  6955 TIP3 OH2  OT    -0.834000       15.9994           0
   71028 WT6  6955 TIP3 H1   HT     0.417000        1.0080           0
   71029 WT6  6955 TIP3 H2   HT     0.417000        1.0080           0
   71030 WT6  6975 TIP3 OH2  OT    -0.834000       15.9994           0
   71031 WT6  6975 TIP3 H1   HT     0.417000        1.0080           0
   71032 WT6  6975 TIP3 H2   HT     0.417000        1.0080           0
   71033 WT6  6988 TIP3 OH2  OT    -0.834000       15.9994           0
   71034 WT6  6988 TIP3 H1   HT     0.417000        1.0080           0
   71035 WT6  6988 TIP3 H2   HT     0.417000        1.0080           0
   71036 WT6  7001 TIP3 OH2  OT    -0.834000       15.9994           0
   71037 WT6  7001 TIP3 H1   HT     0.417000        1.0080           0
   71038 WT6  7001 TIP3 H2   HT     0.417000        1.0080           0
   71039 WT6  7017 TIP3 OH2  OT    -0.834000       15.9994           0
   71040 WT6  7017 TIP3 H1   HT     0.417000        1.0080           0
   71041 WT6  7017 TIP3 H2   HT     0.417000        1.0080           0
   71042 WT6  7020 TIP3 OH2  OT    -0.834000       15.9994           0
   71043 WT6  7020 TIP3 H1   HT     0.417000        1.0080           0
   71044 WT6  7020 TIP3 H2   HT     0.417000        1.0080           0
   71045 WT6  7023 TIP3 OH2  OT    -0.834000       15.9994           0
   71046 WT6  7023 TIP3 H1   HT     0.417000        1.0080           0
   71047 WT6  7023 TIP3 H2   HT     0.417000        1.0080           0
   71048 WT6  7027 TIP3 OH2  OT    -0.834000       15.9994           0
   71049 WT6  7027 TIP3 H1   HT     0.417000        1.0080           0
   71050 WT6  7027 TIP3 H2   HT     0.417000        1.0080           0
   71051 WT6  7029 TIP3 OH2  OT    -0.834000       15.9994           0
   71052 WT6  7029 TIP3 H1   HT     0.417000        1.0080           0
   71053 WT6  7029 TIP3 H2   HT     0.417000        1.0080           0
   71054 WT6  7046 TIP3 OH2  OT    -0.834000       15.9994           0
   71055 WT6  7046 TIP3 H1   HT     0.417000        1.0080           0
   71056 WT6  7046 TIP3 H2   HT     0.417000        1.0080           0
   71057 WT6  7051 TIP3 OH2  OT    -0.834000       15.9994           0
   71058 WT6  7051 TIP3 H1   HT     0.417000        1.0080           0
   71059 WT6  7051 TIP3 H2   HT     0.417000        1.0080           0
   71060 WT6  7065 TIP3 OH2  OT    -0.834000       15.9994           0
   71061 WT6  7065 TIP3 H1   HT     0.417000        1.0080           0
   71062 WT6  7065 TIP3 H2   HT     0.417000        1.0080           0
   71063 WT6  7067 TIP3 OH2  OT    -0.834000       15.9994           0
   71064 WT6  7067 TIP3 H1   HT     0.417000        1.0080           0
   71065 WT6  7067 TIP3 H2   HT     0.417000        1.0080           0
   71066 WT6  7076 TIP3 OH2  OT    -0.834000       15.9994           0
   71067 WT6  7076 TIP3 H1   HT     0.417000        1.0080           0
   71068 WT6  7076 TIP3 H2   HT     0.417000        1.0080           0
   71069 WT6  7083 TIP3 OH2  OT    -0.834000       15.9994           0
   71070 WT6  7083 TIP3 H1   HT     0.417000        1.0080           0
   71071 WT6  7083 TIP3 H2   HT     0.417000        1.0080           0
   71072 WT6  7089 TIP3 OH2  OT    -0.834000       15.9994           0
   71073 WT6  7089 TIP3 H1   HT     0.417000        1.0080           0
   71074 WT6  7089 TIP3 H2   HT     0.417000        1.0080           0
   71075 WT6  7100 TIP3 OH2  OT    -0.834000       15.9994           0
   71076 WT6  7100 TIP3 H1   HT     0.417000        1.0080           0
   71077 WT6  7100 TIP3 H2   HT     0.417000        1.0080           0
   71078 WT6  7103 TIP3 OH2  OT    -0.834000       15.9994           0
   71079 WT6  7103 TIP3 H1   HT     0.417000        1.0080           0
   71080 WT6  7103 TIP3 H2   HT     0.417000        1.0080           0
   71081 WT6  7105 TIP3 OH2  OT    -0.834000       15.9994           0
   71082 WT6  7105 TIP3 H1   HT     0.417000        1.0080           0
   71083 WT6  7105 TIP3 H2   HT     0.417000        1.0080           0
   71084 WT6  7106 TIP3 OH2  OT    -0.834000       15.9994           0
   71085 WT6  7106 TIP3 H1   HT     0.417000        1.0080           0
   71086 WT6  7106 TIP3 H2   HT     0.417000        1.0080           0
   71087 WT6  7112 TIP3 OH2  OT    -0.834000       15.9994           0
   71088 WT6  7112 TIP3 H1   HT     0.417000        1.0080           0
   71089 WT6  7112 TIP3 H2   HT     0.417000        1.0080           0
   71090 WT6  7120 TIP3 OH2  OT    -0.834000       15.9994           0
   71091 WT6  7120 TIP3 H1   HT     0.417000        1.0080           0
   71092 WT6  7120 TIP3 H2   HT     0.417000        1.0080           0
   71093 WT6  7131 TIP3 OH2  OT    -0.834000       15.9994           0
   71094 WT6  7131 TIP3 H1   HT     0.417000        1.0080           0
   71095 WT6  7131 TIP3 H2   HT     0.417000        1.0080           0
   71096 WT6  7132 TIP3 OH2  OT    -0.834000       15.9994           0
   71097 WT6  7132 TIP3 H1   HT     0.417000        1.0080           0
   71098 WT6  7132 TIP3 H2   HT     0.417000        1.0080           0
   71099 WT6  7176 TIP3 OH2  OT    -0.834000       15.9994           0
   71100 WT6  7176 TIP3 H1   HT     0.417000        1.0080           0
   71101 WT6  7176 TIP3 H2   HT     0.417000        1.0080           0
   71102 WT6  7398 TIP3 OH2  OT    -0.834000       15.9994           0
   71103 WT6  7398 TIP3 H1   HT     0.417000        1.0080           0
   71104 WT6  7398 TIP3 H2   HT     0.417000        1.0080           0
   71105 WT6  7415 TIP3 OH2  OT    -0.834000       15.9994           0
   71106 WT6  7415 TIP3 H1   HT     0.417000        1.0080           0
   71107 WT6  7415 TIP3 H2   HT     0.417000        1.0080           0
   71108 WT6  7418 TIP3 OH2  OT    -0.834000       15.9994           0
   71109 WT6  7418 TIP3 H1   HT     0.417000        1.0080           0
   71110 WT6  7418 TIP3 H2   HT     0.417000        1.0080           0
   71111 WT6  7431 TIP3 OH2  OT    -0.834000       15.9994           0
   71112 WT6  7431 TIP3 H1   HT     0.417000        1.0080           0
   71113 WT6  7431 TIP3 H2   HT     0.417000        1.0080           0
   71114 WT6  7437 TIP3 OH2  OT    -0.834000       15.9994           0
   71115 WT6  7437 TIP3 H1   HT     0.417000        1.0080           0
   71116 WT6  7437 TIP3 H2   HT     0.417000        1.0080           0
   71117 WT6  7439 TIP3 OH2  OT    -0.834000       15.9994           0
   71118 WT6  7439 TIP3 H1   HT     0.417000        1.0080           0
   71119 WT6  7439 TIP3 H2   HT     0.417000        1.0080           0
   71120 WT6  7461 TIP3 OH2  OT    -0.834000       15.9994           0
   71121 WT6  7461 TIP3 H1   HT     0.417000        1.0080           0
   71122 WT6  7461 TIP3 H2   HT     0.417000        1.0080           0
   71123 WT6  7471 TIP3 OH2  OT    -0.834000       15.9994           0
   71124 WT6  7471 TIP3 H1   HT     0.417000        1.0080           0
   71125 WT6  7471 TIP3 H2   HT     0.417000        1.0080           0
   71126 WT6  7472 TIP3 OH2  OT    -0.834000       15.9994           0
   71127 WT6  7472 TIP3 H1   HT     0.417000        1.0080           0
   71128 WT6  7472 TIP3 H2   HT     0.417000        1.0080           0
   71129 WT6  7479 TIP3 OH2  OT    -0.834000       15.9994           0
   71130 WT6  7479 TIP3 H1   HT     0.417000        1.0080           0
   71131 WT6  7479 TIP3 H2   HT     0.417000        1.0080           0
   71132 WT6  7490 TIP3 OH2  OT    -0.834000       15.9994           0
   71133 WT6  7490 TIP3 H1   HT     0.417000        1.0080           0
   71134 WT6  7490 TIP3 H2   HT     0.417000        1.0080           0
   71135 WT6  7498 TIP3 OH2  OT    -0.834000       15.9994           0
   71136 WT6  7498 TIP3 H1   HT     0.417000        1.0080           0
   71137 WT6  7498 TIP3 H2   HT     0.417000        1.0080           0
   71138 WT6  7501 TIP3 OH2  OT    -0.834000       15.9994           0
   71139 WT6  7501 TIP3 H1   HT     0.417000        1.0080           0
   71140 WT6  7501 TIP3 H2   HT     0.417000        1.0080           0
   71141 WT6  7504 TIP3 OH2  OT    -0.834000       15.9994           0
   71142 WT6  7504 TIP3 H1   HT     0.417000        1.0080           0
   71143 WT6  7504 TIP3 H2   HT     0.417000        1.0080           0
   71144 WT6  7505 TIP3 OH2  OT    -0.834000       15.9994           0
   71145 WT6  7505 TIP3 H1   HT     0.417000        1.0080           0
   71146 WT6  7505 TIP3 H2   HT     0.417000        1.0080           0
   71147 WT6  7506 TIP3 OH2  OT    -0.834000       15.9994           0
   71148 WT6  7506 TIP3 H1   HT     0.417000        1.0080           0
   71149 WT6  7506 TIP3 H2   HT     0.417000        1.0080           0
   71150 WT6  7507 TIP3 OH2  OT    -0.834000       15.9994           0
   71151 WT6  7507 TIP3 H1   HT     0.417000        1.0080           0
   71152 WT6  7507 TIP3 H2   HT     0.417000        1.0080           0
   71153 WT6  7508 TIP3 OH2  OT    -0.834000       15.9994           0
   71154 WT6  7508 TIP3 H1   HT     0.417000        1.0080           0
   71155 WT6  7508 TIP3 H2   HT     0.417000        1.0080           0
   71156 WT6  7509 TIP3 OH2  OT    -0.834000       15.9994           0
   71157 WT6  7509 TIP3 H1   HT     0.417000        1.0080           0
   71158 WT6  7509 TIP3 H2   HT     0.417000        1.0080           0
   71159 WT6  7526 TIP3 OH2  OT    -0.834000       15.9994           0
   71160 WT6  7526 TIP3 H1   HT     0.417000        1.0080           0
   71161 WT6  7526 TIP3 H2   HT     0.417000        1.0080           0
   71162 WT6  7528 TIP3 OH2  OT    -0.834000       15.9994           0
   71163 WT6  7528 TIP3 H1   HT     0.417000        1.0080           0
   71164 WT6  7528 TIP3 H2   HT     0.417000        1.0080           0
   71165 WT6  7530 TIP3 OH2  OT    -0.834000       15.9994           0
   71166 WT6  7530 TIP3 H1   HT     0.417000        1.0080           0
   71167 WT6  7530 TIP3 H2   HT     0.417000        1.0080           0
   71168 WT6  7571 TIP3 OH2  OT    -0.834000       15.9994           0
   71169 WT6  7571 TIP3 H1   HT     0.417000        1.0080           0
   71170 WT6  7571 TIP3 H2   HT     0.417000        1.0080           0
   71171 WT6  7602 TIP3 OH2  OT    -0.834000       15.9994           0
   71172 WT6  7602 TIP3 H1   HT     0.417000        1.0080           0
   71173 WT6  7602 TIP3 H2   HT     0.417000        1.0080           0
   71174 WT6  7608 TIP3 OH2  OT    -0.834000       15.9994           0
   71175 WT6  7608 TIP3 H1   HT     0.417000        1.0080           0
   71176 WT6  7608 TIP3 H2   HT     0.417000        1.0080           0
   71177 WT6  7629 TIP3 OH2  OT    -0.834000       15.9994           0
   71178 WT6  7629 TIP3 H1   HT     0.417000        1.0080           0
   71179 WT6  7629 TIP3 H2   HT     0.417000        1.0080           0
   71180 WT6  7707 TIP3 OH2  OT    -0.834000       15.9994           0
   71181 WT6  7707 TIP3 H1   HT     0.417000        1.0080           0
   71182 WT6  7707 TIP3 H2   HT     0.417000        1.0080           0
   71183 WT6  7872 TIP3 OH2  OT    -0.834000       15.9994           0
   71184 WT6  7872 TIP3 H1   HT     0.417000        1.0080           0
   71185 WT6  7872 TIP3 H2   HT     0.417000        1.0080           0
   71186 WT6  7883 TIP3 OH2  OT    -0.834000       15.9994           0
   71187 WT6  7883 TIP3 H1   HT     0.417000        1.0080           0
   71188 WT6  7883 TIP3 H2   HT     0.417000        1.0080           0
   71189 WT6  7886 TIP3 OH2  OT    -0.834000       15.9994           0
   71190 WT6  7886 TIP3 H1   HT     0.417000        1.0080           0
   71191 WT6  7886 TIP3 H2   HT     0.417000        1.0080           0
   71192 WT6  7894 TIP3 OH2  OT    -0.834000       15.9994           0
   71193 WT6  7894 TIP3 H1   HT     0.417000        1.0080           0
   71194 WT6  7894 TIP3 H2   HT     0.417000        1.0080           0
   71195 WT6  7904 TIP3 OH2  OT    -0.834000       15.9994           0
   71196 WT6  7904 TIP3 H1   HT     0.417000        1.0080           0
   71197 WT6  7904 TIP3 H2   HT     0.417000        1.0080           0
   71198 WT6  7908 TIP3 OH2  OT    -0.834000       15.9994           0
   71199 WT6  7908 TIP3 H1   HT     0.417000        1.0080           0
   71200 WT6  7908 TIP3 H2   HT     0.417000        1.0080           0
   71201 WT6  7924 TIP3 OH2  OT    -0.834000       15.9994           0
   71202 WT6  7924 TIP3 H1   HT     0.417000        1.0080           0
   71203 WT6  7924 TIP3 H2   HT     0.417000        1.0080           0
   71204 WT6  7926 TIP3 OH2  OT    -0.834000       15.9994           0
   71205 WT6  7926 TIP3 H1   HT     0.417000        1.0080           0
   71206 WT6  7926 TIP3 H2   HT     0.417000        1.0080           0
   71207 WT6  7927 TIP3 OH2  OT    -0.834000       15.9994           0
   71208 WT6  7927 TIP3 H1   HT     0.417000        1.0080           0
   71209 WT6  7927 TIP3 H2   HT     0.417000        1.0080           0
   71210 WT6  7930 TIP3 OH2  OT    -0.834000       15.9994           0
   71211 WT6  7930 TIP3 H1   HT     0.417000        1.0080           0
   71212 WT6  7930 TIP3 H2   HT     0.417000        1.0080           0
   71213 WT6  7931 TIP3 OH2  OT    -0.834000       15.9994           0
   71214 WT6  7931 TIP3 H1   HT     0.417000        1.0080           0
   71215 WT6  7931 TIP3 H2   HT     0.417000        1.0080           0
   71216 WT6  7933 TIP3 OH2  OT    -0.834000       15.9994           0
   71217 WT6  7933 TIP3 H1   HT     0.417000        1.0080           0
   71218 WT6  7933 TIP3 H2   HT     0.417000        1.0080           0
   71219 WT6  7938 TIP3 OH2  OT    -0.834000       15.9994           0
   71220 WT6  7938 TIP3 H1   HT     0.417000        1.0080           0
   71221 WT6  7938 TIP3 H2   HT     0.417000        1.0080           0
   71222 WT6  7941 TIP3 OH2  OT    -0.834000       15.9994           0
   71223 WT6  7941 TIP3 H1   HT     0.417000        1.0080           0
   71224 WT6  7941 TIP3 H2   HT     0.417000        1.0080           0
   71225 WT6  7945 TIP3 OH2  OT    -0.834000       15.9994           0
   71226 WT6  7945 TIP3 H1   HT     0.417000        1.0080           0
   71227 WT6  7945 TIP3 H2   HT     0.417000        1.0080           0
   71228 WT6  7951 TIP3 OH2  OT    -0.834000       15.9994           0
   71229 WT6  7951 TIP3 H1   HT     0.417000        1.0080           0
   71230 WT6  7951 TIP3 H2   HT     0.417000        1.0080           0
   71231 WT6  7961 TIP3 OH2  OT    -0.834000       15.9994           0
   71232 WT6  7961 TIP3 H1   HT     0.417000        1.0080           0
   71233 WT6  7961 TIP3 H2   HT     0.417000        1.0080           0
   71234 WT6  7965 TIP3 OH2  OT    -0.834000       15.9994           0
   71235 WT6  7965 TIP3 H1   HT     0.417000        1.0080           0
   71236 WT6  7965 TIP3 H2   HT     0.417000        1.0080           0
   71237 WT6  7966 TIP3 OH2  OT    -0.834000       15.9994           0
   71238 WT6  7966 TIP3 H1   HT     0.417000        1.0080           0
   71239 WT6  7966 TIP3 H2   HT     0.417000        1.0080           0
   71240 WT6  7992 TIP3 OH2  OT    -0.834000       15.9994           0
   71241 WT6  7992 TIP3 H1   HT     0.417000        1.0080           0
   71242 WT6  7992 TIP3 H2   HT     0.417000        1.0080           0
   71243 WT6  8005 TIP3 OH2  OT    -0.834000       15.9994           0
   71244 WT6  8005 TIP3 H1   HT     0.417000        1.0080           0
   71245 WT6  8005 TIP3 H2   HT     0.417000        1.0080           0
   71246 WT6  8006 TIP3 OH2  OT    -0.834000       15.9994           0
   71247 WT6  8006 TIP3 H1   HT     0.417000        1.0080           0
   71248 WT6  8006 TIP3 H2   HT     0.417000        1.0080           0
   71249 WT6  8009 TIP3 OH2  OT    -0.834000       15.9994           0
   71250 WT6  8009 TIP3 H1   HT     0.417000        1.0080           0
   71251 WT6  8009 TIP3 H2   HT     0.417000        1.0080           0
   71252 WT6  8022 TIP3 OH2  OT    -0.834000       15.9994           0
   71253 WT6  8022 TIP3 H1   HT     0.417000        1.0080           0
   71254 WT6  8022 TIP3 H2   HT     0.417000        1.0080           0
   71255 WT6  8034 TIP3 OH2  OT    -0.834000       15.9994           0
   71256 WT6  8034 TIP3 H1   HT     0.417000        1.0080           0
   71257 WT6  8034 TIP3 H2   HT     0.417000        1.0080           0
   71258 WT6  8037 TIP3 OH2  OT    -0.834000       15.9994           0
   71259 WT6  8037 TIP3 H1   HT     0.417000        1.0080           0
   71260 WT6  8037 TIP3 H2   HT     0.417000        1.0080           0
   71261 WT6  8047 TIP3 OH2  OT    -0.834000       15.9994           0
   71262 WT6  8047 TIP3 H1   HT     0.417000        1.0080           0
   71263 WT6  8047 TIP3 H2   HT     0.417000        1.0080           0
   71264 WT6  8290 TIP3 OH2  OT    -0.834000       15.9994           0
   71265 WT6  8290 TIP3 H1   HT     0.417000        1.0080           0
   71266 WT6  8290 TIP3 H2   HT     0.417000        1.0080           0
   71267 WT6  8309 TIP3 OH2  OT    -0.834000       15.9994           0
   71268 WT6  8309 TIP3 H1   HT     0.417000        1.0080           0
   71269 WT6  8309 TIP3 H2   HT     0.417000        1.0080           0
   71270 WT6  8319 TIP3 OH2  OT    -0.834000       15.9994           0
   71271 WT6  8319 TIP3 H1   HT     0.417000        1.0080           0
   71272 WT6  8319 TIP3 H2   HT     0.417000        1.0080           0
   71273 WT6  8324 TIP3 OH2  OT    -0.834000       15.9994           0
   71274 WT6  8324 TIP3 H1   HT     0.417000        1.0080           0
   71275 WT6  8324 TIP3 H2   HT     0.417000        1.0080           0
   71276 WT6  8327 TIP3 OH2  OT    -0.834000       15.9994           0
   71277 WT6  8327 TIP3 H1   HT     0.417000        1.0080           0
   71278 WT6  8327 TIP3 H2   HT     0.417000        1.0080           0
   71279 WT6  8339 TIP3 OH2  OT    -0.834000       15.9994           0
   71280 WT6  8339 TIP3 H1   HT     0.417000        1.0080           0
   71281 WT6  8339 TIP3 H2   HT     0.417000        1.0080           0
   71282 WT6  8369 TIP3 OH2  OT    -0.834000       15.9994           0
   71283 WT6  8369 TIP3 H1   HT     0.417000        1.0080           0
   71284 WT6  8369 TIP3 H2   HT     0.417000        1.0080           0
   71285 WT6  8370 TIP3 OH2  OT    -0.834000       15.9994           0
   71286 WT6  8370 TIP3 H1   HT     0.417000        1.0080           0
   71287 WT6  8370 TIP3 H2   HT     0.417000        1.0080           0
   71288 WT6  8377 TIP3 OH2  OT    -0.834000       15.9994           0
   71289 WT6  8377 TIP3 H1   HT     0.417000        1.0080           0
   71290 WT6  8377 TIP3 H2   HT     0.417000        1.0080           0
   71291 WT6  8384 TIP3 OH2  OT    -0.834000       15.9994           0
   71292 WT6  8384 TIP3 H1   HT     0.417000        1.0080           0
   71293 WT6  8384 TIP3 H2   HT     0.417000        1.0080           0
   71294 WT6  8408 TIP3 OH2  OT    -0.834000       15.9994           0
   71295 WT6  8408 TIP3 H1   HT     0.417000        1.0080           0
   71296 WT6  8408 TIP3 H2   HT     0.417000        1.0080           0
   71297 WT6  8411 TIP3 OH2  OT    -0.834000       15.9994           0
   71298 WT6  8411 TIP3 H1   HT     0.417000        1.0080           0
   71299 WT6  8411 TIP3 H2   HT     0.417000        1.0080           0
   71300 WT6  8412 TIP3 OH2  OT    -0.834000       15.9994           0
   71301 WT6  8412 TIP3 H1   HT     0.417000        1.0080           0
   71302 WT6  8412 TIP3 H2   HT     0.417000        1.0080           0
   71303 WT6  8413 TIP3 OH2  OT    -0.834000       15.9994           0
   71304 WT6  8413 TIP3 H1   HT     0.417000        1.0080           0
   71305 WT6  8413 TIP3 H2   HT     0.417000        1.0080           0
   71306 WT6  8416 TIP3 OH2  OT    -0.834000       15.9994           0
   71307 WT6  8416 TIP3 H1   HT     0.417000        1.0080           0
   71308 WT6  8416 TIP3 H2   HT     0.417000        1.0080           0
   71309 WT6  8421 TIP3 OH2  OT    -0.834000       15.9994           0
   71310 WT6  8421 TIP3 H1   HT     0.417000        1.0080           0
   71311 WT6  8421 TIP3 H2   HT     0.417000        1.0080           0
   71312 WT6  8431 TIP3 OH2  OT    -0.834000       15.9994           0
   71313 WT6  8431 TIP3 H1   HT     0.417000        1.0080           0
   71314 WT6  8431 TIP3 H2   HT     0.417000        1.0080           0
   71315 WT6  8447 TIP3 OH2  OT    -0.834000       15.9994           0
   71316 WT6  8447 TIP3 H1   HT     0.417000        1.0080           0
   71317 WT6  8447 TIP3 H2   HT     0.417000        1.0080           0
   71318 WT6  8509 TIP3 OH2  OT    -0.834000       15.9994           0
   71319 WT6  8509 TIP3 H1   HT     0.417000        1.0080           0
   71320 WT6  8509 TIP3 H2   HT     0.417000        1.0080           0
   71321 WT6  8514 TIP3 OH2  OT    -0.834000       15.9994           0
   71322 WT6  8514 TIP3 H1   HT     0.417000        1.0080           0
   71323 WT6  8514 TIP3 H2   HT     0.417000        1.0080           0
   71324 WT6  8779 TIP3 OH2  OT    -0.834000       15.9994           0
   71325 WT6  8779 TIP3 H1   HT     0.417000        1.0080           0
   71326 WT6  8779 TIP3 H2   HT     0.417000        1.0080           0
   71327 WT6  8790 TIP3 OH2  OT    -0.834000       15.9994           0
   71328 WT6  8790 TIP3 H1   HT     0.417000        1.0080           0
   71329 WT6  8790 TIP3 H2   HT     0.417000        1.0080           0
   71330 WT6  8792 TIP3 OH2  OT    -0.834000       15.9994           0
   71331 WT6  8792 TIP3 H1   HT     0.417000        1.0080           0
   71332 WT6  8792 TIP3 H2   HT     0.417000        1.0080           0
   71333 WT6  8802 TIP3 OH2  OT    -0.834000       15.9994           0
   71334 WT6  8802 TIP3 H1   HT     0.417000        1.0080           0
   71335 WT6  8802 TIP3 H2   HT     0.417000        1.0080           0
   71336 WT6  8803 TIP3 OH2  OT    -0.834000       15.9994           0
   71337 WT6  8803 TIP3 H1   HT     0.417000        1.0080           0
   71338 WT6  8803 TIP3 H2   HT     0.417000        1.0080           0
   71339 WT6  8807 TIP3 OH2  OT    -0.834000       15.9994           0
   71340 WT6  8807 TIP3 H1   HT     0.417000        1.0080           0
   71341 WT6  8807 TIP3 H2   HT     0.417000        1.0080           0
   71342 WT6  8823 TIP3 OH2  OT    -0.834000       15.9994           0
   71343 WT6  8823 TIP3 H1   HT     0.417000        1.0080           0
   71344 WT6  8823 TIP3 H2   HT     0.417000        1.0080           0
   71345 WT6  8831 TIP3 OH2  OT    -0.834000       15.9994           0
   71346 WT6  8831 TIP3 H1   HT     0.417000        1.0080           0
   71347 WT6  8831 TIP3 H2   HT     0.417000        1.0080           0
   71348 WT6  8833 TIP3 OH2  OT    -0.834000       15.9994           0
   71349 WT6  8833 TIP3 H1   HT     0.417000        1.0080           0
   71350 WT6  8833 TIP3 H2   HT     0.417000        1.0080           0
   71351 WT6  8836 TIP3 OH2  OT    -0.834000       15.9994           0
   71352 WT6  8836 TIP3 H1   HT     0.417000        1.0080           0
   71353 WT6  8836 TIP3 H2   HT     0.417000        1.0080           0
   71354 WT6  8843 TIP3 OH2  OT    -0.834000       15.9994           0
   71355 WT6  8843 TIP3 H1   HT     0.417000        1.0080           0
   71356 WT6  8843 TIP3 H2   HT     0.417000        1.0080           0
   71357 WT6  8846 TIP3 OH2  OT    -0.834000       15.9994           0
   71358 WT6  8846 TIP3 H1   HT     0.417000        1.0080           0
   71359 WT6  8846 TIP3 H2   HT     0.417000        1.0080           0
   71360 WT6  8848 TIP3 OH2  OT    -0.834000       15.9994           0
   71361 WT6  8848 TIP3 H1   HT     0.417000        1.0080           0
   71362 WT6  8848 TIP3 H2   HT     0.417000        1.0080           0
   71363 WT6  8849 TIP3 OH2  OT    -0.834000       15.9994           0
   71364 WT6  8849 TIP3 H1   HT     0.417000        1.0080           0
   71365 WT6  8849 TIP3 H2   HT     0.417000        1.0080           0
   71366 WT6  8866 TIP3 OH2  OT    -0.834000       15.9994           0
   71367 WT6  8866 TIP3 H1   HT     0.417000        1.0080           0
   71368 WT6  8866 TIP3 H2   HT     0.417000        1.0080           0
   71369 WT6  8869 TIP3 OH2  OT    -0.834000       15.9994           0
   71370 WT6  8869 TIP3 H1   HT     0.417000        1.0080           0
   71371 WT6  8869 TIP3 H2   HT     0.417000        1.0080           0
   71372 WT6  8903 TIP3 OH2  OT    -0.834000       15.9994           0
   71373 WT6  8903 TIP3 H1   HT     0.417000        1.0080           0
   71374 WT6  8903 TIP3 H2   HT     0.417000        1.0080           0
   71375 WT6  8907 TIP3 OH2  OT    -0.834000       15.9994           0
   71376 WT6  8907 TIP3 H1   HT     0.417000        1.0080           0
   71377 WT6  8907 TIP3 H2   HT     0.417000        1.0080           0
   71378 WT6  8917 TIP3 OH2  OT    -0.834000       15.9994           0
   71379 WT6  8917 TIP3 H1   HT     0.417000        1.0080           0
   71380 WT6  8917 TIP3 H2   HT     0.417000        1.0080           0
   71381 WT6  8925 TIP3 OH2  OT    -0.834000       15.9994           0
   71382 WT6  8925 TIP3 H1   HT     0.417000        1.0080           0
   71383 WT6  8925 TIP3 H2   HT     0.417000        1.0080           0
   71384 WT6  9151 TIP3 OH2  OT    -0.834000       15.9994           0
   71385 WT6  9151 TIP3 H1   HT     0.417000        1.0080           0
   71386 WT6  9151 TIP3 H2   HT     0.417000        1.0080           0
   71387 WT6  9165 TIP3 OH2  OT    -0.834000       15.9994           0
   71388 WT6  9165 TIP3 H1   HT     0.417000        1.0080           0
   71389 WT6  9165 TIP3 H2   HT     0.417000        1.0080           0
   71390 WT6  9168 TIP3 OH2  OT    -0.834000       15.9994           0
   71391 WT6  9168 TIP3 H1   HT     0.417000        1.0080           0
   71392 WT6  9168 TIP3 H2   HT     0.417000        1.0080           0
   71393 WT6  9212 TIP3 OH2  OT    -0.834000       15.9994           0
   71394 WT6  9212 TIP3 H1   HT     0.417000        1.0080           0
   71395 WT6  9212 TIP3 H2   HT     0.417000        1.0080           0
   71396 WT6  9214 TIP3 OH2  OT    -0.834000       15.9994           0
   71397 WT6  9214 TIP3 H1   HT     0.417000        1.0080           0
   71398 WT6  9214 TIP3 H2   HT     0.417000        1.0080           0
   71399 WT6  9224 TIP3 OH2  OT    -0.834000       15.9994           0
   71400 WT6  9224 TIP3 H1   HT     0.417000        1.0080           0
   71401 WT6  9224 TIP3 H2   HT     0.417000        1.0080           0
   71402 WT6  9226 TIP3 OH2  OT    -0.834000       15.9994           0
   71403 WT6  9226 TIP3 H1   HT     0.417000        1.0080           0
   71404 WT6  9226 TIP3 H2   HT     0.417000        1.0080           0
   71405 WT6  9230 TIP3 OH2  OT    -0.834000       15.9994           0
   71406 WT6  9230 TIP3 H1   HT     0.417000        1.0080           0
   71407 WT6  9230 TIP3 H2   HT     0.417000        1.0080           0
   71408 WT6  9231 TIP3 OH2  OT    -0.834000       15.9994           0
   71409 WT6  9231 TIP3 H1   HT     0.417000        1.0080           0
   71410 WT6  9231 TIP3 H2   HT     0.417000        1.0080           0
   71411 WT6  9246 TIP3 OH2  OT    -0.834000       15.9994           0
   71412 WT6  9246 TIP3 H1   HT     0.417000        1.0080           0
   71413 WT6  9246 TIP3 H2   HT     0.417000        1.0080           0
   71414 WT6  9253 TIP3 OH2  OT    -0.834000       15.9994           0
   71415 WT6  9253 TIP3 H1   HT     0.417000        1.0080           0
   71416 WT6  9253 TIP3 H2   HT     0.417000        1.0080           0
   71417 WT6  9261 TIP3 OH2  OT    -0.834000       15.9994           0
   71418 WT6  9261 TIP3 H1   HT     0.417000        1.0080           0
   71419 WT6  9261 TIP3 H2   HT     0.417000        1.0080           0
   71420 WT7  2    TIP3 OH2  OT    -0.834000       15.9994           0
   71421 WT7  2    TIP3 H1   HT     0.417000        1.0080           0
   71422 WT7  2    TIP3 H2   HT     0.417000        1.0080           0
   71423 WT7  5    TIP3 OH2  OT    -0.834000       15.9994           0
   71424 WT7  5    TIP3 H1   HT     0.417000        1.0080           0
   71425 WT7  5    TIP3 H2   HT     0.417000        1.0080           0
   71426 WT7  8    TIP3 OH2  OT    -0.834000       15.9994           0
   71427 WT7  8    TIP3 H1   HT     0.417000        1.0080           0
   71428 WT7  8    TIP3 H2   HT     0.417000        1.0080           0
   71429 WT7  14   TIP3 OH2  OT    -0.834000       15.9994           0
   71430 WT7  14   TIP3 H1   HT     0.417000        1.0080           0
   71431 WT7  14   TIP3 H2   HT     0.417000        1.0080           0
   71432 WT7  15   TIP3 OH2  OT    -0.834000       15.9994           0
   71433 WT7  15   TIP3 H1   HT     0.417000        1.0080           0
   71434 WT7  15   TIP3 H2   HT     0.417000        1.0080           0
   71435 WT7  19   TIP3 OH2  OT    -0.834000       15.9994           0
   71436 WT7  19   TIP3 H1   HT     0.417000        1.0080           0
   71437 WT7  19   TIP3 H2   HT     0.417000        1.0080           0
   71438 WT7  21   TIP3 OH2  OT    -0.834000       15.9994           0
   71439 WT7  21   TIP3 H1   HT     0.417000        1.0080           0
   71440 WT7  21   TIP3 H2   HT     0.417000        1.0080           0
   71441 WT7  40   TIP3 OH2  OT    -0.834000       15.9994           0
   71442 WT7  40   TIP3 H1   HT     0.417000        1.0080           0
   71443 WT7  40   TIP3 H2   HT     0.417000        1.0080           0
   71444 WT7  42   TIP3 OH2  OT    -0.834000       15.9994           0
   71445 WT7  42   TIP3 H1   HT     0.417000        1.0080           0
   71446 WT7  42   TIP3 H2   HT     0.417000        1.0080           0
   71447 WT7  44   TIP3 OH2  OT    -0.834000       15.9994           0
   71448 WT7  44   TIP3 H1   HT     0.417000        1.0080           0
   71449 WT7  44   TIP3 H2   HT     0.417000        1.0080           0
   71450 WT7  48   TIP3 OH2  OT    -0.834000       15.9994           0
   71451 WT7  48   TIP3 H1   HT     0.417000        1.0080           0
   71452 WT7  48   TIP3 H2   HT     0.417000        1.0080           0
   71453 WT7  52   TIP3 OH2  OT    -0.834000       15.9994           0
   71454 WT7  52   TIP3 H1   HT     0.417000        1.0080           0
   71455 WT7  52   TIP3 H2   HT     0.417000        1.0080           0
   71456 WT7  53   TIP3 OH2  OT    -0.834000       15.9994           0
   71457 WT7  53   TIP3 H1   HT     0.417000        1.0080           0
   71458 WT7  53   TIP3 H2   HT     0.417000        1.0080           0
   71459 WT7  55   TIP3 OH2  OT    -0.834000       15.9994           0
   71460 WT7  55   TIP3 H1   HT     0.417000        1.0080           0
   71461 WT7  55   TIP3 H2   HT     0.417000        1.0080           0
   71462 WT7  61   TIP3 OH2  OT    -0.834000       15.9994           0
   71463 WT7  61   TIP3 H1   HT     0.417000        1.0080           0
   71464 WT7  61   TIP3 H2   HT     0.417000        1.0080           0
   71465 WT7  65   TIP3 OH2  OT    -0.834000       15.9994           0
   71466 WT7  65   TIP3 H1   HT     0.417000        1.0080           0
   71467 WT7  65   TIP3 H2   HT     0.417000        1.0080           0
   71468 WT7  67   TIP3 OH2  OT    -0.834000       15.9994           0
   71469 WT7  67   TIP3 H1   HT     0.417000        1.0080           0
   71470 WT7  67   TIP3 H2   HT     0.417000        1.0080           0
   71471 WT7  77   TIP3 OH2  OT    -0.834000       15.9994           0
   71472 WT7  77   TIP3 H1   HT     0.417000        1.0080           0
   71473 WT7  77   TIP3 H2   HT     0.417000        1.0080           0
   71474 WT7  78   TIP3 OH2  OT    -0.834000       15.9994           0
   71475 WT7  78   TIP3 H1   HT     0.417000        1.0080           0
   71476 WT7  78   TIP3 H2   HT     0.417000        1.0080           0
   71477 WT7  81   TIP3 OH2  OT    -0.834000       15.9994           0
   71478 WT7  81   TIP3 H1   HT     0.417000        1.0080           0
   71479 WT7  81   TIP3 H2   HT     0.417000        1.0080           0
   71480 WT7  87   TIP3 OH2  OT    -0.834000       15.9994           0
   71481 WT7  87   TIP3 H1   HT     0.417000        1.0080           0
   71482 WT7  87   TIP3 H2   HT     0.417000        1.0080           0
   71483 WT7  88   TIP3 OH2  OT    -0.834000       15.9994           0
   71484 WT7  88   TIP3 H1   HT     0.417000        1.0080           0
   71485 WT7  88   TIP3 H2   HT     0.417000        1.0080           0
   71486 WT7  89   TIP3 OH2  OT    -0.834000       15.9994           0
   71487 WT7  89   TIP3 H1   HT     0.417000        1.0080           0
   71488 WT7  89   TIP3 H2   HT     0.417000        1.0080           0
   71489 WT7  94   TIP3 OH2  OT    -0.834000       15.9994           0
   71490 WT7  94   TIP3 H1   HT     0.417000        1.0080           0
   71491 WT7  94   TIP3 H2   HT     0.417000        1.0080           0
   71492 WT7  95   TIP3 OH2  OT    -0.834000       15.9994           0
   71493 WT7  95   TIP3 H1   HT     0.417000        1.0080           0
   71494 WT7  95   TIP3 H2   HT     0.417000        1.0080           0
   71495 WT7  103  TIP3 OH2  OT    -0.834000       15.9994           0
   71496 WT7  103  TIP3 H1   HT     0.417000        1.0080           0
   71497 WT7  103  TIP3 H2   HT     0.417000        1.0080           0
   71498 WT7  105  TIP3 OH2  OT    -0.834000       15.9994           0
   71499 WT7  105  TIP3 H1   HT     0.417000        1.0080           0
   71500 WT7  105  TIP3 H2   HT     0.417000        1.0080           0
   71501 WT7  108  TIP3 OH2  OT    -0.834000       15.9994           0
   71502 WT7  108  TIP3 H1   HT     0.417000        1.0080           0
   71503 WT7  108  TIP3 H2   HT     0.417000        1.0080           0
   71504 WT7  113  TIP3 OH2  OT    -0.834000       15.9994           0
   71505 WT7  113  TIP3 H1   HT     0.417000        1.0080           0
   71506 WT7  113  TIP3 H2   HT     0.417000        1.0080           0
   71507 WT7  122  TIP3 OH2  OT    -0.834000       15.9994           0
   71508 WT7  122  TIP3 H1   HT     0.417000        1.0080           0
   71509 WT7  122  TIP3 H2   HT     0.417000        1.0080           0
   71510 WT7  128  TIP3 OH2  OT    -0.834000       15.9994           0
   71511 WT7  128  TIP3 H1   HT     0.417000        1.0080           0
   71512 WT7  128  TIP3 H2   HT     0.417000        1.0080           0
   71513 WT7  135  TIP3 OH2  OT    -0.834000       15.9994           0
   71514 WT7  135  TIP3 H1   HT     0.417000        1.0080           0
   71515 WT7  135  TIP3 H2   HT     0.417000        1.0080           0
   71516 WT7  137  TIP3 OH2  OT    -0.834000       15.9994           0
   71517 WT7  137  TIP3 H1   HT     0.417000        1.0080           0
   71518 WT7  137  TIP3 H2   HT     0.417000        1.0080           0
   71519 WT7  148  TIP3 OH2  OT    -0.834000       15.9994           0
   71520 WT7  148  TIP3 H1   HT     0.417000        1.0080           0
   71521 WT7  148  TIP3 H2   HT     0.417000        1.0080           0
   71522 WT7  150  TIP3 OH2  OT    -0.834000       15.9994           0
   71523 WT7  150  TIP3 H1   HT     0.417000        1.0080           0
   71524 WT7  150  TIP3 H2   HT     0.417000        1.0080           0
   71525 WT7  153  TIP3 OH2  OT    -0.834000       15.9994           0
   71526 WT7  153  TIP3 H1   HT     0.417000        1.0080           0
   71527 WT7  153  TIP3 H2   HT     0.417000        1.0080           0
   71528 WT7  155  TIP3 OH2  OT    -0.834000       15.9994           0
   71529 WT7  155  TIP3 H1   HT     0.417000        1.0080           0
   71530 WT7  155  TIP3 H2   HT     0.417000        1.0080           0
   71531 WT7  165  TIP3 OH2  OT    -0.834000       15.9994           0
   71532 WT7  165  TIP3 H1   HT     0.417000        1.0080           0
   71533 WT7  165  TIP3 H2   HT     0.417000        1.0080           0
   71534 WT7  167  TIP3 OH2  OT    -0.834000       15.9994           0
   71535 WT7  167  TIP3 H1   HT     0.417000        1.0080           0
   71536 WT7  167  TIP3 H2   HT     0.417000        1.0080           0
   71537 WT7  174  TIP3 OH2  OT    -0.834000       15.9994           0
   71538 WT7  174  TIP3 H1   HT     0.417000        1.0080           0
   71539 WT7  174  TIP3 H2   HT     0.417000        1.0080           0
   71540 WT7  175  TIP3 OH2  OT    -0.834000       15.9994           0
   71541 WT7  175  TIP3 H1   HT     0.417000        1.0080           0
   71542 WT7  175  TIP3 H2   HT     0.417000        1.0080           0
   71543 WT7  177  TIP3 OH2  OT    -0.834000       15.9994           0
   71544 WT7  177  TIP3 H1   HT     0.417000        1.0080           0
   71545 WT7  177  TIP3 H2   HT     0.417000        1.0080           0
   71546 WT7  178  TIP3 OH2  OT    -0.834000       15.9994           0
   71547 WT7  178  TIP3 H1   HT     0.417000        1.0080           0
   71548 WT7  178  TIP3 H2   HT     0.417000        1.0080           0
   71549 WT7  195  TIP3 OH2  OT    -0.834000       15.9994           0
   71550 WT7  195  TIP3 H1   HT     0.417000        1.0080           0
   71551 WT7  195  TIP3 H2   HT     0.417000        1.0080           0
   71552 WT7  196  TIP3 OH2  OT    -0.834000       15.9994           0
   71553 WT7  196  TIP3 H1   HT     0.417000        1.0080           0
   71554 WT7  196  TIP3 H2   HT     0.417000        1.0080           0
   71555 WT7  198  TIP3 OH2  OT    -0.834000       15.9994           0
   71556 WT7  198  TIP3 H1   HT     0.417000        1.0080           0
   71557 WT7  198  TIP3 H2   HT     0.417000        1.0080           0
   71558 WT7  205  TIP3 OH2  OT    -0.834000       15.9994           0
   71559 WT7  205  TIP3 H1   HT     0.417000        1.0080           0
   71560 WT7  205  TIP3 H2   HT     0.417000        1.0080           0
   71561 WT7  207  TIP3 OH2  OT    -0.834000       15.9994           0
   71562 WT7  207  TIP3 H1   HT     0.417000        1.0080           0
   71563 WT7  207  TIP3 H2   HT     0.417000        1.0080           0
   71564 WT7  213  TIP3 OH2  OT    -0.834000       15.9994           0
   71565 WT7  213  TIP3 H1   HT     0.417000        1.0080           0
   71566 WT7  213  TIP3 H2   HT     0.417000        1.0080           0
   71567 WT7  225  TIP3 OH2  OT    -0.834000       15.9994           0
   71568 WT7  225  TIP3 H1   HT     0.417000        1.0080           0
   71569 WT7  225  TIP3 H2   HT     0.417000        1.0080           0
   71570 WT7  227  TIP3 OH2  OT    -0.834000       15.9994           0
   71571 WT7  227  TIP3 H1   HT     0.417000        1.0080           0
   71572 WT7  227  TIP3 H2   HT     0.417000        1.0080           0
   71573 WT7  234  TIP3 OH2  OT    -0.834000       15.9994           0
   71574 WT7  234  TIP3 H1   HT     0.417000        1.0080           0
   71575 WT7  234  TIP3 H2   HT     0.417000        1.0080           0
   71576 WT7  237  TIP3 OH2  OT    -0.834000       15.9994           0
   71577 WT7  237  TIP3 H1   HT     0.417000        1.0080           0
   71578 WT7  237  TIP3 H2   HT     0.417000        1.0080           0
   71579 WT7  248  TIP3 OH2  OT    -0.834000       15.9994           0
   71580 WT7  248  TIP3 H1   HT     0.417000        1.0080           0
   71581 WT7  248  TIP3 H2   HT     0.417000        1.0080           0
   71582 WT7  250  TIP3 OH2  OT    -0.834000       15.9994           0
   71583 WT7  250  TIP3 H1   HT     0.417000        1.0080           0
   71584 WT7  250  TIP3 H2   HT     0.417000        1.0080           0
   71585 WT7  251  TIP3 OH2  OT    -0.834000       15.9994           0
   71586 WT7  251  TIP3 H1   HT     0.417000        1.0080           0
   71587 WT7  251  TIP3 H2   HT     0.417000        1.0080           0
   71588 WT7  261  TIP3 OH2  OT    -0.834000       15.9994           0
   71589 WT7  261  TIP3 H1   HT     0.417000        1.0080           0
   71590 WT7  261  TIP3 H2   HT     0.417000        1.0080           0
   71591 WT7  267  TIP3 OH2  OT    -0.834000       15.9994           0
   71592 WT7  267  TIP3 H1   HT     0.417000        1.0080           0
   71593 WT7  267  TIP3 H2   HT     0.417000        1.0080           0
   71594 WT7  268  TIP3 OH2  OT    -0.834000       15.9994           0
   71595 WT7  268  TIP3 H1   HT     0.417000        1.0080           0
   71596 WT7  268  TIP3 H2   HT     0.417000        1.0080           0
   71597 WT7  285  TIP3 OH2  OT    -0.834000       15.9994           0
   71598 WT7  285  TIP3 H1   HT     0.417000        1.0080           0
   71599 WT7  285  TIP3 H2   HT     0.417000        1.0080           0
   71600 WT7  292  TIP3 OH2  OT    -0.834000       15.9994           0
   71601 WT7  292  TIP3 H1   HT     0.417000        1.0080           0
   71602 WT7  292  TIP3 H2   HT     0.417000        1.0080           0
   71603 WT7  303  TIP3 OH2  OT    -0.834000       15.9994           0
   71604 WT7  303  TIP3 H1   HT     0.417000        1.0080           0
   71605 WT7  303  TIP3 H2   HT     0.417000        1.0080           0
   71606 WT7  306  TIP3 OH2  OT    -0.834000       15.9994           0
   71607 WT7  306  TIP3 H1   HT     0.417000        1.0080           0
   71608 WT7  306  TIP3 H2   HT     0.417000        1.0080           0
   71609 WT7  307  TIP3 OH2  OT    -0.834000       15.9994           0
   71610 WT7  307  TIP3 H1   HT     0.417000        1.0080           0
   71611 WT7  307  TIP3 H2   HT     0.417000        1.0080           0
   71612 WT7  309  TIP3 OH2  OT    -0.834000       15.9994           0
   71613 WT7  309  TIP3 H1   HT     0.417000        1.0080           0
   71614 WT7  309  TIP3 H2   HT     0.417000        1.0080           0
   71615 WT7  311  TIP3 OH2  OT    -0.834000       15.9994           0
   71616 WT7  311  TIP3 H1   HT     0.417000        1.0080           0
   71617 WT7  311  TIP3 H2   HT     0.417000        1.0080           0
   71618 WT7  313  TIP3 OH2  OT    -0.834000       15.9994           0
   71619 WT7  313  TIP3 H1   HT     0.417000        1.0080           0
   71620 WT7  313  TIP3 H2   HT     0.417000        1.0080           0
   71621 WT7  314  TIP3 OH2  OT    -0.834000       15.9994           0
   71622 WT7  314  TIP3 H1   HT     0.417000        1.0080           0
   71623 WT7  314  TIP3 H2   HT     0.417000        1.0080           0
   71624 WT7  323  TIP3 OH2  OT    -0.834000       15.9994           0
   71625 WT7  323  TIP3 H1   HT     0.417000        1.0080           0
   71626 WT7  323  TIP3 H2   HT     0.417000        1.0080           0
   71627 WT7  325  TIP3 OH2  OT    -0.834000       15.9994           0
   71628 WT7  325  TIP3 H1   HT     0.417000        1.0080           0
   71629 WT7  325  TIP3 H2   HT     0.417000        1.0080           0
   71630 WT7  326  TIP3 OH2  OT    -0.834000       15.9994           0
   71631 WT7  326  TIP3 H1   HT     0.417000        1.0080           0
   71632 WT7  326  TIP3 H2   HT     0.417000        1.0080           0
   71633 WT7  327  TIP3 OH2  OT    -0.834000       15.9994           0
   71634 WT7  327  TIP3 H1   HT     0.417000        1.0080           0
   71635 WT7  327  TIP3 H2   HT     0.417000        1.0080           0
   71636 WT7  328  TIP3 OH2  OT    -0.834000       15.9994           0
   71637 WT7  328  TIP3 H1   HT     0.417000        1.0080           0
   71638 WT7  328  TIP3 H2   HT     0.417000        1.0080           0
   71639 WT7  329  TIP3 OH2  OT    -0.834000       15.9994           0
   71640 WT7  329  TIP3 H1   HT     0.417000        1.0080           0
   71641 WT7  329  TIP3 H2   HT     0.417000        1.0080           0
   71642 WT7  336  TIP3 OH2  OT    -0.834000       15.9994           0
   71643 WT7  336  TIP3 H1   HT     0.417000        1.0080           0
   71644 WT7  336  TIP3 H2   HT     0.417000        1.0080           0
   71645 WT7  338  TIP3 OH2  OT    -0.834000       15.9994           0
   71646 WT7  338  TIP3 H1   HT     0.417000        1.0080           0
   71647 WT7  338  TIP3 H2   HT     0.417000        1.0080           0
   71648 WT7  344  TIP3 OH2  OT    -0.834000       15.9994           0
   71649 WT7  344  TIP3 H1   HT     0.417000        1.0080           0
   71650 WT7  344  TIP3 H2   HT     0.417000        1.0080           0
   71651 WT7  349  TIP3 OH2  OT    -0.834000       15.9994           0
   71652 WT7  349  TIP3 H1   HT     0.417000        1.0080           0
   71653 WT7  349  TIP3 H2   HT     0.417000        1.0080           0
   71654 WT7  352  TIP3 OH2  OT    -0.834000       15.9994           0
   71655 WT7  352  TIP3 H1   HT     0.417000        1.0080           0
   71656 WT7  352  TIP3 H2   HT     0.417000        1.0080           0
   71657 WT7  359  TIP3 OH2  OT    -0.834000       15.9994           0
   71658 WT7  359  TIP3 H1   HT     0.417000        1.0080           0
   71659 WT7  359  TIP3 H2   HT     0.417000        1.0080           0
   71660 WT7  368  TIP3 OH2  OT    -0.834000       15.9994           0
   71661 WT7  368  TIP3 H1   HT     0.417000        1.0080           0
   71662 WT7  368  TIP3 H2   HT     0.417000        1.0080           0
   71663 WT7  369  TIP3 OH2  OT    -0.834000       15.9994           0
   71664 WT7  369  TIP3 H1   HT     0.417000        1.0080           0
   71665 WT7  369  TIP3 H2   HT     0.417000        1.0080           0
   71666 WT7  371  TIP3 OH2  OT    -0.834000       15.9994           0
   71667 WT7  371  TIP3 H1   HT     0.417000        1.0080           0
   71668 WT7  371  TIP3 H2   HT     0.417000        1.0080           0
   71669 WT7  372  TIP3 OH2  OT    -0.834000       15.9994           0
   71670 WT7  372  TIP3 H1   HT     0.417000        1.0080           0
   71671 WT7  372  TIP3 H2   HT     0.417000        1.0080           0
   71672 WT7  379  TIP3 OH2  OT    -0.834000       15.9994           0
   71673 WT7  379  TIP3 H1   HT     0.417000        1.0080           0
   71674 WT7  379  TIP3 H2   HT     0.417000        1.0080           0
   71675 WT7  384  TIP3 OH2  OT    -0.834000       15.9994           0
   71676 WT7  384  TIP3 H1   HT     0.417000        1.0080           0
   71677 WT7  384  TIP3 H2   HT     0.417000        1.0080           0
   71678 WT7  389  TIP3 OH2  OT    -0.834000       15.9994           0
   71679 WT7  389  TIP3 H1   HT     0.417000        1.0080           0
   71680 WT7  389  TIP3 H2   HT     0.417000        1.0080           0
   71681 WT7  390  TIP3 OH2  OT    -0.834000       15.9994           0
   71682 WT7  390  TIP3 H1   HT     0.417000        1.0080           0
   71683 WT7  390  TIP3 H2   HT     0.417000        1.0080           0
   71684 WT7  391  TIP3 OH2  OT    -0.834000       15.9994           0
   71685 WT7  391  TIP3 H1   HT     0.417000        1.0080           0
   71686 WT7  391  TIP3 H2   HT     0.417000        1.0080           0
   71687 WT7  399  TIP3 OH2  OT    -0.834000       15.9994           0
   71688 WT7  399  TIP3 H1   HT     0.417000        1.0080           0
   71689 WT7  399  TIP3 H2   HT     0.417000        1.0080           0
   71690 WT7  401  TIP3 OH2  OT    -0.834000       15.9994           0
   71691 WT7  401  TIP3 H1   HT     0.417000        1.0080           0
   71692 WT7  401  TIP3 H2   HT     0.417000        1.0080           0
   71693 WT7  409  TIP3 OH2  OT    -0.834000       15.9994           0
   71694 WT7  409  TIP3 H1   HT     0.417000        1.0080           0
   71695 WT7  409  TIP3 H2   HT     0.417000        1.0080           0
   71696 WT7  417  TIP3 OH2  OT    -0.834000       15.9994           0
   71697 WT7  417  TIP3 H1   HT     0.417000        1.0080           0
   71698 WT7  417  TIP3 H2   HT     0.417000        1.0080           0
   71699 WT7  418  TIP3 OH2  OT    -0.834000       15.9994           0
   71700 WT7  418  TIP3 H1   HT     0.417000        1.0080           0
   71701 WT7  418  TIP3 H2   HT     0.417000        1.0080           0
   71702 WT7  419  TIP3 OH2  OT    -0.834000       15.9994           0
   71703 WT7  419  TIP3 H1   HT     0.417000        1.0080           0
   71704 WT7  419  TIP3 H2   HT     0.417000        1.0080           0
   71705 WT7  422  TIP3 OH2  OT    -0.834000       15.9994           0
   71706 WT7  422  TIP3 H1   HT     0.417000        1.0080           0
   71707 WT7  422  TIP3 H2   HT     0.417000        1.0080           0
   71708 WT7  425  TIP3 OH2  OT    -0.834000       15.9994           0
   71709 WT7  425  TIP3 H1   HT     0.417000        1.0080           0
   71710 WT7  425  TIP3 H2   HT     0.417000        1.0080           0
   71711 WT7  427  TIP3 OH2  OT    -0.834000       15.9994           0
   71712 WT7  427  TIP3 H1   HT     0.417000        1.0080           0
   71713 WT7  427  TIP3 H2   HT     0.417000        1.0080           0
   71714 WT7  431  TIP3 OH2  OT    -0.834000       15.9994           0
   71715 WT7  431  TIP3 H1   HT     0.417000        1.0080           0
   71716 WT7  431  TIP3 H2   HT     0.417000        1.0080           0
   71717 WT7  433  TIP3 OH2  OT    -0.834000       15.9994           0
   71718 WT7  433  TIP3 H1   HT     0.417000        1.0080           0
   71719 WT7  433  TIP3 H2   HT     0.417000        1.0080           0
   71720 WT7  446  TIP3 OH2  OT    -0.834000       15.9994           0
   71721 WT7  446  TIP3 H1   HT     0.417000        1.0080           0
   71722 WT7  446  TIP3 H2   HT     0.417000        1.0080           0
   71723 WT7  460  TIP3 OH2  OT    -0.834000       15.9994           0
   71724 WT7  460  TIP3 H1   HT     0.417000        1.0080           0
   71725 WT7  460  TIP3 H2   HT     0.417000        1.0080           0
   71726 WT7  462  TIP3 OH2  OT    -0.834000       15.9994           0
   71727 WT7  462  TIP3 H1   HT     0.417000        1.0080           0
   71728 WT7  462  TIP3 H2   HT     0.417000        1.0080           0
   71729 WT7  463  TIP3 OH2  OT    -0.834000       15.9994           0
   71730 WT7  463  TIP3 H1   HT     0.417000        1.0080           0
   71731 WT7  463  TIP3 H2   HT     0.417000        1.0080           0
   71732 WT7  470  TIP3 OH2  OT    -0.834000       15.9994           0
   71733 WT7  470  TIP3 H1   HT     0.417000        1.0080           0
   71734 WT7  470  TIP3 H2   HT     0.417000        1.0080           0
   71735 WT7  472  TIP3 OH2  OT    -0.834000       15.9994           0
   71736 WT7  472  TIP3 H1   HT     0.417000        1.0080           0
   71737 WT7  472  TIP3 H2   HT     0.417000        1.0080           0
   71738 WT7  476  TIP3 OH2  OT    -0.834000       15.9994           0
   71739 WT7  476  TIP3 H1   HT     0.417000        1.0080           0
   71740 WT7  476  TIP3 H2   HT     0.417000        1.0080           0
   71741 WT7  480  TIP3 OH2  OT    -0.834000       15.9994           0
   71742 WT7  480  TIP3 H1   HT     0.417000        1.0080           0
   71743 WT7  480  TIP3 H2   HT     0.417000        1.0080           0
   71744 WT7  481  TIP3 OH2  OT    -0.834000       15.9994           0
   71745 WT7  481  TIP3 H1   HT     0.417000        1.0080           0
   71746 WT7  481  TIP3 H2   HT     0.417000        1.0080           0
   71747 WT7  485  TIP3 OH2  OT    -0.834000       15.9994           0
   71748 WT7  485  TIP3 H1   HT     0.417000        1.0080           0
   71749 WT7  485  TIP3 H2   HT     0.417000        1.0080           0
   71750 WT7  489  TIP3 OH2  OT    -0.834000       15.9994           0
   71751 WT7  489  TIP3 H1   HT     0.417000        1.0080           0
   71752 WT7  489  TIP3 H2   HT     0.417000        1.0080           0
   71753 WT7  490  TIP3 OH2  OT    -0.834000       15.9994           0
   71754 WT7  490  TIP3 H1   HT     0.417000        1.0080           0
   71755 WT7  490  TIP3 H2   HT     0.417000        1.0080           0
   71756 WT7  491  TIP3 OH2  OT    -0.834000       15.9994           0
   71757 WT7  491  TIP3 H1   HT     0.417000        1.0080           0
   71758 WT7  491  TIP3 H2   HT     0.417000        1.0080           0
   71759 WT7  494  TIP3 OH2  OT    -0.834000       15.9994           0
   71760 WT7  494  TIP3 H1   HT     0.417000        1.0080           0
   71761 WT7  494  TIP3 H2   HT     0.417000        1.0080           0
   71762 WT7  496  TIP3 OH2  OT    -0.834000       15.9994           0
   71763 WT7  496  TIP3 H1   HT     0.417000        1.0080           0
   71764 WT7  496  TIP3 H2   HT     0.417000        1.0080           0
   71765 WT7  501  TIP3 OH2  OT    -0.834000       15.9994           0
   71766 WT7  501  TIP3 H1   HT     0.417000        1.0080           0
   71767 WT7  501  TIP3 H2   HT     0.417000        1.0080           0
   71768 WT7  502  TIP3 OH2  OT    -0.834000       15.9994           0
   71769 WT7  502  TIP3 H1   HT     0.417000        1.0080           0
   71770 WT7  502  TIP3 H2   HT     0.417000        1.0080           0
   71771 WT7  506  TIP3 OH2  OT    -0.834000       15.9994           0
   71772 WT7  506  TIP3 H1   HT     0.417000        1.0080           0
   71773 WT7  506  TIP3 H2   HT     0.417000        1.0080           0
   71774 WT7  509  TIP3 OH2  OT    -0.834000       15.9994           0
   71775 WT7  509  TIP3 H1   HT     0.417000        1.0080           0
   71776 WT7  509  TIP3 H2   HT     0.417000        1.0080           0
   71777 WT7  511  TIP3 OH2  OT    -0.834000       15.9994           0
   71778 WT7  511  TIP3 H1   HT     0.417000        1.0080           0
   71779 WT7  511  TIP3 H2   HT     0.417000        1.0080           0
   71780 WT7  515  TIP3 OH2  OT    -0.834000       15.9994           0
   71781 WT7  515  TIP3 H1   HT     0.417000        1.0080           0
   71782 WT7  515  TIP3 H2   HT     0.417000        1.0080           0
   71783 WT7  516  TIP3 OH2  OT    -0.834000       15.9994           0
   71784 WT7  516  TIP3 H1   HT     0.417000        1.0080           0
   71785 WT7  516  TIP3 H2   HT     0.417000        1.0080           0
   71786 WT7  520  TIP3 OH2  OT    -0.834000       15.9994           0
   71787 WT7  520  TIP3 H1   HT     0.417000        1.0080           0
   71788 WT7  520  TIP3 H2   HT     0.417000        1.0080           0
   71789 WT7  521  TIP3 OH2  OT    -0.834000       15.9994           0
   71790 WT7  521  TIP3 H1   HT     0.417000        1.0080           0
   71791 WT7  521  TIP3 H2   HT     0.417000        1.0080           0
   71792 WT7  526  TIP3 OH2  OT    -0.834000       15.9994           0
   71793 WT7  526  TIP3 H1   HT     0.417000        1.0080           0
   71794 WT7  526  TIP3 H2   HT     0.417000        1.0080           0
   71795 WT7  533  TIP3 OH2  OT    -0.834000       15.9994           0
   71796 WT7  533  TIP3 H1   HT     0.417000        1.0080           0
   71797 WT7  533  TIP3 H2   HT     0.417000        1.0080           0
   71798 WT7  540  TIP3 OH2  OT    -0.834000       15.9994           0
   71799 WT7  540  TIP3 H1   HT     0.417000        1.0080           0
   71800 WT7  540  TIP3 H2   HT     0.417000        1.0080           0
   71801 WT7  543  TIP3 OH2  OT    -0.834000       15.9994           0
   71802 WT7  543  TIP3 H1   HT     0.417000        1.0080           0
   71803 WT7  543  TIP3 H2   HT     0.417000        1.0080           0
   71804 WT7  545  TIP3 OH2  OT    -0.834000       15.9994           0
   71805 WT7  545  TIP3 H1   HT     0.417000        1.0080           0
   71806 WT7  545  TIP3 H2   HT     0.417000        1.0080           0
   71807 WT7  548  TIP3 OH2  OT    -0.834000       15.9994           0
   71808 WT7  548  TIP3 H1   HT     0.417000        1.0080           0
   71809 WT7  548  TIP3 H2   HT     0.417000        1.0080           0
   71810 WT7  550  TIP3 OH2  OT    -0.834000       15.9994           0
   71811 WT7  550  TIP3 H1   HT     0.417000        1.0080           0
   71812 WT7  550  TIP3 H2   HT     0.417000        1.0080           0
   71813 WT7  551  TIP3 OH2  OT    -0.834000       15.9994           0
   71814 WT7  551  TIP3 H1   HT     0.417000        1.0080           0
   71815 WT7  551  TIP3 H2   HT     0.417000        1.0080           0
   71816 WT7  553  TIP3 OH2  OT    -0.834000       15.9994           0
   71817 WT7  553  TIP3 H1   HT     0.417000        1.0080           0
   71818 WT7  553  TIP3 H2   HT     0.417000        1.0080           0
   71819 WT7  554  TIP3 OH2  OT    -0.834000       15.9994           0
   71820 WT7  554  TIP3 H1   HT     0.417000        1.0080           0
   71821 WT7  554  TIP3 H2   HT     0.417000        1.0080           0
   71822 WT7  555  TIP3 OH2  OT    -0.834000       15.9994           0
   71823 WT7  555  TIP3 H1   HT     0.417000        1.0080           0
   71824 WT7  555  TIP3 H2   HT     0.417000        1.0080           0
   71825 WT7  556  TIP3 OH2  OT    -0.834000       15.9994           0
   71826 WT7  556  TIP3 H1   HT     0.417000        1.0080           0
   71827 WT7  556  TIP3 H2   HT     0.417000        1.0080           0
   71828 WT7  570  TIP3 OH2  OT    -0.834000       15.9994           0
   71829 WT7  570  TIP3 H1   HT     0.417000        1.0080           0
   71830 WT7  570  TIP3 H2   HT     0.417000        1.0080           0
   71831 WT7  573  TIP3 OH2  OT    -0.834000       15.9994           0
   71832 WT7  573  TIP3 H1   HT     0.417000        1.0080           0
   71833 WT7  573  TIP3 H2   HT     0.417000        1.0080           0
   71834 WT7  575  TIP3 OH2  OT    -0.834000       15.9994           0
   71835 WT7  575  TIP3 H1   HT     0.417000        1.0080           0
   71836 WT7  575  TIP3 H2   HT     0.417000        1.0080           0
   71837 WT7  576  TIP3 OH2  OT    -0.834000       15.9994           0
   71838 WT7  576  TIP3 H1   HT     0.417000        1.0080           0
   71839 WT7  576  TIP3 H2   HT     0.417000        1.0080           0
   71840 WT7  578  TIP3 OH2  OT    -0.834000       15.9994           0
   71841 WT7  578  TIP3 H1   HT     0.417000        1.0080           0
   71842 WT7  578  TIP3 H2   HT     0.417000        1.0080           0
   71843 WT7  581  TIP3 OH2  OT    -0.834000       15.9994           0
   71844 WT7  581  TIP3 H1   HT     0.417000        1.0080           0
   71845 WT7  581  TIP3 H2   HT     0.417000        1.0080           0
   71846 WT7  584  TIP3 OH2  OT    -0.834000       15.9994           0
   71847 WT7  584  TIP3 H1   HT     0.417000        1.0080           0
   71848 WT7  584  TIP3 H2   HT     0.417000        1.0080           0
   71849 WT7  591  TIP3 OH2  OT    -0.834000       15.9994           0
   71850 WT7  591  TIP3 H1   HT     0.417000        1.0080           0
   71851 WT7  591  TIP3 H2   HT     0.417000        1.0080           0
   71852 WT7  593  TIP3 OH2  OT    -0.834000       15.9994           0
   71853 WT7  593  TIP3 H1   HT     0.417000        1.0080           0
   71854 WT7  593  TIP3 H2   HT     0.417000        1.0080           0
   71855 WT7  594  TIP3 OH2  OT    -0.834000       15.9994           0
   71856 WT7  594  TIP3 H1   HT     0.417000        1.0080           0
   71857 WT7  594  TIP3 H2   HT     0.417000        1.0080           0
   71858 WT7  599  TIP3 OH2  OT    -0.834000       15.9994           0
   71859 WT7  599  TIP3 H1   HT     0.417000        1.0080           0
   71860 WT7  599  TIP3 H2   HT     0.417000        1.0080           0
   71861 WT7  600  TIP3 OH2  OT    -0.834000       15.9994           0
   71862 WT7  600  TIP3 H1   HT     0.417000        1.0080           0
   71863 WT7  600  TIP3 H2   HT     0.417000        1.0080           0
   71864 WT7  602  TIP3 OH2  OT    -0.834000       15.9994           0
   71865 WT7  602  TIP3 H1   HT     0.417000        1.0080           0
   71866 WT7  602  TIP3 H2   HT     0.417000        1.0080           0
   71867 WT7  606  TIP3 OH2  OT    -0.834000       15.9994           0
   71868 WT7  606  TIP3 H1   HT     0.417000        1.0080           0
   71869 WT7  606  TIP3 H2   HT     0.417000        1.0080           0
   71870 WT7  610  TIP3 OH2  OT    -0.834000       15.9994           0
   71871 WT7  610  TIP3 H1   HT     0.417000        1.0080           0
   71872 WT7  610  TIP3 H2   HT     0.417000        1.0080           0
   71873 WT7  616  TIP3 OH2  OT    -0.834000       15.9994           0
   71874 WT7  616  TIP3 H1   HT     0.417000        1.0080           0
   71875 WT7  616  TIP3 H2   HT     0.417000        1.0080           0
   71876 WT7  619  TIP3 OH2  OT    -0.834000       15.9994           0
   71877 WT7  619  TIP3 H1   HT     0.417000        1.0080           0
   71878 WT7  619  TIP3 H2   HT     0.417000        1.0080           0
   71879 WT7  626  TIP3 OH2  OT    -0.834000       15.9994           0
   71880 WT7  626  TIP3 H1   HT     0.417000        1.0080           0
   71881 WT7  626  TIP3 H2   HT     0.417000        1.0080           0
   71882 WT7  629  TIP3 OH2  OT    -0.834000       15.9994           0
   71883 WT7  629  TIP3 H1   HT     0.417000        1.0080           0
   71884 WT7  629  TIP3 H2   HT     0.417000        1.0080           0
   71885 WT7  638  TIP3 OH2  OT    -0.834000       15.9994           0
   71886 WT7  638  TIP3 H1   HT     0.417000        1.0080           0
   71887 WT7  638  TIP3 H2   HT     0.417000        1.0080           0
   71888 WT7  639  TIP3 OH2  OT    -0.834000       15.9994           0
   71889 WT7  639  TIP3 H1   HT     0.417000        1.0080           0
   71890 WT7  639  TIP3 H2   HT     0.417000        1.0080           0
   71891 WT7  642  TIP3 OH2  OT    -0.834000       15.9994           0
   71892 WT7  642  TIP3 H1   HT     0.417000        1.0080           0
   71893 WT7  642  TIP3 H2   HT     0.417000        1.0080           0
   71894 WT7  649  TIP3 OH2  OT    -0.834000       15.9994           0
   71895 WT7  649  TIP3 H1   HT     0.417000        1.0080           0
   71896 WT7  649  TIP3 H2   HT     0.417000        1.0080           0
   71897 WT7  650  TIP3 OH2  OT    -0.834000       15.9994           0
   71898 WT7  650  TIP3 H1   HT     0.417000        1.0080           0
   71899 WT7  650  TIP3 H2   HT     0.417000        1.0080           0
   71900 WT7  653  TIP3 OH2  OT    -0.834000       15.9994           0
   71901 WT7  653  TIP3 H1   HT     0.417000        1.0080           0
   71902 WT7  653  TIP3 H2   HT     0.417000        1.0080           0
   71903 WT7  662  TIP3 OH2  OT    -0.834000       15.9994           0
   71904 WT7  662  TIP3 H1   HT     0.417000        1.0080           0
   71905 WT7  662  TIP3 H2   HT     0.417000        1.0080           0
   71906 WT7  666  TIP3 OH2  OT    -0.834000       15.9994           0
   71907 WT7  666  TIP3 H1   HT     0.417000        1.0080           0
   71908 WT7  666  TIP3 H2   HT     0.417000        1.0080           0
   71909 WT7  668  TIP3 OH2  OT    -0.834000       15.9994           0
   71910 WT7  668  TIP3 H1   HT     0.417000        1.0080           0
   71911 WT7  668  TIP3 H2   HT     0.417000        1.0080           0
   71912 WT7  671  TIP3 OH2  OT    -0.834000       15.9994           0
   71913 WT7  671  TIP3 H1   HT     0.417000        1.0080           0
   71914 WT7  671  TIP3 H2   HT     0.417000        1.0080           0
   71915 WT7  673  TIP3 OH2  OT    -0.834000       15.9994           0
   71916 WT7  673  TIP3 H1   HT     0.417000        1.0080           0
   71917 WT7  673  TIP3 H2   HT     0.417000        1.0080           0
   71918 WT7  674  TIP3 OH2  OT    -0.834000       15.9994           0
   71919 WT7  674  TIP3 H1   HT     0.417000        1.0080           0
   71920 WT7  674  TIP3 H2   HT     0.417000        1.0080           0
   71921 WT7  677  TIP3 OH2  OT    -0.834000       15.9994           0
   71922 WT7  677  TIP3 H1   HT     0.417000        1.0080           0
   71923 WT7  677  TIP3 H2   HT     0.417000        1.0080           0
   71924 WT7  684  TIP3 OH2  OT    -0.834000       15.9994           0
   71925 WT7  684  TIP3 H1   HT     0.417000        1.0080           0
   71926 WT7  684  TIP3 H2   HT     0.417000        1.0080           0
   71927 WT7  704  TIP3 OH2  OT    -0.834000       15.9994           0
   71928 WT7  704  TIP3 H1   HT     0.417000        1.0080           0
   71929 WT7  704  TIP3 H2   HT     0.417000        1.0080           0
   71930 WT7  707  TIP3 OH2  OT    -0.834000       15.9994           0
   71931 WT7  707  TIP3 H1   HT     0.417000        1.0080           0
   71932 WT7  707  TIP3 H2   HT     0.417000        1.0080           0
   71933 WT7  711  TIP3 OH2  OT    -0.834000       15.9994           0
   71934 WT7  711  TIP3 H1   HT     0.417000        1.0080           0
   71935 WT7  711  TIP3 H2   HT     0.417000        1.0080           0
   71936 WT7  717  TIP3 OH2  OT    -0.834000       15.9994           0
   71937 WT7  717  TIP3 H1   HT     0.417000        1.0080           0
   71938 WT7  717  TIP3 H2   HT     0.417000        1.0080           0
   71939 WT7  721  TIP3 OH2  OT    -0.834000       15.9994           0
   71940 WT7  721  TIP3 H1   HT     0.417000        1.0080           0
   71941 WT7  721  TIP3 H2   HT     0.417000        1.0080           0
   71942 WT7  722  TIP3 OH2  OT    -0.834000       15.9994           0
   71943 WT7  722  TIP3 H1   HT     0.417000        1.0080           0
   71944 WT7  722  TIP3 H2   HT     0.417000        1.0080           0
   71945 WT7  726  TIP3 OH2  OT    -0.834000       15.9994           0
   71946 WT7  726  TIP3 H1   HT     0.417000        1.0080           0
   71947 WT7  726  TIP3 H2   HT     0.417000        1.0080           0
   71948 WT7  738  TIP3 OH2  OT    -0.834000       15.9994           0
   71949 WT7  738  TIP3 H1   HT     0.417000        1.0080           0
   71950 WT7  738  TIP3 H2   HT     0.417000        1.0080           0
   71951 WT7  746  TIP3 OH2  OT    -0.834000       15.9994           0
   71952 WT7  746  TIP3 H1   HT     0.417000        1.0080           0
   71953 WT7  746  TIP3 H2   HT     0.417000        1.0080           0
   71954 WT7  753  TIP3 OH2  OT    -0.834000       15.9994           0
   71955 WT7  753  TIP3 H1   HT     0.417000        1.0080           0
   71956 WT7  753  TIP3 H2   HT     0.417000        1.0080           0
   71957 WT7  754  TIP3 OH2  OT    -0.834000       15.9994           0
   71958 WT7  754  TIP3 H1   HT     0.417000        1.0080           0
   71959 WT7  754  TIP3 H2   HT     0.417000        1.0080           0
   71960 WT7  761  TIP3 OH2  OT    -0.834000       15.9994           0
   71961 WT7  761  TIP3 H1   HT     0.417000        1.0080           0
   71962 WT7  761  TIP3 H2   HT     0.417000        1.0080           0
   71963 WT7  768  TIP3 OH2  OT    -0.834000       15.9994           0
   71964 WT7  768  TIP3 H1   HT     0.417000        1.0080           0
   71965 WT7  768  TIP3 H2   HT     0.417000        1.0080           0
   71966 WT7  771  TIP3 OH2  OT    -0.834000       15.9994           0
   71967 WT7  771  TIP3 H1   HT     0.417000        1.0080           0
   71968 WT7  771  TIP3 H2   HT     0.417000        1.0080           0
   71969 WT7  773  TIP3 OH2  OT    -0.834000       15.9994           0
   71970 WT7  773  TIP3 H1   HT     0.417000        1.0080           0
   71971 WT7  773  TIP3 H2   HT     0.417000        1.0080           0
   71972 WT7  778  TIP3 OH2  OT    -0.834000       15.9994           0
   71973 WT7  778  TIP3 H1   HT     0.417000        1.0080           0
   71974 WT7  778  TIP3 H2   HT     0.417000        1.0080           0
   71975 WT7  779  TIP3 OH2  OT    -0.834000       15.9994           0
   71976 WT7  779  TIP3 H1   HT     0.417000        1.0080           0
   71977 WT7  779  TIP3 H2   HT     0.417000        1.0080           0
   71978 WT7  782  TIP3 OH2  OT    -0.834000       15.9994           0
   71979 WT7  782  TIP3 H1   HT     0.417000        1.0080           0
   71980 WT7  782  TIP3 H2   HT     0.417000        1.0080           0
   71981 WT7  792  TIP3 OH2  OT    -0.834000       15.9994           0
   71982 WT7  792  TIP3 H1   HT     0.417000        1.0080           0
   71983 WT7  792  TIP3 H2   HT     0.417000        1.0080           0
   71984 WT7  798  TIP3 OH2  OT    -0.834000       15.9994           0
   71985 WT7  798  TIP3 H1   HT     0.417000        1.0080           0
   71986 WT7  798  TIP3 H2   HT     0.417000        1.0080           0
   71987 WT7  807  TIP3 OH2  OT    -0.834000       15.9994           0
   71988 WT7  807  TIP3 H1   HT     0.417000        1.0080           0
   71989 WT7  807  TIP3 H2   HT     0.417000        1.0080           0
   71990 WT7  808  TIP3 OH2  OT    -0.834000       15.9994           0
   71991 WT7  808  TIP3 H1   HT     0.417000        1.0080           0
   71992 WT7  808  TIP3 H2   HT     0.417000        1.0080           0
   71993 WT7  812  TIP3 OH2  OT    -0.834000       15.9994           0
   71994 WT7  812  TIP3 H1   HT     0.417000        1.0080           0
   71995 WT7  812  TIP3 H2   HT     0.417000        1.0080           0
   71996 WT7  814  TIP3 OH2  OT    -0.834000       15.9994           0
   71997 WT7  814  TIP3 H1   HT     0.417000        1.0080           0
   71998 WT7  814  TIP3 H2   HT     0.417000        1.0080           0
   71999 WT7  818  TIP3 OH2  OT    -0.834000       15.9994           0
   72000 WT7  818  TIP3 H1   HT     0.417000        1.0080           0
   72001 WT7  818  TIP3 H2   HT     0.417000        1.0080           0
   72002 WT7  820  TIP3 OH2  OT    -0.834000       15.9994           0
   72003 WT7  820  TIP3 H1   HT     0.417000        1.0080           0
   72004 WT7  820  TIP3 H2   HT     0.417000        1.0080           0
   72005 WT7  821  TIP3 OH2  OT    -0.834000       15.9994           0
   72006 WT7  821  TIP3 H1   HT     0.417000        1.0080           0
   72007 WT7  821  TIP3 H2   HT     0.417000        1.0080           0
   72008 WT7  822  TIP3 OH2  OT    -0.834000       15.9994           0
   72009 WT7  822  TIP3 H1   HT     0.417000        1.0080           0
   72010 WT7  822  TIP3 H2   HT     0.417000        1.0080           0
   72011 WT7  824  TIP3 OH2  OT    -0.834000       15.9994           0
   72012 WT7  824  TIP3 H1   HT     0.417000        1.0080           0
   72013 WT7  824  TIP3 H2   HT     0.417000        1.0080           0
   72014 WT7  827  TIP3 OH2  OT    -0.834000       15.9994           0
   72015 WT7  827  TIP3 H1   HT     0.417000        1.0080           0
   72016 WT7  827  TIP3 H2   HT     0.417000        1.0080           0
   72017 WT7  829  TIP3 OH2  OT    -0.834000       15.9994           0
   72018 WT7  829  TIP3 H1   HT     0.417000        1.0080           0
   72019 WT7  829  TIP3 H2   HT     0.417000        1.0080           0
   72020 WT7  831  TIP3 OH2  OT    -0.834000       15.9994           0
   72021 WT7  831  TIP3 H1   HT     0.417000        1.0080           0
   72022 WT7  831  TIP3 H2   HT     0.417000        1.0080           0
   72023 WT7  834  TIP3 OH2  OT    -0.834000       15.9994           0
   72024 WT7  834  TIP3 H1   HT     0.417000        1.0080           0
   72025 WT7  834  TIP3 H2   HT     0.417000        1.0080           0
   72026 WT7  836  TIP3 OH2  OT    -0.834000       15.9994           0
   72027 WT7  836  TIP3 H1   HT     0.417000        1.0080           0
   72028 WT7  836  TIP3 H2   HT     0.417000        1.0080           0
   72029 WT7  839  TIP3 OH2  OT    -0.834000       15.9994           0
   72030 WT7  839  TIP3 H1   HT     0.417000        1.0080           0
   72031 WT7  839  TIP3 H2   HT     0.417000        1.0080           0
   72032 WT7  843  TIP3 OH2  OT    -0.834000       15.9994           0
   72033 WT7  843  TIP3 H1   HT     0.417000        1.0080           0
   72034 WT7  843  TIP3 H2   HT     0.417000        1.0080           0
   72035 WT7  846  TIP3 OH2  OT    -0.834000       15.9994           0
   72036 WT7  846  TIP3 H1   HT     0.417000        1.0080           0
   72037 WT7  846  TIP3 H2   HT     0.417000        1.0080           0
   72038 WT7  849  TIP3 OH2  OT    -0.834000       15.9994           0
   72039 WT7  849  TIP3 H1   HT     0.417000        1.0080           0
   72040 WT7  849  TIP3 H2   HT     0.417000        1.0080           0
   72041 WT7  852  TIP3 OH2  OT    -0.834000       15.9994           0
   72042 WT7  852  TIP3 H1   HT     0.417000        1.0080           0
   72043 WT7  852  TIP3 H2   HT     0.417000        1.0080           0
   72044 WT7  854  TIP3 OH2  OT    -0.834000       15.9994           0
   72045 WT7  854  TIP3 H1   HT     0.417000        1.0080           0
   72046 WT7  854  TIP3 H2   HT     0.417000        1.0080           0
   72047 WT7  859  TIP3 OH2  OT    -0.834000       15.9994           0
   72048 WT7  859  TIP3 H1   HT     0.417000        1.0080           0
   72049 WT7  859  TIP3 H2   HT     0.417000        1.0080           0
   72050 WT7  860  TIP3 OH2  OT    -0.834000       15.9994           0
   72051 WT7  860  TIP3 H1   HT     0.417000        1.0080           0
   72052 WT7  860  TIP3 H2   HT     0.417000        1.0080           0
   72053 WT7  880  TIP3 OH2  OT    -0.834000       15.9994           0
   72054 WT7  880  TIP3 H1   HT     0.417000        1.0080           0
   72055 WT7  880  TIP3 H2   HT     0.417000        1.0080           0
   72056 WT7  884  TIP3 OH2  OT    -0.834000       15.9994           0
   72057 WT7  884  TIP3 H1   HT     0.417000        1.0080           0
   72058 WT7  884  TIP3 H2   HT     0.417000        1.0080           0
   72059 WT7  892  TIP3 OH2  OT    -0.834000       15.9994           0
   72060 WT7  892  TIP3 H1   HT     0.417000        1.0080           0
   72061 WT7  892  TIP3 H2   HT     0.417000        1.0080           0
   72062 WT7  895  TIP3 OH2  OT    -0.834000       15.9994           0
   72063 WT7  895  TIP3 H1   HT     0.417000        1.0080           0
   72064 WT7  895  TIP3 H2   HT     0.417000        1.0080           0
   72065 WT7  898  TIP3 OH2  OT    -0.834000       15.9994           0
   72066 WT7  898  TIP3 H1   HT     0.417000        1.0080           0
   72067 WT7  898  TIP3 H2   HT     0.417000        1.0080           0
   72068 WT7  901  TIP3 OH2  OT    -0.834000       15.9994           0
   72069 WT7  901  TIP3 H1   HT     0.417000        1.0080           0
   72070 WT7  901  TIP3 H2   HT     0.417000        1.0080           0
   72071 WT7  908  TIP3 OH2  OT    -0.834000       15.9994           0
   72072 WT7  908  TIP3 H1   HT     0.417000        1.0080           0
   72073 WT7  908  TIP3 H2   HT     0.417000        1.0080           0
   72074 WT7  910  TIP3 OH2  OT    -0.834000       15.9994           0
   72075 WT7  910  TIP3 H1   HT     0.417000        1.0080           0
   72076 WT7  910  TIP3 H2   HT     0.417000        1.0080           0
   72077 WT7  919  TIP3 OH2  OT    -0.834000       15.9994           0
   72078 WT7  919  TIP3 H1   HT     0.417000        1.0080           0
   72079 WT7  919  TIP3 H2   HT     0.417000        1.0080           0
   72080 WT7  922  TIP3 OH2  OT    -0.834000       15.9994           0
   72081 WT7  922  TIP3 H1   HT     0.417000        1.0080           0
   72082 WT7  922  TIP3 H2   HT     0.417000        1.0080           0
   72083 WT7  928  TIP3 OH2  OT    -0.834000       15.9994           0
   72084 WT7  928  TIP3 H1   HT     0.417000        1.0080           0
   72085 WT7  928  TIP3 H2   HT     0.417000        1.0080           0
   72086 WT7  933  TIP3 OH2  OT    -0.834000       15.9994           0
   72087 WT7  933  TIP3 H1   HT     0.417000        1.0080           0
   72088 WT7  933  TIP3 H2   HT     0.417000        1.0080           0
   72089 WT7  934  TIP3 OH2  OT    -0.834000       15.9994           0
   72090 WT7  934  TIP3 H1   HT     0.417000        1.0080           0
   72091 WT7  934  TIP3 H2   HT     0.417000        1.0080           0
   72092 WT7  935  TIP3 OH2  OT    -0.834000       15.9994           0
   72093 WT7  935  TIP3 H1   HT     0.417000        1.0080           0
   72094 WT7  935  TIP3 H2   HT     0.417000        1.0080           0
   72095 WT7  936  TIP3 OH2  OT    -0.834000       15.9994           0
   72096 WT7  936  TIP3 H1   HT     0.417000        1.0080           0
   72097 WT7  936  TIP3 H2   HT     0.417000        1.0080           0
   72098 WT7  940  TIP3 OH2  OT    -0.834000       15.9994           0
   72099 WT7  940  TIP3 H1   HT     0.417000        1.0080           0
   72100 WT7  940  TIP3 H2   HT     0.417000        1.0080           0
   72101 WT7  944  TIP3 OH2  OT    -0.834000       15.9994           0
   72102 WT7  944  TIP3 H1   HT     0.417000        1.0080           0
   72103 WT7  944  TIP3 H2   HT     0.417000        1.0080           0
   72104 WT7  949  TIP3 OH2  OT    -0.834000       15.9994           0
   72105 WT7  949  TIP3 H1   HT     0.417000        1.0080           0
   72106 WT7  949  TIP3 H2   HT     0.417000        1.0080           0
   72107 WT7  954  TIP3 OH2  OT    -0.834000       15.9994           0
   72108 WT7  954  TIP3 H1   HT     0.417000        1.0080           0
   72109 WT7  954  TIP3 H2   HT     0.417000        1.0080           0
   72110 WT7  958  TIP3 OH2  OT    -0.834000       15.9994           0
   72111 WT7  958  TIP3 H1   HT     0.417000        1.0080           0
   72112 WT7  958  TIP3 H2   HT     0.417000        1.0080           0
   72113 WT7  959  TIP3 OH2  OT    -0.834000       15.9994           0
   72114 WT7  959  TIP3 H1   HT     0.417000        1.0080           0
   72115 WT7  959  TIP3 H2   HT     0.417000        1.0080           0
   72116 WT7  960  TIP3 OH2  OT    -0.834000       15.9994           0
   72117 WT7  960  TIP3 H1   HT     0.417000        1.0080           0
   72118 WT7  960  TIP3 H2   HT     0.417000        1.0080           0
   72119 WT7  966  TIP3 OH2  OT    -0.834000       15.9994           0
   72120 WT7  966  TIP3 H1   HT     0.417000        1.0080           0
   72121 WT7  966  TIP3 H2   HT     0.417000        1.0080           0
   72122 WT7  969  TIP3 OH2  OT    -0.834000       15.9994           0
   72123 WT7  969  TIP3 H1   HT     0.417000        1.0080           0
   72124 WT7  969  TIP3 H2   HT     0.417000        1.0080           0
   72125 WT7  981  TIP3 OH2  OT    -0.834000       15.9994           0
   72126 WT7  981  TIP3 H1   HT     0.417000        1.0080           0
   72127 WT7  981  TIP3 H2   HT     0.417000        1.0080           0
   72128 WT7  982  TIP3 OH2  OT    -0.834000       15.9994           0
   72129 WT7  982  TIP3 H1   HT     0.417000        1.0080           0
   72130 WT7  982  TIP3 H2   HT     0.417000        1.0080           0
   72131 WT7  983  TIP3 OH2  OT    -0.834000       15.9994           0
   72132 WT7  983  TIP3 H1   HT     0.417000        1.0080           0
   72133 WT7  983  TIP3 H2   HT     0.417000        1.0080           0
   72134 WT7  996  TIP3 OH2  OT    -0.834000       15.9994           0
   72135 WT7  996  TIP3 H1   HT     0.417000        1.0080           0
   72136 WT7  996  TIP3 H2   HT     0.417000        1.0080           0
   72137 WT7  999  TIP3 OH2  OT    -0.834000       15.9994           0
   72138 WT7  999  TIP3 H1   HT     0.417000        1.0080           0
   72139 WT7  999  TIP3 H2   HT     0.417000        1.0080           0
   72140 WT7  1011 TIP3 OH2  OT    -0.834000       15.9994           0
   72141 WT7  1011 TIP3 H1   HT     0.417000        1.0080           0
   72142 WT7  1011 TIP3 H2   HT     0.417000        1.0080           0
   72143 WT7  1013 TIP3 OH2  OT    -0.834000       15.9994           0
   72144 WT7  1013 TIP3 H1   HT     0.417000        1.0080           0
   72145 WT7  1013 TIP3 H2   HT     0.417000        1.0080           0
   72146 WT7  1018 TIP3 OH2  OT    -0.834000       15.9994           0
   72147 WT7  1018 TIP3 H1   HT     0.417000        1.0080           0
   72148 WT7  1018 TIP3 H2   HT     0.417000        1.0080           0
   72149 WT7  1019 TIP3 OH2  OT    -0.834000       15.9994           0
   72150 WT7  1019 TIP3 H1   HT     0.417000        1.0080           0
   72151 WT7  1019 TIP3 H2   HT     0.417000        1.0080           0
   72152 WT7  1024 TIP3 OH2  OT    -0.834000       15.9994           0
   72153 WT7  1024 TIP3 H1   HT     0.417000        1.0080           0
   72154 WT7  1024 TIP3 H2   HT     0.417000        1.0080           0
   72155 WT7  1025 TIP3 OH2  OT    -0.834000       15.9994           0
   72156 WT7  1025 TIP3 H1   HT     0.417000        1.0080           0
   72157 WT7  1025 TIP3 H2   HT     0.417000        1.0080           0
   72158 WT7  1043 TIP3 OH2  OT    -0.834000       15.9994           0
   72159 WT7  1043 TIP3 H1   HT     0.417000        1.0080           0
   72160 WT7  1043 TIP3 H2   HT     0.417000        1.0080           0
   72161 WT7  1048 TIP3 OH2  OT    -0.834000       15.9994           0
   72162 WT7  1048 TIP3 H1   HT     0.417000        1.0080           0
   72163 WT7  1048 TIP3 H2   HT     0.417000        1.0080           0
   72164 WT7  1066 TIP3 OH2  OT    -0.834000       15.9994           0
   72165 WT7  1066 TIP3 H1   HT     0.417000        1.0080           0
   72166 WT7  1066 TIP3 H2   HT     0.417000        1.0080           0
   72167 WT7  1071 TIP3 OH2  OT    -0.834000       15.9994           0
   72168 WT7  1071 TIP3 H1   HT     0.417000        1.0080           0
   72169 WT7  1071 TIP3 H2   HT     0.417000        1.0080           0
   72170 WT7  1077 TIP3 OH2  OT    -0.834000       15.9994           0
   72171 WT7  1077 TIP3 H1   HT     0.417000        1.0080           0
   72172 WT7  1077 TIP3 H2   HT     0.417000        1.0080           0
   72173 WT7  1080 TIP3 OH2  OT    -0.834000       15.9994           0
   72174 WT7  1080 TIP3 H1   HT     0.417000        1.0080           0
   72175 WT7  1080 TIP3 H2   HT     0.417000        1.0080           0
   72176 WT7  1098 TIP3 OH2  OT    -0.834000       15.9994           0
   72177 WT7  1098 TIP3 H1   HT     0.417000        1.0080           0
   72178 WT7  1098 TIP3 H2   HT     0.417000        1.0080           0
   72179 WT7  1104 TIP3 OH2  OT    -0.834000       15.9994           0
   72180 WT7  1104 TIP3 H1   HT     0.417000        1.0080           0
   72181 WT7  1104 TIP3 H2   HT     0.417000        1.0080           0
   72182 WT7  1111 TIP3 OH2  OT    -0.834000       15.9994           0
   72183 WT7  1111 TIP3 H1   HT     0.417000        1.0080           0
   72184 WT7  1111 TIP3 H2   HT     0.417000        1.0080           0
   72185 WT7  1125 TIP3 OH2  OT    -0.834000       15.9994           0
   72186 WT7  1125 TIP3 H1   HT     0.417000        1.0080           0
   72187 WT7  1125 TIP3 H2   HT     0.417000        1.0080           0
   72188 WT7  1138 TIP3 OH2  OT    -0.834000       15.9994           0
   72189 WT7  1138 TIP3 H1   HT     0.417000        1.0080           0
   72190 WT7  1138 TIP3 H2   HT     0.417000        1.0080           0
   72191 WT7  1153 TIP3 OH2  OT    -0.834000       15.9994           0
   72192 WT7  1153 TIP3 H1   HT     0.417000        1.0080           0
   72193 WT7  1153 TIP3 H2   HT     0.417000        1.0080           0
   72194 WT7  1154 TIP3 OH2  OT    -0.834000       15.9994           0
   72195 WT7  1154 TIP3 H1   HT     0.417000        1.0080           0
   72196 WT7  1154 TIP3 H2   HT     0.417000        1.0080           0
   72197 WT7  1163 TIP3 OH2  OT    -0.834000       15.9994           0
   72198 WT7  1163 TIP3 H1   HT     0.417000        1.0080           0
   72199 WT7  1163 TIP3 H2   HT     0.417000        1.0080           0
   72200 WT7  1168 TIP3 OH2  OT    -0.834000       15.9994           0
   72201 WT7  1168 TIP3 H1   HT     0.417000        1.0080           0
   72202 WT7  1168 TIP3 H2   HT     0.417000        1.0080           0
   72203 WT7  1173 TIP3 OH2  OT    -0.834000       15.9994           0
   72204 WT7  1173 TIP3 H1   HT     0.417000        1.0080           0
   72205 WT7  1173 TIP3 H2   HT     0.417000        1.0080           0
   72206 WT7  1182 TIP3 OH2  OT    -0.834000       15.9994           0
   72207 WT7  1182 TIP3 H1   HT     0.417000        1.0080           0
   72208 WT7  1182 TIP3 H2   HT     0.417000        1.0080           0
   72209 WT7  1186 TIP3 OH2  OT    -0.834000       15.9994           0
   72210 WT7  1186 TIP3 H1   HT     0.417000        1.0080           0
   72211 WT7  1186 TIP3 H2   HT     0.417000        1.0080           0
   72212 WT7  1192 TIP3 OH2  OT    -0.834000       15.9994           0
   72213 WT7  1192 TIP3 H1   HT     0.417000        1.0080           0
   72214 WT7  1192 TIP3 H2   HT     0.417000        1.0080           0
   72215 WT7  1194 TIP3 OH2  OT    -0.834000       15.9994           0
   72216 WT7  1194 TIP3 H1   HT     0.417000        1.0080           0
   72217 WT7  1194 TIP3 H2   HT     0.417000        1.0080           0
   72218 WT7  1195 TIP3 OH2  OT    -0.834000       15.9994           0
   72219 WT7  1195 TIP3 H1   HT     0.417000        1.0080           0
   72220 WT7  1195 TIP3 H2   HT     0.417000        1.0080           0
   72221 WT7  1201 TIP3 OH2  OT    -0.834000       15.9994           0
   72222 WT7  1201 TIP3 H1   HT     0.417000        1.0080           0
   72223 WT7  1201 TIP3 H2   HT     0.417000        1.0080           0
   72224 WT7  1204 TIP3 OH2  OT    -0.834000       15.9994           0
   72225 WT7  1204 TIP3 H1   HT     0.417000        1.0080           0
   72226 WT7  1204 TIP3 H2   HT     0.417000        1.0080           0
   72227 WT7  1207 TIP3 OH2  OT    -0.834000       15.9994           0
   72228 WT7  1207 TIP3 H1   HT     0.417000        1.0080           0
   72229 WT7  1207 TIP3 H2   HT     0.417000        1.0080           0
   72230 WT7  1213 TIP3 OH2  OT    -0.834000       15.9994           0
   72231 WT7  1213 TIP3 H1   HT     0.417000        1.0080           0
   72232 WT7  1213 TIP3 H2   HT     0.417000        1.0080           0
   72233 WT7  1216 TIP3 OH2  OT    -0.834000       15.9994           0
   72234 WT7  1216 TIP3 H1   HT     0.417000        1.0080           0
   72235 WT7  1216 TIP3 H2   HT     0.417000        1.0080           0
   72236 WT7  1217 TIP3 OH2  OT    -0.834000       15.9994           0
   72237 WT7  1217 TIP3 H1   HT     0.417000        1.0080           0
   72238 WT7  1217 TIP3 H2   HT     0.417000        1.0080           0
   72239 WT7  1235 TIP3 OH2  OT    -0.834000       15.9994           0
   72240 WT7  1235 TIP3 H1   HT     0.417000        1.0080           0
   72241 WT7  1235 TIP3 H2   HT     0.417000        1.0080           0
   72242 WT7  1240 TIP3 OH2  OT    -0.834000       15.9994           0
   72243 WT7  1240 TIP3 H1   HT     0.417000        1.0080           0
   72244 WT7  1240 TIP3 H2   HT     0.417000        1.0080           0
   72245 WT7  1248 TIP3 OH2  OT    -0.834000       15.9994           0
   72246 WT7  1248 TIP3 H1   HT     0.417000        1.0080           0
   72247 WT7  1248 TIP3 H2   HT     0.417000        1.0080           0
   72248 WT7  1249 TIP3 OH2  OT    -0.834000       15.9994           0
   72249 WT7  1249 TIP3 H1   HT     0.417000        1.0080           0
   72250 WT7  1249 TIP3 H2   HT     0.417000        1.0080           0
   72251 WT7  1252 TIP3 OH2  OT    -0.834000       15.9994           0
   72252 WT7  1252 TIP3 H1   HT     0.417000        1.0080           0
   72253 WT7  1252 TIP3 H2   HT     0.417000        1.0080           0
   72254 WT7  1253 TIP3 OH2  OT    -0.834000       15.9994           0
   72255 WT7  1253 TIP3 H1   HT     0.417000        1.0080           0
   72256 WT7  1253 TIP3 H2   HT     0.417000        1.0080           0
   72257 WT7  1258 TIP3 OH2  OT    -0.834000       15.9994           0
   72258 WT7  1258 TIP3 H1   HT     0.417000        1.0080           0
   72259 WT7  1258 TIP3 H2   HT     0.417000        1.0080           0
   72260 WT7  1264 TIP3 OH2  OT    -0.834000       15.9994           0
   72261 WT7  1264 TIP3 H1   HT     0.417000        1.0080           0
   72262 WT7  1264 TIP3 H2   HT     0.417000        1.0080           0
   72263 WT7  1269 TIP3 OH2  OT    -0.834000       15.9994           0
   72264 WT7  1269 TIP3 H1   HT     0.417000        1.0080           0
   72265 WT7  1269 TIP3 H2   HT     0.417000        1.0080           0
   72266 WT7  1275 TIP3 OH2  OT    -0.834000       15.9994           0
   72267 WT7  1275 TIP3 H1   HT     0.417000        1.0080           0
   72268 WT7  1275 TIP3 H2   HT     0.417000        1.0080           0
   72269 WT7  1277 TIP3 OH2  OT    -0.834000       15.9994           0
   72270 WT7  1277 TIP3 H1   HT     0.417000        1.0080           0
   72271 WT7  1277 TIP3 H2   HT     0.417000        1.0080           0
   72272 WT7  1278 TIP3 OH2  OT    -0.834000       15.9994           0
   72273 WT7  1278 TIP3 H1   HT     0.417000        1.0080           0
   72274 WT7  1278 TIP3 H2   HT     0.417000        1.0080           0
   72275 WT7  1281 TIP3 OH2  OT    -0.834000       15.9994           0
   72276 WT7  1281 TIP3 H1   HT     0.417000        1.0080           0
   72277 WT7  1281 TIP3 H2   HT     0.417000        1.0080           0
   72278 WT7  1285 TIP3 OH2  OT    -0.834000       15.9994           0
   72279 WT7  1285 TIP3 H1   HT     0.417000        1.0080           0
   72280 WT7  1285 TIP3 H2   HT     0.417000        1.0080           0
   72281 WT7  1295 TIP3 OH2  OT    -0.834000       15.9994           0
   72282 WT7  1295 TIP3 H1   HT     0.417000        1.0080           0
   72283 WT7  1295 TIP3 H2   HT     0.417000        1.0080           0
   72284 WT7  1298 TIP3 OH2  OT    -0.834000       15.9994           0
   72285 WT7  1298 TIP3 H1   HT     0.417000        1.0080           0
   72286 WT7  1298 TIP3 H2   HT     0.417000        1.0080           0
   72287 WT7  1301 TIP3 OH2  OT    -0.834000       15.9994           0
   72288 WT7  1301 TIP3 H1   HT     0.417000        1.0080           0
   72289 WT7  1301 TIP3 H2   HT     0.417000        1.0080           0
   72290 WT7  1312 TIP3 OH2  OT    -0.834000       15.9994           0
   72291 WT7  1312 TIP3 H1   HT     0.417000        1.0080           0
   72292 WT7  1312 TIP3 H2   HT     0.417000        1.0080           0
   72293 WT7  1315 TIP3 OH2  OT    -0.834000       15.9994           0
   72294 WT7  1315 TIP3 H1   HT     0.417000        1.0080           0
   72295 WT7  1315 TIP3 H2   HT     0.417000        1.0080           0
   72296 WT7  1318 TIP3 OH2  OT    -0.834000       15.9994           0
   72297 WT7  1318 TIP3 H1   HT     0.417000        1.0080           0
   72298 WT7  1318 TIP3 H2   HT     0.417000        1.0080           0
   72299 WT7  1328 TIP3 OH2  OT    -0.834000       15.9994           0
   72300 WT7  1328 TIP3 H1   HT     0.417000        1.0080           0
   72301 WT7  1328 TIP3 H2   HT     0.417000        1.0080           0
   72302 WT7  1336 TIP3 OH2  OT    -0.834000       15.9994           0
   72303 WT7  1336 TIP3 H1   HT     0.417000        1.0080           0
   72304 WT7  1336 TIP3 H2   HT     0.417000        1.0080           0
   72305 WT7  1345 TIP3 OH2  OT    -0.834000       15.9994           0
   72306 WT7  1345 TIP3 H1   HT     0.417000        1.0080           0
   72307 WT7  1345 TIP3 H2   HT     0.417000        1.0080           0
   72308 WT7  1354 TIP3 OH2  OT    -0.834000       15.9994           0
   72309 WT7  1354 TIP3 H1   HT     0.417000        1.0080           0
   72310 WT7  1354 TIP3 H2   HT     0.417000        1.0080           0
   72311 WT7  1356 TIP3 OH2  OT    -0.834000       15.9994           0
   72312 WT7  1356 TIP3 H1   HT     0.417000        1.0080           0
   72313 WT7  1356 TIP3 H2   HT     0.417000        1.0080           0
   72314 WT7  1358 TIP3 OH2  OT    -0.834000       15.9994           0
   72315 WT7  1358 TIP3 H1   HT     0.417000        1.0080           0
   72316 WT7  1358 TIP3 H2   HT     0.417000        1.0080           0
   72317 WT7  1366 TIP3 OH2  OT    -0.834000       15.9994           0
   72318 WT7  1366 TIP3 H1   HT     0.417000        1.0080           0
   72319 WT7  1366 TIP3 H2   HT     0.417000        1.0080           0
   72320 WT7  1370 TIP3 OH2  OT    -0.834000       15.9994           0
   72321 WT7  1370 TIP3 H1   HT     0.417000        1.0080           0
   72322 WT7  1370 TIP3 H2   HT     0.417000        1.0080           0
   72323 WT7  1372 TIP3 OH2  OT    -0.834000       15.9994           0
   72324 WT7  1372 TIP3 H1   HT     0.417000        1.0080           0
   72325 WT7  1372 TIP3 H2   HT     0.417000        1.0080           0
   72326 WT7  1373 TIP3 OH2  OT    -0.834000       15.9994           0
   72327 WT7  1373 TIP3 H1   HT     0.417000        1.0080           0
   72328 WT7  1373 TIP3 H2   HT     0.417000        1.0080           0
   72329 WT7  1374 TIP3 OH2  OT    -0.834000       15.9994           0
   72330 WT7  1374 TIP3 H1   HT     0.417000        1.0080           0
   72331 WT7  1374 TIP3 H2   HT     0.417000        1.0080           0
   72332 WT7  1381 TIP3 OH2  OT    -0.834000       15.9994           0
   72333 WT7  1381 TIP3 H1   HT     0.417000        1.0080           0
   72334 WT7  1381 TIP3 H2   HT     0.417000        1.0080           0
   72335 WT7  1382 TIP3 OH2  OT    -0.834000       15.9994           0
   72336 WT7  1382 TIP3 H1   HT     0.417000        1.0080           0
   72337 WT7  1382 TIP3 H2   HT     0.417000        1.0080           0
   72338 WT7  1383 TIP3 OH2  OT    -0.834000       15.9994           0
   72339 WT7  1383 TIP3 H1   HT     0.417000        1.0080           0
   72340 WT7  1383 TIP3 H2   HT     0.417000        1.0080           0
   72341 WT7  1387 TIP3 OH2  OT    -0.834000       15.9994           0
   72342 WT7  1387 TIP3 H1   HT     0.417000        1.0080           0
   72343 WT7  1387 TIP3 H2   HT     0.417000        1.0080           0
   72344 WT7  1395 TIP3 OH2  OT    -0.834000       15.9994           0
   72345 WT7  1395 TIP3 H1   HT     0.417000        1.0080           0
   72346 WT7  1395 TIP3 H2   HT     0.417000        1.0080           0
   72347 WT7  1399 TIP3 OH2  OT    -0.834000       15.9994           0
   72348 WT7  1399 TIP3 H1   HT     0.417000        1.0080           0
   72349 WT7  1399 TIP3 H2   HT     0.417000        1.0080           0
   72350 WT7  1401 TIP3 OH2  OT    -0.834000       15.9994           0
   72351 WT7  1401 TIP3 H1   HT     0.417000        1.0080           0
   72352 WT7  1401 TIP3 H2   HT     0.417000        1.0080           0
   72353 WT7  1409 TIP3 OH2  OT    -0.834000       15.9994           0
   72354 WT7  1409 TIP3 H1   HT     0.417000        1.0080           0
   72355 WT7  1409 TIP3 H2   HT     0.417000        1.0080           0
   72356 WT7  1414 TIP3 OH2  OT    -0.834000       15.9994           0
   72357 WT7  1414 TIP3 H1   HT     0.417000        1.0080           0
   72358 WT7  1414 TIP3 H2   HT     0.417000        1.0080           0
   72359 WT7  1429 TIP3 OH2  OT    -0.834000       15.9994           0
   72360 WT7  1429 TIP3 H1   HT     0.417000        1.0080           0
   72361 WT7  1429 TIP3 H2   HT     0.417000        1.0080           0
   72362 WT7  1433 TIP3 OH2  OT    -0.834000       15.9994           0
   72363 WT7  1433 TIP3 H1   HT     0.417000        1.0080           0
   72364 WT7  1433 TIP3 H2   HT     0.417000        1.0080           0
   72365 WT7  1436 TIP3 OH2  OT    -0.834000       15.9994           0
   72366 WT7  1436 TIP3 H1   HT     0.417000        1.0080           0
   72367 WT7  1436 TIP3 H2   HT     0.417000        1.0080           0
   72368 WT7  1440 TIP3 OH2  OT    -0.834000       15.9994           0
   72369 WT7  1440 TIP3 H1   HT     0.417000        1.0080           0
   72370 WT7  1440 TIP3 H2   HT     0.417000        1.0080           0
   72371 WT7  1445 TIP3 OH2  OT    -0.834000       15.9994           0
   72372 WT7  1445 TIP3 H1   HT     0.417000        1.0080           0
   72373 WT7  1445 TIP3 H2   HT     0.417000        1.0080           0
   72374 WT7  1447 TIP3 OH2  OT    -0.834000       15.9994           0
   72375 WT7  1447 TIP3 H1   HT     0.417000        1.0080           0
   72376 WT7  1447 TIP3 H2   HT     0.417000        1.0080           0
   72377 WT7  1451 TIP3 OH2  OT    -0.834000       15.9994           0
   72378 WT7  1451 TIP3 H1   HT     0.417000        1.0080           0
   72379 WT7  1451 TIP3 H2   HT     0.417000        1.0080           0
   72380 WT7  1459 TIP3 OH2  OT    -0.834000       15.9994           0
   72381 WT7  1459 TIP3 H1   HT     0.417000        1.0080           0
   72382 WT7  1459 TIP3 H2   HT     0.417000        1.0080           0
   72383 WT7  1462 TIP3 OH2  OT    -0.834000       15.9994           0
   72384 WT7  1462 TIP3 H1   HT     0.417000        1.0080           0
   72385 WT7  1462 TIP3 H2   HT     0.417000        1.0080           0
   72386 WT7  1466 TIP3 OH2  OT    -0.834000       15.9994           0
   72387 WT7  1466 TIP3 H1   HT     0.417000        1.0080           0
   72388 WT7  1466 TIP3 H2   HT     0.417000        1.0080           0
   72389 WT7  1473 TIP3 OH2  OT    -0.834000       15.9994           0
   72390 WT7  1473 TIP3 H1   HT     0.417000        1.0080           0
   72391 WT7  1473 TIP3 H2   HT     0.417000        1.0080           0
   72392 WT7  1476 TIP3 OH2  OT    -0.834000       15.9994           0
   72393 WT7  1476 TIP3 H1   HT     0.417000        1.0080           0
   72394 WT7  1476 TIP3 H2   HT     0.417000        1.0080           0
   72395 WT7  1477 TIP3 OH2  OT    -0.834000       15.9994           0
   72396 WT7  1477 TIP3 H1   HT     0.417000        1.0080           0
   72397 WT7  1477 TIP3 H2   HT     0.417000        1.0080           0
   72398 WT7  1480 TIP3 OH2  OT    -0.834000       15.9994           0
   72399 WT7  1480 TIP3 H1   HT     0.417000        1.0080           0
   72400 WT7  1480 TIP3 H2   HT     0.417000        1.0080           0
   72401 WT7  1483 TIP3 OH2  OT    -0.834000       15.9994           0
   72402 WT7  1483 TIP3 H1   HT     0.417000        1.0080           0
   72403 WT7  1483 TIP3 H2   HT     0.417000        1.0080           0
   72404 WT7  1486 TIP3 OH2  OT    -0.834000       15.9994           0
   72405 WT7  1486 TIP3 H1   HT     0.417000        1.0080           0
   72406 WT7  1486 TIP3 H2   HT     0.417000        1.0080           0
   72407 WT7  1492 TIP3 OH2  OT    -0.834000       15.9994           0
   72408 WT7  1492 TIP3 H1   HT     0.417000        1.0080           0
   72409 WT7  1492 TIP3 H2   HT     0.417000        1.0080           0
   72410 WT7  1493 TIP3 OH2  OT    -0.834000       15.9994           0
   72411 WT7  1493 TIP3 H1   HT     0.417000        1.0080           0
   72412 WT7  1493 TIP3 H2   HT     0.417000        1.0080           0
   72413 WT7  1501 TIP3 OH2  OT    -0.834000       15.9994           0
   72414 WT7  1501 TIP3 H1   HT     0.417000        1.0080           0
   72415 WT7  1501 TIP3 H2   HT     0.417000        1.0080           0
   72416 WT7  1509 TIP3 OH2  OT    -0.834000       15.9994           0
   72417 WT7  1509 TIP3 H1   HT     0.417000        1.0080           0
   72418 WT7  1509 TIP3 H2   HT     0.417000        1.0080           0
   72419 WT7  1514 TIP3 OH2  OT    -0.834000       15.9994           0
   72420 WT7  1514 TIP3 H1   HT     0.417000        1.0080           0
   72421 WT7  1514 TIP3 H2   HT     0.417000        1.0080           0
   72422 WT7  1518 TIP3 OH2  OT    -0.834000       15.9994           0
   72423 WT7  1518 TIP3 H1   HT     0.417000        1.0080           0
   72424 WT7  1518 TIP3 H2   HT     0.417000        1.0080           0
   72425 WT7  1522 TIP3 OH2  OT    -0.834000       15.9994           0
   72426 WT7  1522 TIP3 H1   HT     0.417000        1.0080           0
   72427 WT7  1522 TIP3 H2   HT     0.417000        1.0080           0
   72428 WT7  1524 TIP3 OH2  OT    -0.834000       15.9994           0
   72429 WT7  1524 TIP3 H1   HT     0.417000        1.0080           0
   72430 WT7  1524 TIP3 H2   HT     0.417000        1.0080           0
   72431 WT7  1527 TIP3 OH2  OT    -0.834000       15.9994           0
   72432 WT7  1527 TIP3 H1   HT     0.417000        1.0080           0
   72433 WT7  1527 TIP3 H2   HT     0.417000        1.0080           0
   72434 WT7  1546 TIP3 OH2  OT    -0.834000       15.9994           0
   72435 WT7  1546 TIP3 H1   HT     0.417000        1.0080           0
   72436 WT7  1546 TIP3 H2   HT     0.417000        1.0080           0
   72437 WT7  1557 TIP3 OH2  OT    -0.834000       15.9994           0
   72438 WT7  1557 TIP3 H1   HT     0.417000        1.0080           0
   72439 WT7  1557 TIP3 H2   HT     0.417000        1.0080           0
   72440 WT7  1573 TIP3 OH2  OT    -0.834000       15.9994           0
   72441 WT7  1573 TIP3 H1   HT     0.417000        1.0080           0
   72442 WT7  1573 TIP3 H2   HT     0.417000        1.0080           0
   72443 WT7  1574 TIP3 OH2  OT    -0.834000       15.9994           0
   72444 WT7  1574 TIP3 H1   HT     0.417000        1.0080           0
   72445 WT7  1574 TIP3 H2   HT     0.417000        1.0080           0
   72446 WT7  1600 TIP3 OH2  OT    -0.834000       15.9994           0
   72447 WT7  1600 TIP3 H1   HT     0.417000        1.0080           0
   72448 WT7  1600 TIP3 H2   HT     0.417000        1.0080           0
   72449 WT7  1612 TIP3 OH2  OT    -0.834000       15.9994           0
   72450 WT7  1612 TIP3 H1   HT     0.417000        1.0080           0
   72451 WT7  1612 TIP3 H2   HT     0.417000        1.0080           0
   72452 WT7  1613 TIP3 OH2  OT    -0.834000       15.9994           0
   72453 WT7  1613 TIP3 H1   HT     0.417000        1.0080           0
   72454 WT7  1613 TIP3 H2   HT     0.417000        1.0080           0
   72455 WT7  1615 TIP3 OH2  OT    -0.834000       15.9994           0
   72456 WT7  1615 TIP3 H1   HT     0.417000        1.0080           0
   72457 WT7  1615 TIP3 H2   HT     0.417000        1.0080           0
   72458 WT7  1624 TIP3 OH2  OT    -0.834000       15.9994           0
   72459 WT7  1624 TIP3 H1   HT     0.417000        1.0080           0
   72460 WT7  1624 TIP3 H2   HT     0.417000        1.0080           0
   72461 WT7  1625 TIP3 OH2  OT    -0.834000       15.9994           0
   72462 WT7  1625 TIP3 H1   HT     0.417000        1.0080           0
   72463 WT7  1625 TIP3 H2   HT     0.417000        1.0080           0
   72464 WT7  1627 TIP3 OH2  OT    -0.834000       15.9994           0
   72465 WT7  1627 TIP3 H1   HT     0.417000        1.0080           0
   72466 WT7  1627 TIP3 H2   HT     0.417000        1.0080           0
   72467 WT7  1629 TIP3 OH2  OT    -0.834000       15.9994           0
   72468 WT7  1629 TIP3 H1   HT     0.417000        1.0080           0
   72469 WT7  1629 TIP3 H2   HT     0.417000        1.0080           0
   72470 WT7  1631 TIP3 OH2  OT    -0.834000       15.9994           0
   72471 WT7  1631 TIP3 H1   HT     0.417000        1.0080           0
   72472 WT7  1631 TIP3 H2   HT     0.417000        1.0080           0
   72473 WT7  1636 TIP3 OH2  OT    -0.834000       15.9994           0
   72474 WT7  1636 TIP3 H1   HT     0.417000        1.0080           0
   72475 WT7  1636 TIP3 H2   HT     0.417000        1.0080           0
   72476 WT7  1642 TIP3 OH2  OT    -0.834000       15.9994           0
   72477 WT7  1642 TIP3 H1   HT     0.417000        1.0080           0
   72478 WT7  1642 TIP3 H2   HT     0.417000        1.0080           0
   72479 WT7  1643 TIP3 OH2  OT    -0.834000       15.9994           0
   72480 WT7  1643 TIP3 H1   HT     0.417000        1.0080           0
   72481 WT7  1643 TIP3 H2   HT     0.417000        1.0080           0
   72482 WT7  1647 TIP3 OH2  OT    -0.834000       15.9994           0
   72483 WT7  1647 TIP3 H1   HT     0.417000        1.0080           0
   72484 WT7  1647 TIP3 H2   HT     0.417000        1.0080           0
   72485 WT7  1651 TIP3 OH2  OT    -0.834000       15.9994           0
   72486 WT7  1651 TIP3 H1   HT     0.417000        1.0080           0
   72487 WT7  1651 TIP3 H2   HT     0.417000        1.0080           0
   72488 WT7  1656 TIP3 OH2  OT    -0.834000       15.9994           0
   72489 WT7  1656 TIP3 H1   HT     0.417000        1.0080           0
   72490 WT7  1656 TIP3 H2   HT     0.417000        1.0080           0
   72491 WT7  1678 TIP3 OH2  OT    -0.834000       15.9994           0
   72492 WT7  1678 TIP3 H1   HT     0.417000        1.0080           0
   72493 WT7  1678 TIP3 H2   HT     0.417000        1.0080           0
   72494 WT7  1691 TIP3 OH2  OT    -0.834000       15.9994           0
   72495 WT7  1691 TIP3 H1   HT     0.417000        1.0080           0
   72496 WT7  1691 TIP3 H2   HT     0.417000        1.0080           0
   72497 WT7  1697 TIP3 OH2  OT    -0.834000       15.9994           0
   72498 WT7  1697 TIP3 H1   HT     0.417000        1.0080           0
   72499 WT7  1697 TIP3 H2   HT     0.417000        1.0080           0
   72500 WT7  1698 TIP3 OH2  OT    -0.834000       15.9994           0
   72501 WT7  1698 TIP3 H1   HT     0.417000        1.0080           0
   72502 WT7  1698 TIP3 H2   HT     0.417000        1.0080           0
   72503 WT7  1706 TIP3 OH2  OT    -0.834000       15.9994           0
   72504 WT7  1706 TIP3 H1   HT     0.417000        1.0080           0
   72505 WT7  1706 TIP3 H2   HT     0.417000        1.0080           0
   72506 WT7  1718 TIP3 OH2  OT    -0.834000       15.9994           0
   72507 WT7  1718 TIP3 H1   HT     0.417000        1.0080           0
   72508 WT7  1718 TIP3 H2   HT     0.417000        1.0080           0
   72509 WT7  1725 TIP3 OH2  OT    -0.834000       15.9994           0
   72510 WT7  1725 TIP3 H1   HT     0.417000        1.0080           0
   72511 WT7  1725 TIP3 H2   HT     0.417000        1.0080           0
   72512 WT7  1728 TIP3 OH2  OT    -0.834000       15.9994           0
   72513 WT7  1728 TIP3 H1   HT     0.417000        1.0080           0
   72514 WT7  1728 TIP3 H2   HT     0.417000        1.0080           0
   72515 WT7  1733 TIP3 OH2  OT    -0.834000       15.9994           0
   72516 WT7  1733 TIP3 H1   HT     0.417000        1.0080           0
   72517 WT7  1733 TIP3 H2   HT     0.417000        1.0080           0
   72518 WT7  1737 TIP3 OH2  OT    -0.834000       15.9994           0
   72519 WT7  1737 TIP3 H1   HT     0.417000        1.0080           0
   72520 WT7  1737 TIP3 H2   HT     0.417000        1.0080           0
   72521 WT7  1751 TIP3 OH2  OT    -0.834000       15.9994           0
   72522 WT7  1751 TIP3 H1   HT     0.417000        1.0080           0
   72523 WT7  1751 TIP3 H2   HT     0.417000        1.0080           0
   72524 WT7  1754 TIP3 OH2  OT    -0.834000       15.9994           0
   72525 WT7  1754 TIP3 H1   HT     0.417000        1.0080           0
   72526 WT7  1754 TIP3 H2   HT     0.417000        1.0080           0
   72527 WT7  1756 TIP3 OH2  OT    -0.834000       15.9994           0
   72528 WT7  1756 TIP3 H1   HT     0.417000        1.0080           0
   72529 WT7  1756 TIP3 H2   HT     0.417000        1.0080           0
   72530 WT7  1758 TIP3 OH2  OT    -0.834000       15.9994           0
   72531 WT7  1758 TIP3 H1   HT     0.417000        1.0080           0
   72532 WT7  1758 TIP3 H2   HT     0.417000        1.0080           0
   72533 WT7  1763 TIP3 OH2  OT    -0.834000       15.9994           0
   72534 WT7  1763 TIP3 H1   HT     0.417000        1.0080           0
   72535 WT7  1763 TIP3 H2   HT     0.417000        1.0080           0
   72536 WT7  1764 TIP3 OH2  OT    -0.834000       15.9994           0
   72537 WT7  1764 TIP3 H1   HT     0.417000        1.0080           0
   72538 WT7  1764 TIP3 H2   HT     0.417000        1.0080           0
   72539 WT7  1769 TIP3 OH2  OT    -0.834000       15.9994           0
   72540 WT7  1769 TIP3 H1   HT     0.417000        1.0080           0
   72541 WT7  1769 TIP3 H2   HT     0.417000        1.0080           0
   72542 WT7  1771 TIP3 OH2  OT    -0.834000       15.9994           0
   72543 WT7  1771 TIP3 H1   HT     0.417000        1.0080           0
   72544 WT7  1771 TIP3 H2   HT     0.417000        1.0080           0
   72545 WT7  1775 TIP3 OH2  OT    -0.834000       15.9994           0
   72546 WT7  1775 TIP3 H1   HT     0.417000        1.0080           0
   72547 WT7  1775 TIP3 H2   HT     0.417000        1.0080           0
   72548 WT7  1777 TIP3 OH2  OT    -0.834000       15.9994           0
   72549 WT7  1777 TIP3 H1   HT     0.417000        1.0080           0
   72550 WT7  1777 TIP3 H2   HT     0.417000        1.0080           0
   72551 WT7  1778 TIP3 OH2  OT    -0.834000       15.9994           0
   72552 WT7  1778 TIP3 H1   HT     0.417000        1.0080           0
   72553 WT7  1778 TIP3 H2   HT     0.417000        1.0080           0
   72554 WT7  1779 TIP3 OH2  OT    -0.834000       15.9994           0
   72555 WT7  1779 TIP3 H1   HT     0.417000        1.0080           0
   72556 WT7  1779 TIP3 H2   HT     0.417000        1.0080           0
   72557 WT7  1782 TIP3 OH2  OT    -0.834000       15.9994           0
   72558 WT7  1782 TIP3 H1   HT     0.417000        1.0080           0
   72559 WT7  1782 TIP3 H2   HT     0.417000        1.0080           0
   72560 WT7  1783 TIP3 OH2  OT    -0.834000       15.9994           0
   72561 WT7  1783 TIP3 H1   HT     0.417000        1.0080           0
   72562 WT7  1783 TIP3 H2   HT     0.417000        1.0080           0
   72563 WT7  1785 TIP3 OH2  OT    -0.834000       15.9994           0
   72564 WT7  1785 TIP3 H1   HT     0.417000        1.0080           0
   72565 WT7  1785 TIP3 H2   HT     0.417000        1.0080           0
   72566 WT7  1789 TIP3 OH2  OT    -0.834000       15.9994           0
   72567 WT7  1789 TIP3 H1   HT     0.417000        1.0080           0
   72568 WT7  1789 TIP3 H2   HT     0.417000        1.0080           0
   72569 WT7  1812 TIP3 OH2  OT    -0.834000       15.9994           0
   72570 WT7  1812 TIP3 H1   HT     0.417000        1.0080           0
   72571 WT7  1812 TIP3 H2   HT     0.417000        1.0080           0
   72572 WT7  1813 TIP3 OH2  OT    -0.834000       15.9994           0
   72573 WT7  1813 TIP3 H1   HT     0.417000        1.0080           0
   72574 WT7  1813 TIP3 H2   HT     0.417000        1.0080           0
   72575 WT7  1819 TIP3 OH2  OT    -0.834000       15.9994           0
   72576 WT7  1819 TIP3 H1   HT     0.417000        1.0080           0
   72577 WT7  1819 TIP3 H2   HT     0.417000        1.0080           0
   72578 WT7  1849 TIP3 OH2  OT    -0.834000       15.9994           0
   72579 WT7  1849 TIP3 H1   HT     0.417000        1.0080           0
   72580 WT7  1849 TIP3 H2   HT     0.417000        1.0080           0
   72581 WT7  1853 TIP3 OH2  OT    -0.834000       15.9994           0
   72582 WT7  1853 TIP3 H1   HT     0.417000        1.0080           0
   72583 WT7  1853 TIP3 H2   HT     0.417000        1.0080           0
   72584 WT7  1858 TIP3 OH2  OT    -0.834000       15.9994           0
   72585 WT7  1858 TIP3 H1   HT     0.417000        1.0080           0
   72586 WT7  1858 TIP3 H2   HT     0.417000        1.0080           0
   72587 WT7  1859 TIP3 OH2  OT    -0.834000       15.9994           0
   72588 WT7  1859 TIP3 H1   HT     0.417000        1.0080           0
   72589 WT7  1859 TIP3 H2   HT     0.417000        1.0080           0
   72590 WT7  1864 TIP3 OH2  OT    -0.834000       15.9994           0
   72591 WT7  1864 TIP3 H1   HT     0.417000        1.0080           0
   72592 WT7  1864 TIP3 H2   HT     0.417000        1.0080           0
   72593 WT7  1879 TIP3 OH2  OT    -0.834000       15.9994           0
   72594 WT7  1879 TIP3 H1   HT     0.417000        1.0080           0
   72595 WT7  1879 TIP3 H2   HT     0.417000        1.0080           0
   72596 WT7  1880 TIP3 OH2  OT    -0.834000       15.9994           0
   72597 WT7  1880 TIP3 H1   HT     0.417000        1.0080           0
   72598 WT7  1880 TIP3 H2   HT     0.417000        1.0080           0
   72599 WT7  1882 TIP3 OH2  OT    -0.834000       15.9994           0
   72600 WT7  1882 TIP3 H1   HT     0.417000        1.0080           0
   72601 WT7  1882 TIP3 H2   HT     0.417000        1.0080           0
   72602 WT7  1892 TIP3 OH2  OT    -0.834000       15.9994           0
   72603 WT7  1892 TIP3 H1   HT     0.417000        1.0080           0
   72604 WT7  1892 TIP3 H2   HT     0.417000        1.0080           0
   72605 WT7  1897 TIP3 OH2  OT    -0.834000       15.9994           0
   72606 WT7  1897 TIP3 H1   HT     0.417000        1.0080           0
   72607 WT7  1897 TIP3 H2   HT     0.417000        1.0080           0
   72608 WT7  1898 TIP3 OH2  OT    -0.834000       15.9994           0
   72609 WT7  1898 TIP3 H1   HT     0.417000        1.0080           0
   72610 WT7  1898 TIP3 H2   HT     0.417000        1.0080           0
   72611 WT7  1918 TIP3 OH2  OT    -0.834000       15.9994           0
   72612 WT7  1918 TIP3 H1   HT     0.417000        1.0080           0
   72613 WT7  1918 TIP3 H2   HT     0.417000        1.0080           0
   72614 WT7  1921 TIP3 OH2  OT    -0.834000       15.9994           0
   72615 WT7  1921 TIP3 H1   HT     0.417000        1.0080           0
   72616 WT7  1921 TIP3 H2   HT     0.417000        1.0080           0
   72617 WT7  1925 TIP3 OH2  OT    -0.834000       15.9994           0
   72618 WT7  1925 TIP3 H1   HT     0.417000        1.0080           0
   72619 WT7  1925 TIP3 H2   HT     0.417000        1.0080           0
   72620 WT7  1939 TIP3 OH2  OT    -0.834000       15.9994           0
   72621 WT7  1939 TIP3 H1   HT     0.417000        1.0080           0
   72622 WT7  1939 TIP3 H2   HT     0.417000        1.0080           0
   72623 WT7  1949 TIP3 OH2  OT    -0.834000       15.9994           0
   72624 WT7  1949 TIP3 H1   HT     0.417000        1.0080           0
   72625 WT7  1949 TIP3 H2   HT     0.417000        1.0080           0
   72626 WT7  1960 TIP3 OH2  OT    -0.834000       15.9994           0
   72627 WT7  1960 TIP3 H1   HT     0.417000        1.0080           0
   72628 WT7  1960 TIP3 H2   HT     0.417000        1.0080           0
   72629 WT7  1965 TIP3 OH2  OT    -0.834000       15.9994           0
   72630 WT7  1965 TIP3 H1   HT     0.417000        1.0080           0
   72631 WT7  1965 TIP3 H2   HT     0.417000        1.0080           0
   72632 WT7  1969 TIP3 OH2  OT    -0.834000       15.9994           0
   72633 WT7  1969 TIP3 H1   HT     0.417000        1.0080           0
   72634 WT7  1969 TIP3 H2   HT     0.417000        1.0080           0
   72635 WT7  1978 TIP3 OH2  OT    -0.834000       15.9994           0
   72636 WT7  1978 TIP3 H1   HT     0.417000        1.0080           0
   72637 WT7  1978 TIP3 H2   HT     0.417000        1.0080           0
   72638 WT7  1990 TIP3 OH2  OT    -0.834000       15.9994           0
   72639 WT7  1990 TIP3 H1   HT     0.417000        1.0080           0
   72640 WT7  1990 TIP3 H2   HT     0.417000        1.0080           0
   72641 WT7  1994 TIP3 OH2  OT    -0.834000       15.9994           0
   72642 WT7  1994 TIP3 H1   HT     0.417000        1.0080           0
   72643 WT7  1994 TIP3 H2   HT     0.417000        1.0080           0
   72644 WT7  2017 TIP3 OH2  OT    -0.834000       15.9994           0
   72645 WT7  2017 TIP3 H1   HT     0.417000        1.0080           0
   72646 WT7  2017 TIP3 H2   HT     0.417000        1.0080           0
   72647 WT7  2022 TIP3 OH2  OT    -0.834000       15.9994           0
   72648 WT7  2022 TIP3 H1   HT     0.417000        1.0080           0
   72649 WT7  2022 TIP3 H2   HT     0.417000        1.0080           0
   72650 WT7  2025 TIP3 OH2  OT    -0.834000       15.9994           0
   72651 WT7  2025 TIP3 H1   HT     0.417000        1.0080           0
   72652 WT7  2025 TIP3 H2   HT     0.417000        1.0080           0
   72653 WT7  2035 TIP3 OH2  OT    -0.834000       15.9994           0
   72654 WT7  2035 TIP3 H1   HT     0.417000        1.0080           0
   72655 WT7  2035 TIP3 H2   HT     0.417000        1.0080           0
   72656 WT7  2053 TIP3 OH2  OT    -0.834000       15.9994           0
   72657 WT7  2053 TIP3 H1   HT     0.417000        1.0080           0
   72658 WT7  2053 TIP3 H2   HT     0.417000        1.0080           0
   72659 WT7  2056 TIP3 OH2  OT    -0.834000       15.9994           0
   72660 WT7  2056 TIP3 H1   HT     0.417000        1.0080           0
   72661 WT7  2056 TIP3 H2   HT     0.417000        1.0080           0
   72662 WT7  2058 TIP3 OH2  OT    -0.834000       15.9994           0
   72663 WT7  2058 TIP3 H1   HT     0.417000        1.0080           0
   72664 WT7  2058 TIP3 H2   HT     0.417000        1.0080           0
   72665 WT7  2063 TIP3 OH2  OT    -0.834000       15.9994           0
   72666 WT7  2063 TIP3 H1   HT     0.417000        1.0080           0
   72667 WT7  2063 TIP3 H2   HT     0.417000        1.0080           0
   72668 WT7  2080 TIP3 OH2  OT    -0.834000       15.9994           0
   72669 WT7  2080 TIP3 H1   HT     0.417000        1.0080           0
   72670 WT7  2080 TIP3 H2   HT     0.417000        1.0080           0
   72671 WT7  2085 TIP3 OH2  OT    -0.834000       15.9994           0
   72672 WT7  2085 TIP3 H1   HT     0.417000        1.0080           0
   72673 WT7  2085 TIP3 H2   HT     0.417000        1.0080           0
   72674 WT7  2108 TIP3 OH2  OT    -0.834000       15.9994           0
   72675 WT7  2108 TIP3 H1   HT     0.417000        1.0080           0
   72676 WT7  2108 TIP3 H2   HT     0.417000        1.0080           0
   72677 WT7  2116 TIP3 OH2  OT    -0.834000       15.9994           0
   72678 WT7  2116 TIP3 H1   HT     0.417000        1.0080           0
   72679 WT7  2116 TIP3 H2   HT     0.417000        1.0080           0
   72680 WT7  2127 TIP3 OH2  OT    -0.834000       15.9994           0
   72681 WT7  2127 TIP3 H1   HT     0.417000        1.0080           0
   72682 WT7  2127 TIP3 H2   HT     0.417000        1.0080           0
   72683 WT7  2129 TIP3 OH2  OT    -0.834000       15.9994           0
   72684 WT7  2129 TIP3 H1   HT     0.417000        1.0080           0
   72685 WT7  2129 TIP3 H2   HT     0.417000        1.0080           0
   72686 WT7  2132 TIP3 OH2  OT    -0.834000       15.9994           0
   72687 WT7  2132 TIP3 H1   HT     0.417000        1.0080           0
   72688 WT7  2132 TIP3 H2   HT     0.417000        1.0080           0
   72689 WT7  2150 TIP3 OH2  OT    -0.834000       15.9994           0
   72690 WT7  2150 TIP3 H1   HT     0.417000        1.0080           0
   72691 WT7  2150 TIP3 H2   HT     0.417000        1.0080           0
   72692 WT7  2156 TIP3 OH2  OT    -0.834000       15.9994           0
   72693 WT7  2156 TIP3 H1   HT     0.417000        1.0080           0
   72694 WT7  2156 TIP3 H2   HT     0.417000        1.0080           0
   72695 WT7  2160 TIP3 OH2  OT    -0.834000       15.9994           0
   72696 WT7  2160 TIP3 H1   HT     0.417000        1.0080           0
   72697 WT7  2160 TIP3 H2   HT     0.417000        1.0080           0
   72698 WT7  2163 TIP3 OH2  OT    -0.834000       15.9994           0
   72699 WT7  2163 TIP3 H1   HT     0.417000        1.0080           0
   72700 WT7  2163 TIP3 H2   HT     0.417000        1.0080           0
   72701 WT7  2171 TIP3 OH2  OT    -0.834000       15.9994           0
   72702 WT7  2171 TIP3 H1   HT     0.417000        1.0080           0
   72703 WT7  2171 TIP3 H2   HT     0.417000        1.0080           0
   72704 WT7  2173 TIP3 OH2  OT    -0.834000       15.9994           0
   72705 WT7  2173 TIP3 H1   HT     0.417000        1.0080           0
   72706 WT7  2173 TIP3 H2   HT     0.417000        1.0080           0
   72707 WT7  2179 TIP3 OH2  OT    -0.834000       15.9994           0
   72708 WT7  2179 TIP3 H1   HT     0.417000        1.0080           0
   72709 WT7  2179 TIP3 H2   HT     0.417000        1.0080           0
   72710 WT7  2181 TIP3 OH2  OT    -0.834000       15.9994           0
   72711 WT7  2181 TIP3 H1   HT     0.417000        1.0080           0
   72712 WT7  2181 TIP3 H2   HT     0.417000        1.0080           0
   72713 WT7  2183 TIP3 OH2  OT    -0.834000       15.9994           0
   72714 WT7  2183 TIP3 H1   HT     0.417000        1.0080           0
   72715 WT7  2183 TIP3 H2   HT     0.417000        1.0080           0
   72716 WT7  2190 TIP3 OH2  OT    -0.834000       15.9994           0
   72717 WT7  2190 TIP3 H1   HT     0.417000        1.0080           0
   72718 WT7  2190 TIP3 H2   HT     0.417000        1.0080           0
   72719 WT7  2221 TIP3 OH2  OT    -0.834000       15.9994           0
   72720 WT7  2221 TIP3 H1   HT     0.417000        1.0080           0
   72721 WT7  2221 TIP3 H2   HT     0.417000        1.0080           0
   72722 WT7  2231 TIP3 OH2  OT    -0.834000       15.9994           0
   72723 WT7  2231 TIP3 H1   HT     0.417000        1.0080           0
   72724 WT7  2231 TIP3 H2   HT     0.417000        1.0080           0
   72725 WT7  2236 TIP3 OH2  OT    -0.834000       15.9994           0
   72726 WT7  2236 TIP3 H1   HT     0.417000        1.0080           0
   72727 WT7  2236 TIP3 H2   HT     0.417000        1.0080           0
   72728 WT7  2270 TIP3 OH2  OT    -0.834000       15.9994           0
   72729 WT7  2270 TIP3 H1   HT     0.417000        1.0080           0
   72730 WT7  2270 TIP3 H2   HT     0.417000        1.0080           0
   72731 WT7  2282 TIP3 OH2  OT    -0.834000       15.9994           0
   72732 WT7  2282 TIP3 H1   HT     0.417000        1.0080           0
   72733 WT7  2282 TIP3 H2   HT     0.417000        1.0080           0
   72734 WT7  2283 TIP3 OH2  OT    -0.834000       15.9994           0
   72735 WT7  2283 TIP3 H1   HT     0.417000        1.0080           0
   72736 WT7  2283 TIP3 H2   HT     0.417000        1.0080           0
   72737 WT7  2288 TIP3 OH2  OT    -0.834000       15.9994           0
   72738 WT7  2288 TIP3 H1   HT     0.417000        1.0080           0
   72739 WT7  2288 TIP3 H2   HT     0.417000        1.0080           0
   72740 WT7  2289 TIP3 OH2  OT    -0.834000       15.9994           0
   72741 WT7  2289 TIP3 H1   HT     0.417000        1.0080           0
   72742 WT7  2289 TIP3 H2   HT     0.417000        1.0080           0
   72743 WT7  2290 TIP3 OH2  OT    -0.834000       15.9994           0
   72744 WT7  2290 TIP3 H1   HT     0.417000        1.0080           0
   72745 WT7  2290 TIP3 H2   HT     0.417000        1.0080           0
   72746 WT7  2293 TIP3 OH2  OT    -0.834000       15.9994           0
   72747 WT7  2293 TIP3 H1   HT     0.417000        1.0080           0
   72748 WT7  2293 TIP3 H2   HT     0.417000        1.0080           0
   72749 WT7  2323 TIP3 OH2  OT    -0.834000       15.9994           0
   72750 WT7  2323 TIP3 H1   HT     0.417000        1.0080           0
   72751 WT7  2323 TIP3 H2   HT     0.417000        1.0080           0
   72752 WT7  2324 TIP3 OH2  OT    -0.834000       15.9994           0
   72753 WT7  2324 TIP3 H1   HT     0.417000        1.0080           0
   72754 WT7  2324 TIP3 H2   HT     0.417000        1.0080           0
   72755 WT7  2327 TIP3 OH2  OT    -0.834000       15.9994           0
   72756 WT7  2327 TIP3 H1   HT     0.417000        1.0080           0
   72757 WT7  2327 TIP3 H2   HT     0.417000        1.0080           0
   72758 WT7  2357 TIP3 OH2  OT    -0.834000       15.9994           0
   72759 WT7  2357 TIP3 H1   HT     0.417000        1.0080           0
   72760 WT7  2357 TIP3 H2   HT     0.417000        1.0080           0
   72761 WT7  2358 TIP3 OH2  OT    -0.834000       15.9994           0
   72762 WT7  2358 TIP3 H1   HT     0.417000        1.0080           0
   72763 WT7  2358 TIP3 H2   HT     0.417000        1.0080           0
   72764 WT7  2372 TIP3 OH2  OT    -0.834000       15.9994           0
   72765 WT7  2372 TIP3 H1   HT     0.417000        1.0080           0
   72766 WT7  2372 TIP3 H2   HT     0.417000        1.0080           0
   72767 WT7  2395 TIP3 OH2  OT    -0.834000       15.9994           0
   72768 WT7  2395 TIP3 H1   HT     0.417000        1.0080           0
   72769 WT7  2395 TIP3 H2   HT     0.417000        1.0080           0
   72770 WT7  2405 TIP3 OH2  OT    -0.834000       15.9994           0
   72771 WT7  2405 TIP3 H1   HT     0.417000        1.0080           0
   72772 WT7  2405 TIP3 H2   HT     0.417000        1.0080           0
   72773 WT7  2408 TIP3 OH2  OT    -0.834000       15.9994           0
   72774 WT7  2408 TIP3 H1   HT     0.417000        1.0080           0
   72775 WT7  2408 TIP3 H2   HT     0.417000        1.0080           0
   72776 WT7  2410 TIP3 OH2  OT    -0.834000       15.9994           0
   72777 WT7  2410 TIP3 H1   HT     0.417000        1.0080           0
   72778 WT7  2410 TIP3 H2   HT     0.417000        1.0080           0
   72779 WT7  2411 TIP3 OH2  OT    -0.834000       15.9994           0
   72780 WT7  2411 TIP3 H1   HT     0.417000        1.0080           0
   72781 WT7  2411 TIP3 H2   HT     0.417000        1.0080           0
   72782 WT7  2430 TIP3 OH2  OT    -0.834000       15.9994           0
   72783 WT7  2430 TIP3 H1   HT     0.417000        1.0080           0
   72784 WT7  2430 TIP3 H2   HT     0.417000        1.0080           0
   72785 WT7  2462 TIP3 OH2  OT    -0.834000       15.9994           0
   72786 WT7  2462 TIP3 H1   HT     0.417000        1.0080           0
   72787 WT7  2462 TIP3 H2   HT     0.417000        1.0080           0
   72788 WT7  2471 TIP3 OH2  OT    -0.834000       15.9994           0
   72789 WT7  2471 TIP3 H1   HT     0.417000        1.0080           0
   72790 WT7  2471 TIP3 H2   HT     0.417000        1.0080           0
   72791 WT7  2474 TIP3 OH2  OT    -0.834000       15.9994           0
   72792 WT7  2474 TIP3 H1   HT     0.417000        1.0080           0
   72793 WT7  2474 TIP3 H2   HT     0.417000        1.0080           0
   72794 WT7  2500 TIP3 OH2  OT    -0.834000       15.9994           0
   72795 WT7  2500 TIP3 H1   HT     0.417000        1.0080           0
   72796 WT7  2500 TIP3 H2   HT     0.417000        1.0080           0
   72797 WT7  2521 TIP3 OH2  OT    -0.834000       15.9994           0
   72798 WT7  2521 TIP3 H1   HT     0.417000        1.0080           0
   72799 WT7  2521 TIP3 H2   HT     0.417000        1.0080           0
   72800 WT7  2524 TIP3 OH2  OT    -0.834000       15.9994           0
   72801 WT7  2524 TIP3 H1   HT     0.417000        1.0080           0
   72802 WT7  2524 TIP3 H2   HT     0.417000        1.0080           0
   72803 WT7  2525 TIP3 OH2  OT    -0.834000       15.9994           0
   72804 WT7  2525 TIP3 H1   HT     0.417000        1.0080           0
   72805 WT7  2525 TIP3 H2   HT     0.417000        1.0080           0
   72806 WT7  2542 TIP3 OH2  OT    -0.834000       15.9994           0
   72807 WT7  2542 TIP3 H1   HT     0.417000        1.0080           0
   72808 WT7  2542 TIP3 H2   HT     0.417000        1.0080           0
   72809 WT7  2560 TIP3 OH2  OT    -0.834000       15.9994           0
   72810 WT7  2560 TIP3 H1   HT     0.417000        1.0080           0
   72811 WT7  2560 TIP3 H2   HT     0.417000        1.0080           0
   72812 WT7  2568 TIP3 OH2  OT    -0.834000       15.9994           0
   72813 WT7  2568 TIP3 H1   HT     0.417000        1.0080           0
   72814 WT7  2568 TIP3 H2   HT     0.417000        1.0080           0
   72815 WT7  2589 TIP3 OH2  OT    -0.834000       15.9994           0
   72816 WT7  2589 TIP3 H1   HT     0.417000        1.0080           0
   72817 WT7  2589 TIP3 H2   HT     0.417000        1.0080           0
   72818 WT7  2603 TIP3 OH2  OT    -0.834000       15.9994           0
   72819 WT7  2603 TIP3 H1   HT     0.417000        1.0080           0
   72820 WT7  2603 TIP3 H2   HT     0.417000        1.0080           0
   72821 WT7  2629 TIP3 OH2  OT    -0.834000       15.9994           0
   72822 WT7  2629 TIP3 H1   HT     0.417000        1.0080           0
   72823 WT7  2629 TIP3 H2   HT     0.417000        1.0080           0
   72824 WT7  2644 TIP3 OH2  OT    -0.834000       15.9994           0
   72825 WT7  2644 TIP3 H1   HT     0.417000        1.0080           0
   72826 WT7  2644 TIP3 H2   HT     0.417000        1.0080           0
   72827 WT7  2656 TIP3 OH2  OT    -0.834000       15.9994           0
   72828 WT7  2656 TIP3 H1   HT     0.417000        1.0080           0
   72829 WT7  2656 TIP3 H2   HT     0.417000        1.0080           0
   72830 WT7  2705 TIP3 OH2  OT    -0.834000       15.9994           0
   72831 WT7  2705 TIP3 H1   HT     0.417000        1.0080           0
   72832 WT7  2705 TIP3 H2   HT     0.417000        1.0080           0
   72833 WT7  2759 TIP3 OH2  OT    -0.834000       15.9994           0
   72834 WT7  2759 TIP3 H1   HT     0.417000        1.0080           0
   72835 WT7  2759 TIP3 H2   HT     0.417000        1.0080           0
   72836 WT7  2780 TIP3 OH2  OT    -0.834000       15.9994           0
   72837 WT7  2780 TIP3 H1   HT     0.417000        1.0080           0
   72838 WT7  2780 TIP3 H2   HT     0.417000        1.0080           0
   72839 WT7  2781 TIP3 OH2  OT    -0.834000       15.9994           0
   72840 WT7  2781 TIP3 H1   HT     0.417000        1.0080           0
   72841 WT7  2781 TIP3 H2   HT     0.417000        1.0080           0
   72842 WT7  2802 TIP3 OH2  OT    -0.834000       15.9994           0
   72843 WT7  2802 TIP3 H1   HT     0.417000        1.0080           0
   72844 WT7  2802 TIP3 H2   HT     0.417000        1.0080           0
   72845 WT7  2855 TIP3 OH2  OT    -0.834000       15.9994           0
   72846 WT7  2855 TIP3 H1   HT     0.417000        1.0080           0
   72847 WT7  2855 TIP3 H2   HT     0.417000        1.0080           0
   72848 WT7  2872 TIP3 OH2  OT    -0.834000       15.9994           0
   72849 WT7  2872 TIP3 H1   HT     0.417000        1.0080           0
   72850 WT7  2872 TIP3 H2   HT     0.417000        1.0080           0
   72851 WT7  2894 TIP3 OH2  OT    -0.834000       15.9994           0
   72852 WT7  2894 TIP3 H1   HT     0.417000        1.0080           0
   72853 WT7  2894 TIP3 H2   HT     0.417000        1.0080           0
   72854 WT7  2895 TIP3 OH2  OT    -0.834000       15.9994           0
   72855 WT7  2895 TIP3 H1   HT     0.417000        1.0080           0
   72856 WT7  2895 TIP3 H2   HT     0.417000        1.0080           0
   72857 WT7  2903 TIP3 OH2  OT    -0.834000       15.9994           0
   72858 WT7  2903 TIP3 H1   HT     0.417000        1.0080           0
   72859 WT7  2903 TIP3 H2   HT     0.417000        1.0080           0
   72860 WT7  2906 TIP3 OH2  OT    -0.834000       15.9994           0
   72861 WT7  2906 TIP3 H1   HT     0.417000        1.0080           0
   72862 WT7  2906 TIP3 H2   HT     0.417000        1.0080           0
   72863 WT7  2980 TIP3 OH2  OT    -0.834000       15.9994           0
   72864 WT7  2980 TIP3 H1   HT     0.417000        1.0080           0
   72865 WT7  2980 TIP3 H2   HT     0.417000        1.0080           0
   72866 WT7  2998 TIP3 OH2  OT    -0.834000       15.9994           0
   72867 WT7  2998 TIP3 H1   HT     0.417000        1.0080           0
   72868 WT7  2998 TIP3 H2   HT     0.417000        1.0080           0
   72869 WT7  3029 TIP3 OH2  OT    -0.834000       15.9994           0
   72870 WT7  3029 TIP3 H1   HT     0.417000        1.0080           0
   72871 WT7  3029 TIP3 H2   HT     0.417000        1.0080           0
   72872 WT7  3063 TIP3 OH2  OT    -0.834000       15.9994           0
   72873 WT7  3063 TIP3 H1   HT     0.417000        1.0080           0
   72874 WT7  3063 TIP3 H2   HT     0.417000        1.0080           0
   72875 WT7  3184 TIP3 OH2  OT    -0.834000       15.9994           0
   72876 WT7  3184 TIP3 H1   HT     0.417000        1.0080           0
   72877 WT7  3184 TIP3 H2   HT     0.417000        1.0080           0
   72878 WT7  3223 TIP3 OH2  OT    -0.834000       15.9994           0
   72879 WT7  3223 TIP3 H1   HT     0.417000        1.0080           0
   72880 WT7  3223 TIP3 H2   HT     0.417000        1.0080           0
   72881 WT7  3287 TIP3 OH2  OT    -0.834000       15.9994           0
   72882 WT7  3287 TIP3 H1   HT     0.417000        1.0080           0
   72883 WT7  3287 TIP3 H2   HT     0.417000        1.0080           0
   72884 WT7  3294 TIP3 OH2  OT    -0.834000       15.9994           0
   72885 WT7  3294 TIP3 H1   HT     0.417000        1.0080           0
   72886 WT7  3294 TIP3 H2   HT     0.417000        1.0080           0
   72887 WT7  3521 TIP3 OH2  OT    -0.834000       15.9994           0
   72888 WT7  3521 TIP3 H1   HT     0.417000        1.0080           0
   72889 WT7  3521 TIP3 H2   HT     0.417000        1.0080           0
   72890 WT7  3665 TIP3 OH2  OT    -0.834000       15.9994           0
   72891 WT7  3665 TIP3 H1   HT     0.417000        1.0080           0
   72892 WT7  3665 TIP3 H2   HT     0.417000        1.0080           0
   72893 WT7  3687 TIP3 OH2  OT    -0.834000       15.9994           0
   72894 WT7  3687 TIP3 H1   HT     0.417000        1.0080           0
   72895 WT7  3687 TIP3 H2   HT     0.417000        1.0080           0
   72896 WT7  4850 TIP3 OH2  OT    -0.834000       15.9994           0
   72897 WT7  4850 TIP3 H1   HT     0.417000        1.0080           0
   72898 WT7  4850 TIP3 H2   HT     0.417000        1.0080           0
   72899 WT7  4971 TIP3 OH2  OT    -0.834000       15.9994           0
   72900 WT7  4971 TIP3 H1   HT     0.417000        1.0080           0
   72901 WT7  4971 TIP3 H2   HT     0.417000        1.0080           0
   72902 WT7  5421 TIP3 OH2  OT    -0.834000       15.9994           0
   72903 WT7  5421 TIP3 H1   HT     0.417000        1.0080           0
   72904 WT7  5421 TIP3 H2   HT     0.417000        1.0080           0
   72905 WT7  6240 TIP3 OH2  OT    -0.834000       15.9994           0
   72906 WT7  6240 TIP3 H1   HT     0.417000        1.0080           0
   72907 WT7  6240 TIP3 H2   HT     0.417000        1.0080           0
   72908 WT7  6350 TIP3 OH2  OT    -0.834000       15.9994           0
   72909 WT7  6350 TIP3 H1   HT     0.417000        1.0080           0
   72910 WT7  6350 TIP3 H2   HT     0.417000        1.0080           0
   72911 WT7  6479 TIP3 OH2  OT    -0.834000       15.9994           0
   72912 WT7  6479 TIP3 H1   HT     0.417000        1.0080           0
   72913 WT7  6479 TIP3 H2   HT     0.417000        1.0080           0
   72914 WT7  6628 TIP3 OH2  OT    -0.834000       15.9994           0
   72915 WT7  6628 TIP3 H1   HT     0.417000        1.0080           0
   72916 WT7  6628 TIP3 H2   HT     0.417000        1.0080           0
   72917 WT7  6650 TIP3 OH2  OT    -0.834000       15.9994           0
   72918 WT7  6650 TIP3 H1   HT     0.417000        1.0080           0
   72919 WT7  6650 TIP3 H2   HT     0.417000        1.0080           0
   72920 WT7  6671 TIP3 OH2  OT    -0.834000       15.9994           0
   72921 WT7  6671 TIP3 H1   HT     0.417000        1.0080           0
   72922 WT7  6671 TIP3 H2   HT     0.417000        1.0080           0
   72923 WT7  6751 TIP3 OH2  OT    -0.834000       15.9994           0
   72924 WT7  6751 TIP3 H1   HT     0.417000        1.0080           0
   72925 WT7  6751 TIP3 H2   HT     0.417000        1.0080           0
   72926 WT7  6773 TIP3 OH2  OT    -0.834000       15.9994           0
   72927 WT7  6773 TIP3 H1   HT     0.417000        1.0080           0
   72928 WT7  6773 TIP3 H2   HT     0.417000        1.0080           0
   72929 WT7  6964 TIP3 OH2  OT    -0.834000       15.9994           0
   72930 WT7  6964 TIP3 H1   HT     0.417000        1.0080           0
   72931 WT7  6964 TIP3 H2   HT     0.417000        1.0080           0
   72932 WT7  6980 TIP3 OH2  OT    -0.834000       15.9994           0
   72933 WT7  6980 TIP3 H1   HT     0.417000        1.0080           0
   72934 WT7  6980 TIP3 H2   HT     0.417000        1.0080           0
   72935 WT7  7027 TIP3 OH2  OT    -0.834000       15.9994           0
   72936 WT7  7027 TIP3 H1   HT     0.417000        1.0080           0
   72937 WT7  7027 TIP3 H2   HT     0.417000        1.0080           0
   72938 WT7  7114 TIP3 OH2  OT    -0.834000       15.9994           0
   72939 WT7  7114 TIP3 H1   HT     0.417000        1.0080           0
   72940 WT7  7114 TIP3 H2   HT     0.417000        1.0080           0
   72941 WT7  7133 TIP3 OH2  OT    -0.834000       15.9994           0
   72942 WT7  7133 TIP3 H1   HT     0.417000        1.0080           0
   72943 WT7  7133 TIP3 H2   HT     0.417000        1.0080           0
   72944 WT7  7165 TIP3 OH2  OT    -0.834000       15.9994           0
   72945 WT7  7165 TIP3 H1   HT     0.417000        1.0080           0
   72946 WT7  7165 TIP3 H2   HT     0.417000        1.0080           0
   72947 WT7  7290 TIP3 OH2  OT    -0.834000       15.9994           0
   72948 WT7  7290 TIP3 H1   HT     0.417000        1.0080           0
   72949 WT7  7290 TIP3 H2   HT     0.417000        1.0080           0
   72950 WT7  7295 TIP3 OH2  OT    -0.834000       15.9994           0
   72951 WT7  7295 TIP3 H1   HT     0.417000        1.0080           0
   72952 WT7  7295 TIP3 H2   HT     0.417000        1.0080           0
   72953 WT7  7308 TIP3 OH2  OT    -0.834000       15.9994           0
   72954 WT7  7308 TIP3 H1   HT     0.417000        1.0080           0
   72955 WT7  7308 TIP3 H2   HT     0.417000        1.0080           0
   72956 WT7  7427 TIP3 OH2  OT    -0.834000       15.9994           0
   72957 WT7  7427 TIP3 H1   HT     0.417000        1.0080           0
   72958 WT7  7427 TIP3 H2   HT     0.417000        1.0080           0
   72959 WT7  7510 TIP3 OH2  OT    -0.834000       15.9994           0
   72960 WT7  7510 TIP3 H1   HT     0.417000        1.0080           0
   72961 WT7  7510 TIP3 H2   HT     0.417000        1.0080           0
   72962 WT7  7532 TIP3 OH2  OT    -0.834000       15.9994           0
   72963 WT7  7532 TIP3 H1   HT     0.417000        1.0080           0
   72964 WT7  7532 TIP3 H2   HT     0.417000        1.0080           0
   72965 WT7  7533 TIP3 OH2  OT    -0.834000       15.9994           0
   72966 WT7  7533 TIP3 H1   HT     0.417000        1.0080           0
   72967 WT7  7533 TIP3 H2   HT     0.417000        1.0080           0
   72968 WT7  7563 TIP3 OH2  OT    -0.834000       15.9994           0
   72969 WT7  7563 TIP3 H1   HT     0.417000        1.0080           0
   72970 WT7  7563 TIP3 H2   HT     0.417000        1.0080           0
   72971 WT7  7568 TIP3 OH2  OT    -0.834000       15.9994           0
   72972 WT7  7568 TIP3 H1   HT     0.417000        1.0080           0
   72973 WT7  7568 TIP3 H2   HT     0.417000        1.0080           0
   72974 WT7  7576 TIP3 OH2  OT    -0.834000       15.9994           0
   72975 WT7  7576 TIP3 H1   HT     0.417000        1.0080           0
   72976 WT7  7576 TIP3 H2   HT     0.417000        1.0080           0
   72977 WT7  7583 TIP3 OH2  OT    -0.834000       15.9994           0
   72978 WT7  7583 TIP3 H1   HT     0.417000        1.0080           0
   72979 WT7  7583 TIP3 H2   HT     0.417000        1.0080           0
   72980 WT7  7592 TIP3 OH2  OT    -0.834000       15.9994           0
   72981 WT7  7592 TIP3 H1   HT     0.417000        1.0080           0
   72982 WT7  7592 TIP3 H2   HT     0.417000        1.0080           0
   72983 WT7  7603 TIP3 OH2  OT    -0.834000       15.9994           0
   72984 WT7  7603 TIP3 H1   HT     0.417000        1.0080           0
   72985 WT7  7603 TIP3 H2   HT     0.417000        1.0080           0
   72986 WT7  7607 TIP3 OH2  OT    -0.834000       15.9994           0
   72987 WT7  7607 TIP3 H1   HT     0.417000        1.0080           0
   72988 WT7  7607 TIP3 H2   HT     0.417000        1.0080           0
   72989 WT7  7630 TIP3 OH2  OT    -0.834000       15.9994           0
   72990 WT7  7630 TIP3 H1   HT     0.417000        1.0080           0
   72991 WT7  7630 TIP3 H2   HT     0.417000        1.0080           0
   72992 WT7  7631 TIP3 OH2  OT    -0.834000       15.9994           0
   72993 WT7  7631 TIP3 H1   HT     0.417000        1.0080           0
   72994 WT7  7631 TIP3 H2   HT     0.417000        1.0080           0
   72995 WT7  7634 TIP3 OH2  OT    -0.834000       15.9994           0
   72996 WT7  7634 TIP3 H1   HT     0.417000        1.0080           0
   72997 WT7  7634 TIP3 H2   HT     0.417000        1.0080           0
   72998 WT7  7642 TIP3 OH2  OT    -0.834000       15.9994           0
   72999 WT7  7642 TIP3 H1   HT     0.417000        1.0080           0
   73000 WT7  7642 TIP3 H2   HT     0.417000        1.0080           0
   73001 WT7  7647 TIP3 OH2  OT    -0.834000       15.9994           0
   73002 WT7  7647 TIP3 H1   HT     0.417000        1.0080           0
   73003 WT7  7647 TIP3 H2   HT     0.417000        1.0080           0
   73004 WT7  7650 TIP3 OH2  OT    -0.834000       15.9994           0
   73005 WT7  7650 TIP3 H1   HT     0.417000        1.0080           0
   73006 WT7  7650 TIP3 H2   HT     0.417000        1.0080           0
   73007 WT7  7707 TIP3 OH2  OT    -0.834000       15.9994           0
   73008 WT7  7707 TIP3 H1   HT     0.417000        1.0080           0
   73009 WT7  7707 TIP3 H2   HT     0.417000        1.0080           0
   73010 WT7  7715 TIP3 OH2  OT    -0.834000       15.9994           0
   73011 WT7  7715 TIP3 H1   HT     0.417000        1.0080           0
   73012 WT7  7715 TIP3 H2   HT     0.417000        1.0080           0
   73013 WT7  7739 TIP3 OH2  OT    -0.834000       15.9994           0
   73014 WT7  7739 TIP3 H1   HT     0.417000        1.0080           0
   73015 WT7  7739 TIP3 H2   HT     0.417000        1.0080           0
   73016 WT7  7748 TIP3 OH2  OT    -0.834000       15.9994           0
   73017 WT7  7748 TIP3 H1   HT     0.417000        1.0080           0
   73018 WT7  7748 TIP3 H2   HT     0.417000        1.0080           0
   73019 WT7  7833 TIP3 OH2  OT    -0.834000       15.9994           0
   73020 WT7  7833 TIP3 H1   HT     0.417000        1.0080           0
   73021 WT7  7833 TIP3 H2   HT     0.417000        1.0080           0
   73022 WT7  7846 TIP3 OH2  OT    -0.834000       15.9994           0
   73023 WT7  7846 TIP3 H1   HT     0.417000        1.0080           0
   73024 WT7  7846 TIP3 H2   HT     0.417000        1.0080           0
   73025 WT7  7925 TIP3 OH2  OT    -0.834000       15.9994           0
   73026 WT7  7925 TIP3 H1   HT     0.417000        1.0080           0
   73027 WT7  7925 TIP3 H2   HT     0.417000        1.0080           0
   73028 WT7  7944 TIP3 OH2  OT    -0.834000       15.9994           0
   73029 WT7  7944 TIP3 H1   HT     0.417000        1.0080           0
   73030 WT7  7944 TIP3 H2   HT     0.417000        1.0080           0
   73031 WT7  7951 TIP3 OH2  OT    -0.834000       15.9994           0
   73032 WT7  7951 TIP3 H1   HT     0.417000        1.0080           0
   73033 WT7  7951 TIP3 H2   HT     0.417000        1.0080           0
   73034 WT7  7959 TIP3 OH2  OT    -0.834000       15.9994           0
   73035 WT7  7959 TIP3 H1   HT     0.417000        1.0080           0
   73036 WT7  7959 TIP3 H2   HT     0.417000        1.0080           0
   73037 WT7  7978 TIP3 OH2  OT    -0.834000       15.9994           0
   73038 WT7  7978 TIP3 H1   HT     0.417000        1.0080           0
   73039 WT7  7978 TIP3 H2   HT     0.417000        1.0080           0
   73040 WT7  7979 TIP3 OH2  OT    -0.834000       15.9994           0
   73041 WT7  7979 TIP3 H1   HT     0.417000        1.0080           0
   73042 WT7  7979 TIP3 H2   HT     0.417000        1.0080           0
   73043 WT7  7985 TIP3 OH2  OT    -0.834000       15.9994           0
   73044 WT7  7985 TIP3 H1   HT     0.417000        1.0080           0
   73045 WT7  7985 TIP3 H2   HT     0.417000        1.0080           0
   73046 WT7  7997 TIP3 OH2  OT    -0.834000       15.9994           0
   73047 WT7  7997 TIP3 H1   HT     0.417000        1.0080           0
   73048 WT7  7997 TIP3 H2   HT     0.417000        1.0080           0
   73049 WT7  7998 TIP3 OH2  OT    -0.834000       15.9994           0
   73050 WT7  7998 TIP3 H1   HT     0.417000        1.0080           0
   73051 WT7  7998 TIP3 H2   HT     0.417000        1.0080           0
   73052 WT7  8000 TIP3 OH2  OT    -0.834000       15.9994           0
   73053 WT7  8000 TIP3 H1   HT     0.417000        1.0080           0
   73054 WT7  8000 TIP3 H2   HT     0.417000        1.0080           0
   73055 WT7  8014 TIP3 OH2  OT    -0.834000       15.9994           0
   73056 WT7  8014 TIP3 H1   HT     0.417000        1.0080           0
   73057 WT7  8014 TIP3 H2   HT     0.417000        1.0080           0
   73058 WT7  8023 TIP3 OH2  OT    -0.834000       15.9994           0
   73059 WT7  8023 TIP3 H1   HT     0.417000        1.0080           0
   73060 WT7  8023 TIP3 H2   HT     0.417000        1.0080           0
   73061 WT7  8024 TIP3 OH2  OT    -0.834000       15.9994           0
   73062 WT7  8024 TIP3 H1   HT     0.417000        1.0080           0
   73063 WT7  8024 TIP3 H2   HT     0.417000        1.0080           0
   73064 WT7  8031 TIP3 OH2  OT    -0.834000       15.9994           0
   73065 WT7  8031 TIP3 H1   HT     0.417000        1.0080           0
   73066 WT7  8031 TIP3 H2   HT     0.417000        1.0080           0
   73067 WT7  8046 TIP3 OH2  OT    -0.834000       15.9994           0
   73068 WT7  8046 TIP3 H1   HT     0.417000        1.0080           0
   73069 WT7  8046 TIP3 H2   HT     0.417000        1.0080           0
   73070 WT7  8064 TIP3 OH2  OT    -0.834000       15.9994           0
   73071 WT7  8064 TIP3 H1   HT     0.417000        1.0080           0
   73072 WT7  8064 TIP3 H2   HT     0.417000        1.0080           0
   73073 WT7  8067 TIP3 OH2  OT    -0.834000       15.9994           0
   73074 WT7  8067 TIP3 H1   HT     0.417000        1.0080           0
   73075 WT7  8067 TIP3 H2   HT     0.417000        1.0080           0
   73076 WT7  8068 TIP3 OH2  OT    -0.834000       15.9994           0
   73077 WT7  8068 TIP3 H1   HT     0.417000        1.0080           0
   73078 WT7  8068 TIP3 H2   HT     0.417000        1.0080           0
   73079 WT7  8079 TIP3 OH2  OT    -0.834000       15.9994           0
   73080 WT7  8079 TIP3 H1   HT     0.417000        1.0080           0
   73081 WT7  8079 TIP3 H2   HT     0.417000        1.0080           0
   73082 WT7  8123 TIP3 OH2  OT    -0.834000       15.9994           0
   73083 WT7  8123 TIP3 H1   HT     0.417000        1.0080           0
   73084 WT7  8123 TIP3 H2   HT     0.417000        1.0080           0
   73085 WT7  8124 TIP3 OH2  OT    -0.834000       15.9994           0
   73086 WT7  8124 TIP3 H1   HT     0.417000        1.0080           0
   73087 WT7  8124 TIP3 H2   HT     0.417000        1.0080           0
   73088 WT7  8133 TIP3 OH2  OT    -0.834000       15.9994           0
   73089 WT7  8133 TIP3 H1   HT     0.417000        1.0080           0
   73090 WT7  8133 TIP3 H2   HT     0.417000        1.0080           0
   73091 WT7  8136 TIP3 OH2  OT    -0.834000       15.9994           0
   73092 WT7  8136 TIP3 H1   HT     0.417000        1.0080           0
   73093 WT7  8136 TIP3 H2   HT     0.417000        1.0080           0
   73094 WT7  8140 TIP3 OH2  OT    -0.834000       15.9994           0
   73095 WT7  8140 TIP3 H1   HT     0.417000        1.0080           0
   73096 WT7  8140 TIP3 H2   HT     0.417000        1.0080           0
   73097 WT7  8141 TIP3 OH2  OT    -0.834000       15.9994           0
   73098 WT7  8141 TIP3 H1   HT     0.417000        1.0080           0
   73099 WT7  8141 TIP3 H2   HT     0.417000        1.0080           0
   73100 WT7  8161 TIP3 OH2  OT    -0.834000       15.9994           0
   73101 WT7  8161 TIP3 H1   HT     0.417000        1.0080           0
   73102 WT7  8161 TIP3 H2   HT     0.417000        1.0080           0
   73103 WT7  8173 TIP3 OH2  OT    -0.834000       15.9994           0
   73104 WT7  8173 TIP3 H1   HT     0.417000        1.0080           0
   73105 WT7  8173 TIP3 H2   HT     0.417000        1.0080           0
   73106 WT7  8174 TIP3 OH2  OT    -0.834000       15.9994           0
   73107 WT7  8174 TIP3 H1   HT     0.417000        1.0080           0
   73108 WT7  8174 TIP3 H2   HT     0.417000        1.0080           0
   73109 WT7  8176 TIP3 OH2  OT    -0.834000       15.9994           0
   73110 WT7  8176 TIP3 H1   HT     0.417000        1.0080           0
   73111 WT7  8176 TIP3 H2   HT     0.417000        1.0080           0
   73112 WT7  8183 TIP3 OH2  OT    -0.834000       15.9994           0
   73113 WT7  8183 TIP3 H1   HT     0.417000        1.0080           0
   73114 WT7  8183 TIP3 H2   HT     0.417000        1.0080           0
   73115 WT7  8191 TIP3 OH2  OT    -0.834000       15.9994           0
   73116 WT7  8191 TIP3 H1   HT     0.417000        1.0080           0
   73117 WT7  8191 TIP3 H2   HT     0.417000        1.0080           0
   73118 WT7  8193 TIP3 OH2  OT    -0.834000       15.9994           0
   73119 WT7  8193 TIP3 H1   HT     0.417000        1.0080           0
   73120 WT7  8193 TIP3 H2   HT     0.417000        1.0080           0
   73121 WT7  8218 TIP3 OH2  OT    -0.834000       15.9994           0
   73122 WT7  8218 TIP3 H1   HT     0.417000        1.0080           0
   73123 WT7  8218 TIP3 H2   HT     0.417000        1.0080           0
   73124 WT7  8222 TIP3 OH2  OT    -0.834000       15.9994           0
   73125 WT7  8222 TIP3 H1   HT     0.417000        1.0080           0
   73126 WT7  8222 TIP3 H2   HT     0.417000        1.0080           0
   73127 WT7  8229 TIP3 OH2  OT    -0.834000       15.9994           0
   73128 WT7  8229 TIP3 H1   HT     0.417000        1.0080           0
   73129 WT7  8229 TIP3 H2   HT     0.417000        1.0080           0
   73130 WT7  8230 TIP3 OH2  OT    -0.834000       15.9994           0
   73131 WT7  8230 TIP3 H1   HT     0.417000        1.0080           0
   73132 WT7  8230 TIP3 H2   HT     0.417000        1.0080           0
   73133 WT7  8260 TIP3 OH2  OT    -0.834000       15.9994           0
   73134 WT7  8260 TIP3 H1   HT     0.417000        1.0080           0
   73135 WT7  8260 TIP3 H2   HT     0.417000        1.0080           0
   73136 WT7  8263 TIP3 OH2  OT    -0.834000       15.9994           0
   73137 WT7  8263 TIP3 H1   HT     0.417000        1.0080           0
   73138 WT7  8263 TIP3 H2   HT     0.417000        1.0080           0
   73139 WT7  8264 TIP3 OH2  OT    -0.834000       15.9994           0
   73140 WT7  8264 TIP3 H1   HT     0.417000        1.0080           0
   73141 WT7  8264 TIP3 H2   HT     0.417000        1.0080           0
   73142 WT7  8265 TIP3 OH2  OT    -0.834000       15.9994           0
   73143 WT7  8265 TIP3 H1   HT     0.417000        1.0080           0
   73144 WT7  8265 TIP3 H2   HT     0.417000        1.0080           0
   73145 WT7  8266 TIP3 OH2  OT    -0.834000       15.9994           0
   73146 WT7  8266 TIP3 H1   HT     0.417000        1.0080           0
   73147 WT7  8266 TIP3 H2   HT     0.417000        1.0080           0
   73148 WT7  8278 TIP3 OH2  OT    -0.834000       15.9994           0
   73149 WT7  8278 TIP3 H1   HT     0.417000        1.0080           0
   73150 WT7  8278 TIP3 H2   HT     0.417000        1.0080           0
   73151 WT7  8290 TIP3 OH2  OT    -0.834000       15.9994           0
   73152 WT7  8290 TIP3 H1   HT     0.417000        1.0080           0
   73153 WT7  8290 TIP3 H2   HT     0.417000        1.0080           0
   73154 WT7  8308 TIP3 OH2  OT    -0.834000       15.9994           0
   73155 WT7  8308 TIP3 H1   HT     0.417000        1.0080           0
   73156 WT7  8308 TIP3 H2   HT     0.417000        1.0080           0
   73157 WT7  8309 TIP3 OH2  OT    -0.834000       15.9994           0
   73158 WT7  8309 TIP3 H1   HT     0.417000        1.0080           0
   73159 WT7  8309 TIP3 H2   HT     0.417000        1.0080           0
   73160 WT7  8328 TIP3 OH2  OT    -0.834000       15.9994           0
   73161 WT7  8328 TIP3 H1   HT     0.417000        1.0080           0
   73162 WT7  8328 TIP3 H2   HT     0.417000        1.0080           0
   73163 WT7  8351 TIP3 OH2  OT    -0.834000       15.9994           0
   73164 WT7  8351 TIP3 H1   HT     0.417000        1.0080           0
   73165 WT7  8351 TIP3 H2   HT     0.417000        1.0080           0
   73166 WT7  8352 TIP3 OH2  OT    -0.834000       15.9994           0
   73167 WT7  8352 TIP3 H1   HT     0.417000        1.0080           0
   73168 WT7  8352 TIP3 H2   HT     0.417000        1.0080           0
   73169 WT7  8357 TIP3 OH2  OT    -0.834000       15.9994           0
   73170 WT7  8357 TIP3 H1   HT     0.417000        1.0080           0
   73171 WT7  8357 TIP3 H2   HT     0.417000        1.0080           0
   73172 WT7  8361 TIP3 OH2  OT    -0.834000       15.9994           0
   73173 WT7  8361 TIP3 H1   HT     0.417000        1.0080           0
   73174 WT7  8361 TIP3 H2   HT     0.417000        1.0080           0
   73175 WT7  8368 TIP3 OH2  OT    -0.834000       15.9994           0
   73176 WT7  8368 TIP3 H1   HT     0.417000        1.0080           0
   73177 WT7  8368 TIP3 H2   HT     0.417000        1.0080           0
   73178 WT7  8375 TIP3 OH2  OT    -0.834000       15.9994           0
   73179 WT7  8375 TIP3 H1   HT     0.417000        1.0080           0
   73180 WT7  8375 TIP3 H2   HT     0.417000        1.0080           0
   73181 WT7  8376 TIP3 OH2  OT    -0.834000       15.9994           0
   73182 WT7  8376 TIP3 H1   HT     0.417000        1.0080           0
   73183 WT7  8376 TIP3 H2   HT     0.417000        1.0080           0
   73184 WT7  8393 TIP3 OH2  OT    -0.834000       15.9994           0
   73185 WT7  8393 TIP3 H1   HT     0.417000        1.0080           0
   73186 WT7  8393 TIP3 H2   HT     0.417000        1.0080           0
   73187 WT7  8403 TIP3 OH2  OT    -0.834000       15.9994           0
   73188 WT7  8403 TIP3 H1   HT     0.417000        1.0080           0
   73189 WT7  8403 TIP3 H2   HT     0.417000        1.0080           0
   73190 WT7  8408 TIP3 OH2  OT    -0.834000       15.9994           0
   73191 WT7  8408 TIP3 H1   HT     0.417000        1.0080           0
   73192 WT7  8408 TIP3 H2   HT     0.417000        1.0080           0
   73193 WT7  8411 TIP3 OH2  OT    -0.834000       15.9994           0
   73194 WT7  8411 TIP3 H1   HT     0.417000        1.0080           0
   73195 WT7  8411 TIP3 H2   HT     0.417000        1.0080           0
   73196 WT7  8414 TIP3 OH2  OT    -0.834000       15.9994           0
   73197 WT7  8414 TIP3 H1   HT     0.417000        1.0080           0
   73198 WT7  8414 TIP3 H2   HT     0.417000        1.0080           0
   73199 WT7  8415 TIP3 OH2  OT    -0.834000       15.9994           0
   73200 WT7  8415 TIP3 H1   HT     0.417000        1.0080           0
   73201 WT7  8415 TIP3 H2   HT     0.417000        1.0080           0
   73202 WT7  8419 TIP3 OH2  OT    -0.834000       15.9994           0
   73203 WT7  8419 TIP3 H1   HT     0.417000        1.0080           0
   73204 WT7  8419 TIP3 H2   HT     0.417000        1.0080           0
   73205 WT7  8425 TIP3 OH2  OT    -0.834000       15.9994           0
   73206 WT7  8425 TIP3 H1   HT     0.417000        1.0080           0
   73207 WT7  8425 TIP3 H2   HT     0.417000        1.0080           0
   73208 WT7  8440 TIP3 OH2  OT    -0.834000       15.9994           0
   73209 WT7  8440 TIP3 H1   HT     0.417000        1.0080           0
   73210 WT7  8440 TIP3 H2   HT     0.417000        1.0080           0
   73211 WT7  8448 TIP3 OH2  OT    -0.834000       15.9994           0
   73212 WT7  8448 TIP3 H1   HT     0.417000        1.0080           0
   73213 WT7  8448 TIP3 H2   HT     0.417000        1.0080           0
   73214 WT7  8459 TIP3 OH2  OT    -0.834000       15.9994           0
   73215 WT7  8459 TIP3 H1   HT     0.417000        1.0080           0
   73216 WT7  8459 TIP3 H2   HT     0.417000        1.0080           0
   73217 WT7  8466 TIP3 OH2  OT    -0.834000       15.9994           0
   73218 WT7  8466 TIP3 H1   HT     0.417000        1.0080           0
   73219 WT7  8466 TIP3 H2   HT     0.417000        1.0080           0
   73220 WT7  8468 TIP3 OH2  OT    -0.834000       15.9994           0
   73221 WT7  8468 TIP3 H1   HT     0.417000        1.0080           0
   73222 WT7  8468 TIP3 H2   HT     0.417000        1.0080           0
   73223 WT7  8488 TIP3 OH2  OT    -0.834000       15.9994           0
   73224 WT7  8488 TIP3 H1   HT     0.417000        1.0080           0
   73225 WT7  8488 TIP3 H2   HT     0.417000        1.0080           0
   73226 WT7  8492 TIP3 OH2  OT    -0.834000       15.9994           0
   73227 WT7  8492 TIP3 H1   HT     0.417000        1.0080           0
   73228 WT7  8492 TIP3 H2   HT     0.417000        1.0080           0
   73229 WT7  8500 TIP3 OH2  OT    -0.834000       15.9994           0
   73230 WT7  8500 TIP3 H1   HT     0.417000        1.0080           0
   73231 WT7  8500 TIP3 H2   HT     0.417000        1.0080           0
   73232 WT7  8518 TIP3 OH2  OT    -0.834000       15.9994           0
   73233 WT7  8518 TIP3 H1   HT     0.417000        1.0080           0
   73234 WT7  8518 TIP3 H2   HT     0.417000        1.0080           0
   73235 WT7  8520 TIP3 OH2  OT    -0.834000       15.9994           0
   73236 WT7  8520 TIP3 H1   HT     0.417000        1.0080           0
   73237 WT7  8520 TIP3 H2   HT     0.417000        1.0080           0
   73238 WT7  8528 TIP3 OH2  OT    -0.834000       15.9994           0
   73239 WT7  8528 TIP3 H1   HT     0.417000        1.0080           0
   73240 WT7  8528 TIP3 H2   HT     0.417000        1.0080           0
   73241 WT7  8534 TIP3 OH2  OT    -0.834000       15.9994           0
   73242 WT7  8534 TIP3 H1   HT     0.417000        1.0080           0
   73243 WT7  8534 TIP3 H2   HT     0.417000        1.0080           0
   73244 WT7  8536 TIP3 OH2  OT    -0.834000       15.9994           0
   73245 WT7  8536 TIP3 H1   HT     0.417000        1.0080           0
   73246 WT7  8536 TIP3 H2   HT     0.417000        1.0080           0
   73247 WT7  8537 TIP3 OH2  OT    -0.834000       15.9994           0
   73248 WT7  8537 TIP3 H1   HT     0.417000        1.0080           0
   73249 WT7  8537 TIP3 H2   HT     0.417000        1.0080           0
   73250 WT7  8549 TIP3 OH2  OT    -0.834000       15.9994           0
   73251 WT7  8549 TIP3 H1   HT     0.417000        1.0080           0
   73252 WT7  8549 TIP3 H2   HT     0.417000        1.0080           0
   73253 WT7  8551 TIP3 OH2  OT    -0.834000       15.9994           0
   73254 WT7  8551 TIP3 H1   HT     0.417000        1.0080           0
   73255 WT7  8551 TIP3 H2   HT     0.417000        1.0080           0
   73256 WT7  8555 TIP3 OH2  OT    -0.834000       15.9994           0
   73257 WT7  8555 TIP3 H1   HT     0.417000        1.0080           0
   73258 WT7  8555 TIP3 H2   HT     0.417000        1.0080           0
   73259 WT7  8558 TIP3 OH2  OT    -0.834000       15.9994           0
   73260 WT7  8558 TIP3 H1   HT     0.417000        1.0080           0
   73261 WT7  8558 TIP3 H2   HT     0.417000        1.0080           0
   73262 WT7  8560 TIP3 OH2  OT    -0.834000       15.9994           0
   73263 WT7  8560 TIP3 H1   HT     0.417000        1.0080           0
   73264 WT7  8560 TIP3 H2   HT     0.417000        1.0080           0
   73265 WT7  8566 TIP3 OH2  OT    -0.834000       15.9994           0
   73266 WT7  8566 TIP3 H1   HT     0.417000        1.0080           0
   73267 WT7  8566 TIP3 H2   HT     0.417000        1.0080           0
   73268 WT7  8567 TIP3 OH2  OT    -0.834000       15.9994           0
   73269 WT7  8567 TIP3 H1   HT     0.417000        1.0080           0
   73270 WT7  8567 TIP3 H2   HT     0.417000        1.0080           0
   73271 WT7  8570 TIP3 OH2  OT    -0.834000       15.9994           0
   73272 WT7  8570 TIP3 H1   HT     0.417000        1.0080           0
   73273 WT7  8570 TIP3 H2   HT     0.417000        1.0080           0
   73274 WT7  8574 TIP3 OH2  OT    -0.834000       15.9994           0
   73275 WT7  8574 TIP3 H1   HT     0.417000        1.0080           0
   73276 WT7  8574 TIP3 H2   HT     0.417000        1.0080           0
   73277 WT7  8579 TIP3 OH2  OT    -0.834000       15.9994           0
   73278 WT7  8579 TIP3 H1   HT     0.417000        1.0080           0
   73279 WT7  8579 TIP3 H2   HT     0.417000        1.0080           0
   73280 WT7  8585 TIP3 OH2  OT    -0.834000       15.9994           0
   73281 WT7  8585 TIP3 H1   HT     0.417000        1.0080           0
   73282 WT7  8585 TIP3 H2   HT     0.417000        1.0080           0
   73283 WT7  8600 TIP3 OH2  OT    -0.834000       15.9994           0
   73284 WT7  8600 TIP3 H1   HT     0.417000        1.0080           0
   73285 WT7  8600 TIP3 H2   HT     0.417000        1.0080           0
   73286 WT7  8607 TIP3 OH2  OT    -0.834000       15.9994           0
   73287 WT7  8607 TIP3 H1   HT     0.417000        1.0080           0
   73288 WT7  8607 TIP3 H2   HT     0.417000        1.0080           0
   73289 WT7  8608 TIP3 OH2  OT    -0.834000       15.9994           0
   73290 WT7  8608 TIP3 H1   HT     0.417000        1.0080           0
   73291 WT7  8608 TIP3 H2   HT     0.417000        1.0080           0
   73292 WT7  8622 TIP3 OH2  OT    -0.834000       15.9994           0
   73293 WT7  8622 TIP3 H1   HT     0.417000        1.0080           0
   73294 WT7  8622 TIP3 H2   HT     0.417000        1.0080           0
   73295 WT7  8628 TIP3 OH2  OT    -0.834000       15.9994           0
   73296 WT7  8628 TIP3 H1   HT     0.417000        1.0080           0
   73297 WT7  8628 TIP3 H2   HT     0.417000        1.0080           0
   73298 WT7  8645 TIP3 OH2  OT    -0.834000       15.9994           0
   73299 WT7  8645 TIP3 H1   HT     0.417000        1.0080           0
   73300 WT7  8645 TIP3 H2   HT     0.417000        1.0080           0
   73301 WT7  8653 TIP3 OH2  OT    -0.834000       15.9994           0
   73302 WT7  8653 TIP3 H1   HT     0.417000        1.0080           0
   73303 WT7  8653 TIP3 H2   HT     0.417000        1.0080           0
   73304 WT7  8658 TIP3 OH2  OT    -0.834000       15.9994           0
   73305 WT7  8658 TIP3 H1   HT     0.417000        1.0080           0
   73306 WT7  8658 TIP3 H2   HT     0.417000        1.0080           0
   73307 WT7  8661 TIP3 OH2  OT    -0.834000       15.9994           0
   73308 WT7  8661 TIP3 H1   HT     0.417000        1.0080           0
   73309 WT7  8661 TIP3 H2   HT     0.417000        1.0080           0
   73310 WT7  8662 TIP3 OH2  OT    -0.834000       15.9994           0
   73311 WT7  8662 TIP3 H1   HT     0.417000        1.0080           0
   73312 WT7  8662 TIP3 H2   HT     0.417000        1.0080           0
   73313 WT7  8666 TIP3 OH2  OT    -0.834000       15.9994           0
   73314 WT7  8666 TIP3 H1   HT     0.417000        1.0080           0
   73315 WT7  8666 TIP3 H2   HT     0.417000        1.0080           0
   73316 WT7  8675 TIP3 OH2  OT    -0.834000       15.9994           0
   73317 WT7  8675 TIP3 H1   HT     0.417000        1.0080           0
   73318 WT7  8675 TIP3 H2   HT     0.417000        1.0080           0
   73319 WT7  8679 TIP3 OH2  OT    -0.834000       15.9994           0
   73320 WT7  8679 TIP3 H1   HT     0.417000        1.0080           0
   73321 WT7  8679 TIP3 H2   HT     0.417000        1.0080           0
   73322 WT7  8680 TIP3 OH2  OT    -0.834000       15.9994           0
   73323 WT7  8680 TIP3 H1   HT     0.417000        1.0080           0
   73324 WT7  8680 TIP3 H2   HT     0.417000        1.0080           0
   73325 WT7  8683 TIP3 OH2  OT    -0.834000       15.9994           0
   73326 WT7  8683 TIP3 H1   HT     0.417000        1.0080           0
   73327 WT7  8683 TIP3 H2   HT     0.417000        1.0080           0
   73328 WT7  8687 TIP3 OH2  OT    -0.834000       15.9994           0
   73329 WT7  8687 TIP3 H1   HT     0.417000        1.0080           0
   73330 WT7  8687 TIP3 H2   HT     0.417000        1.0080           0
   73331 WT7  8688 TIP3 OH2  OT    -0.834000       15.9994           0
   73332 WT7  8688 TIP3 H1   HT     0.417000        1.0080           0
   73333 WT7  8688 TIP3 H2   HT     0.417000        1.0080           0
   73334 WT7  8690 TIP3 OH2  OT    -0.834000       15.9994           0
   73335 WT7  8690 TIP3 H1   HT     0.417000        1.0080           0
   73336 WT7  8690 TIP3 H2   HT     0.417000        1.0080           0
   73337 WT7  8691 TIP3 OH2  OT    -0.834000       15.9994           0
   73338 WT7  8691 TIP3 H1   HT     0.417000        1.0080           0
   73339 WT7  8691 TIP3 H2   HT     0.417000        1.0080           0
   73340 WT7  8695 TIP3 OH2  OT    -0.834000       15.9994           0
   73341 WT7  8695 TIP3 H1   HT     0.417000        1.0080           0
   73342 WT7  8695 TIP3 H2   HT     0.417000        1.0080           0
   73343 WT7  8699 TIP3 OH2  OT    -0.834000       15.9994           0
   73344 WT7  8699 TIP3 H1   HT     0.417000        1.0080           0
   73345 WT7  8699 TIP3 H2   HT     0.417000        1.0080           0
   73346 WT7  8701 TIP3 OH2  OT    -0.834000       15.9994           0
   73347 WT7  8701 TIP3 H1   HT     0.417000        1.0080           0
   73348 WT7  8701 TIP3 H2   HT     0.417000        1.0080           0
   73349 WT7  8711 TIP3 OH2  OT    -0.834000       15.9994           0
   73350 WT7  8711 TIP3 H1   HT     0.417000        1.0080           0
   73351 WT7  8711 TIP3 H2   HT     0.417000        1.0080           0
   73352 WT7  8713 TIP3 OH2  OT    -0.834000       15.9994           0
   73353 WT7  8713 TIP3 H1   HT     0.417000        1.0080           0
   73354 WT7  8713 TIP3 H2   HT     0.417000        1.0080           0
   73355 WT7  8721 TIP3 OH2  OT    -0.834000       15.9994           0
   73356 WT7  8721 TIP3 H1   HT     0.417000        1.0080           0
   73357 WT7  8721 TIP3 H2   HT     0.417000        1.0080           0
   73358 WT7  8722 TIP3 OH2  OT    -0.834000       15.9994           0
   73359 WT7  8722 TIP3 H1   HT     0.417000        1.0080           0
   73360 WT7  8722 TIP3 H2   HT     0.417000        1.0080           0
   73361 WT7  8723 TIP3 OH2  OT    -0.834000       15.9994           0
   73362 WT7  8723 TIP3 H1   HT     0.417000        1.0080           0
   73363 WT7  8723 TIP3 H2   HT     0.417000        1.0080           0
   73364 WT7  8732 TIP3 OH2  OT    -0.834000       15.9994           0
   73365 WT7  8732 TIP3 H1   HT     0.417000        1.0080           0
   73366 WT7  8732 TIP3 H2   HT     0.417000        1.0080           0
   73367 WT7  8748 TIP3 OH2  OT    -0.834000       15.9994           0
   73368 WT7  8748 TIP3 H1   HT     0.417000        1.0080           0
   73369 WT7  8748 TIP3 H2   HT     0.417000        1.0080           0
   73370 WT7  8774 TIP3 OH2  OT    -0.834000       15.9994           0
   73371 WT7  8774 TIP3 H1   HT     0.417000        1.0080           0
   73372 WT7  8774 TIP3 H2   HT     0.417000        1.0080           0
   73373 WT7  8780 TIP3 OH2  OT    -0.834000       15.9994           0
   73374 WT7  8780 TIP3 H1   HT     0.417000        1.0080           0
   73375 WT7  8780 TIP3 H2   HT     0.417000        1.0080           0
   73376 WT7  8791 TIP3 OH2  OT    -0.834000       15.9994           0
   73377 WT7  8791 TIP3 H1   HT     0.417000        1.0080           0
   73378 WT7  8791 TIP3 H2   HT     0.417000        1.0080           0
   73379 WT7  8794 TIP3 OH2  OT    -0.834000       15.9994           0
   73380 WT7  8794 TIP3 H1   HT     0.417000        1.0080           0
   73381 WT7  8794 TIP3 H2   HT     0.417000        1.0080           0
   73382 WT7  8800 TIP3 OH2  OT    -0.834000       15.9994           0
   73383 WT7  8800 TIP3 H1   HT     0.417000        1.0080           0
   73384 WT7  8800 TIP3 H2   HT     0.417000        1.0080           0
   73385 WT7  8809 TIP3 OH2  OT    -0.834000       15.9994           0
   73386 WT7  8809 TIP3 H1   HT     0.417000        1.0080           0
   73387 WT7  8809 TIP3 H2   HT     0.417000        1.0080           0
   73388 WT7  8824 TIP3 OH2  OT    -0.834000       15.9994           0
   73389 WT7  8824 TIP3 H1   HT     0.417000        1.0080           0
   73390 WT7  8824 TIP3 H2   HT     0.417000        1.0080           0
   73391 WT7  8829 TIP3 OH2  OT    -0.834000       15.9994           0
   73392 WT7  8829 TIP3 H1   HT     0.417000        1.0080           0
   73393 WT7  8829 TIP3 H2   HT     0.417000        1.0080           0
   73394 WT7  8833 TIP3 OH2  OT    -0.834000       15.9994           0
   73395 WT7  8833 TIP3 H1   HT     0.417000        1.0080           0
   73396 WT7  8833 TIP3 H2   HT     0.417000        1.0080           0
   73397 WT7  8836 TIP3 OH2  OT    -0.834000       15.9994           0
   73398 WT7  8836 TIP3 H1   HT     0.417000        1.0080           0
   73399 WT7  8836 TIP3 H2   HT     0.417000        1.0080           0
   73400 WT7  8841 TIP3 OH2  OT    -0.834000       15.9994           0
   73401 WT7  8841 TIP3 H1   HT     0.417000        1.0080           0
   73402 WT7  8841 TIP3 H2   HT     0.417000        1.0080           0
   73403 WT7  8845 TIP3 OH2  OT    -0.834000       15.9994           0
   73404 WT7  8845 TIP3 H1   HT     0.417000        1.0080           0
   73405 WT7  8845 TIP3 H2   HT     0.417000        1.0080           0
   73406 WT7  8851 TIP3 OH2  OT    -0.834000       15.9994           0
   73407 WT7  8851 TIP3 H1   HT     0.417000        1.0080           0
   73408 WT7  8851 TIP3 H2   HT     0.417000        1.0080           0
   73409 WT7  8860 TIP3 OH2  OT    -0.834000       15.9994           0
   73410 WT7  8860 TIP3 H1   HT     0.417000        1.0080           0
   73411 WT7  8860 TIP3 H2   HT     0.417000        1.0080           0
   73412 WT7  8869 TIP3 OH2  OT    -0.834000       15.9994           0
   73413 WT7  8869 TIP3 H1   HT     0.417000        1.0080           0
   73414 WT7  8869 TIP3 H2   HT     0.417000        1.0080           0
   73415 WT7  8870 TIP3 OH2  OT    -0.834000       15.9994           0
   73416 WT7  8870 TIP3 H1   HT     0.417000        1.0080           0
   73417 WT7  8870 TIP3 H2   HT     0.417000        1.0080           0
   73418 WT7  8876 TIP3 OH2  OT    -0.834000       15.9994           0
   73419 WT7  8876 TIP3 H1   HT     0.417000        1.0080           0
   73420 WT7  8876 TIP3 H2   HT     0.417000        1.0080           0
   73421 WT7  8877 TIP3 OH2  OT    -0.834000       15.9994           0
   73422 WT7  8877 TIP3 H1   HT     0.417000        1.0080           0
   73423 WT7  8877 TIP3 H2   HT     0.417000        1.0080           0
   73424 WT7  8879 TIP3 OH2  OT    -0.834000       15.9994           0
   73425 WT7  8879 TIP3 H1   HT     0.417000        1.0080           0
   73426 WT7  8879 TIP3 H2   HT     0.417000        1.0080           0
   73427 WT7  8890 TIP3 OH2  OT    -0.834000       15.9994           0
   73428 WT7  8890 TIP3 H1   HT     0.417000        1.0080           0
   73429 WT7  8890 TIP3 H2   HT     0.417000        1.0080           0
   73430 WT7  8892 TIP3 OH2  OT    -0.834000       15.9994           0
   73431 WT7  8892 TIP3 H1   HT     0.417000        1.0080           0
   73432 WT7  8892 TIP3 H2   HT     0.417000        1.0080           0
   73433 WT7  8893 TIP3 OH2  OT    -0.834000       15.9994           0
   73434 WT7  8893 TIP3 H1   HT     0.417000        1.0080           0
   73435 WT7  8893 TIP3 H2   HT     0.417000        1.0080           0
   73436 WT7  8894 TIP3 OH2  OT    -0.834000       15.9994           0
   73437 WT7  8894 TIP3 H1   HT     0.417000        1.0080           0
   73438 WT7  8894 TIP3 H2   HT     0.417000        1.0080           0
   73439 WT7  8895 TIP3 OH2  OT    -0.834000       15.9994           0
   73440 WT7  8895 TIP3 H1   HT     0.417000        1.0080           0
   73441 WT7  8895 TIP3 H2   HT     0.417000        1.0080           0
   73442 WT7  8902 TIP3 OH2  OT    -0.834000       15.9994           0
   73443 WT7  8902 TIP3 H1   HT     0.417000        1.0080           0
   73444 WT7  8902 TIP3 H2   HT     0.417000        1.0080           0
   73445 WT7  8904 TIP3 OH2  OT    -0.834000       15.9994           0
   73446 WT7  8904 TIP3 H1   HT     0.417000        1.0080           0
   73447 WT7  8904 TIP3 H2   HT     0.417000        1.0080           0
   73448 WT7  8920 TIP3 OH2  OT    -0.834000       15.9994           0
   73449 WT7  8920 TIP3 H1   HT     0.417000        1.0080           0
   73450 WT7  8920 TIP3 H2   HT     0.417000        1.0080           0
   73451 WT7  8927 TIP3 OH2  OT    -0.834000       15.9994           0
   73452 WT7  8927 TIP3 H1   HT     0.417000        1.0080           0
   73453 WT7  8927 TIP3 H2   HT     0.417000        1.0080           0
   73454 WT7  8928 TIP3 OH2  OT    -0.834000       15.9994           0
   73455 WT7  8928 TIP3 H1   HT     0.417000        1.0080           0
   73456 WT7  8928 TIP3 H2   HT     0.417000        1.0080           0
   73457 WT7  8931 TIP3 OH2  OT    -0.834000       15.9994           0
   73458 WT7  8931 TIP3 H1   HT     0.417000        1.0080           0
   73459 WT7  8931 TIP3 H2   HT     0.417000        1.0080           0
   73460 WT7  8937 TIP3 OH2  OT    -0.834000       15.9994           0
   73461 WT7  8937 TIP3 H1   HT     0.417000        1.0080           0
   73462 WT7  8937 TIP3 H2   HT     0.417000        1.0080           0
   73463 WT7  8938 TIP3 OH2  OT    -0.834000       15.9994           0
   73464 WT7  8938 TIP3 H1   HT     0.417000        1.0080           0
   73465 WT7  8938 TIP3 H2   HT     0.417000        1.0080           0
   73466 WT7  8939 TIP3 OH2  OT    -0.834000       15.9994           0
   73467 WT7  8939 TIP3 H1   HT     0.417000        1.0080           0
   73468 WT7  8939 TIP3 H2   HT     0.417000        1.0080           0
   73469 WT7  8942 TIP3 OH2  OT    -0.834000       15.9994           0
   73470 WT7  8942 TIP3 H1   HT     0.417000        1.0080           0
   73471 WT7  8942 TIP3 H2   HT     0.417000        1.0080           0
   73472 WT7  8956 TIP3 OH2  OT    -0.834000       15.9994           0
   73473 WT7  8956 TIP3 H1   HT     0.417000        1.0080           0
   73474 WT7  8956 TIP3 H2   HT     0.417000        1.0080           0
   73475 WT7  8959 TIP3 OH2  OT    -0.834000       15.9994           0
   73476 WT7  8959 TIP3 H1   HT     0.417000        1.0080           0
   73477 WT7  8959 TIP3 H2   HT     0.417000        1.0080           0
   73478 WT7  8960 TIP3 OH2  OT    -0.834000       15.9994           0
   73479 WT7  8960 TIP3 H1   HT     0.417000        1.0080           0
   73480 WT7  8960 TIP3 H2   HT     0.417000        1.0080           0
   73481 WT7  8964 TIP3 OH2  OT    -0.834000       15.9994           0
   73482 WT7  8964 TIP3 H1   HT     0.417000        1.0080           0
   73483 WT7  8964 TIP3 H2   HT     0.417000        1.0080           0
   73484 WT7  8972 TIP3 OH2  OT    -0.834000       15.9994           0
   73485 WT7  8972 TIP3 H1   HT     0.417000        1.0080           0
   73486 WT7  8972 TIP3 H2   HT     0.417000        1.0080           0
   73487 WT7  8973 TIP3 OH2  OT    -0.834000       15.9994           0
   73488 WT7  8973 TIP3 H1   HT     0.417000        1.0080           0
   73489 WT7  8973 TIP3 H2   HT     0.417000        1.0080           0
   73490 WT7  8977 TIP3 OH2  OT    -0.834000       15.9994           0
   73491 WT7  8977 TIP3 H1   HT     0.417000        1.0080           0
   73492 WT7  8977 TIP3 H2   HT     0.417000        1.0080           0
   73493 WT7  8984 TIP3 OH2  OT    -0.834000       15.9994           0
   73494 WT7  8984 TIP3 H1   HT     0.417000        1.0080           0
   73495 WT7  8984 TIP3 H2   HT     0.417000        1.0080           0
   73496 WT7  8988 TIP3 OH2  OT    -0.834000       15.9994           0
   73497 WT7  8988 TIP3 H1   HT     0.417000        1.0080           0
   73498 WT7  8988 TIP3 H2   HT     0.417000        1.0080           0
   73499 WT7  9005 TIP3 OH2  OT    -0.834000       15.9994           0
   73500 WT7  9005 TIP3 H1   HT     0.417000        1.0080           0
   73501 WT7  9005 TIP3 H2   HT     0.417000        1.0080           0
   73502 WT7  9017 TIP3 OH2  OT    -0.834000       15.9994           0
   73503 WT7  9017 TIP3 H1   HT     0.417000        1.0080           0
   73504 WT7  9017 TIP3 H2   HT     0.417000        1.0080           0
   73505 WT7  9022 TIP3 OH2  OT    -0.834000       15.9994           0
   73506 WT7  9022 TIP3 H1   HT     0.417000        1.0080           0
   73507 WT7  9022 TIP3 H2   HT     0.417000        1.0080           0
   73508 WT7  9029 TIP3 OH2  OT    -0.834000       15.9994           0
   73509 WT7  9029 TIP3 H1   HT     0.417000        1.0080           0
   73510 WT7  9029 TIP3 H2   HT     0.417000        1.0080           0
   73511 WT7  9047 TIP3 OH2  OT    -0.834000       15.9994           0
   73512 WT7  9047 TIP3 H1   HT     0.417000        1.0080           0
   73513 WT7  9047 TIP3 H2   HT     0.417000        1.0080           0
   73514 WT7  9049 TIP3 OH2  OT    -0.834000       15.9994           0
   73515 WT7  9049 TIP3 H1   HT     0.417000        1.0080           0
   73516 WT7  9049 TIP3 H2   HT     0.417000        1.0080           0
   73517 WT7  9055 TIP3 OH2  OT    -0.834000       15.9994           0
   73518 WT7  9055 TIP3 H1   HT     0.417000        1.0080           0
   73519 WT7  9055 TIP3 H2   HT     0.417000        1.0080           0
   73520 WT7  9058 TIP3 OH2  OT    -0.834000       15.9994           0
   73521 WT7  9058 TIP3 H1   HT     0.417000        1.0080           0
   73522 WT7  9058 TIP3 H2   HT     0.417000        1.0080           0
   73523 WT7  9063 TIP3 OH2  OT    -0.834000       15.9994           0
   73524 WT7  9063 TIP3 H1   HT     0.417000        1.0080           0
   73525 WT7  9063 TIP3 H2   HT     0.417000        1.0080           0
   73526 WT7  9064 TIP3 OH2  OT    -0.834000       15.9994           0
   73527 WT7  9064 TIP3 H1   HT     0.417000        1.0080           0
   73528 WT7  9064 TIP3 H2   HT     0.417000        1.0080           0
   73529 WT7  9068 TIP3 OH2  OT    -0.834000       15.9994           0
   73530 WT7  9068 TIP3 H1   HT     0.417000        1.0080           0
   73531 WT7  9068 TIP3 H2   HT     0.417000        1.0080           0
   73532 WT7  9073 TIP3 OH2  OT    -0.834000       15.9994           0
   73533 WT7  9073 TIP3 H1   HT     0.417000        1.0080           0
   73534 WT7  9073 TIP3 H2   HT     0.417000        1.0080           0
   73535 WT7  9077 TIP3 OH2  OT    -0.834000       15.9994           0
   73536 WT7  9077 TIP3 H1   HT     0.417000        1.0080           0
   73537 WT7  9077 TIP3 H2   HT     0.417000        1.0080           0
   73538 WT7  9085 TIP3 OH2  OT    -0.834000       15.9994           0
   73539 WT7  9085 TIP3 H1   HT     0.417000        1.0080           0
   73540 WT7  9085 TIP3 H2   HT     0.417000        1.0080           0
   73541 WT7  9091 TIP3 OH2  OT    -0.834000       15.9994           0
   73542 WT7  9091 TIP3 H1   HT     0.417000        1.0080           0
   73543 WT7  9091 TIP3 H2   HT     0.417000        1.0080           0
   73544 WT7  9097 TIP3 OH2  OT    -0.834000       15.9994           0
   73545 WT7  9097 TIP3 H1   HT     0.417000        1.0080           0
   73546 WT7  9097 TIP3 H2   HT     0.417000        1.0080           0
   73547 WT7  9102 TIP3 OH2  OT    -0.834000       15.9994           0
   73548 WT7  9102 TIP3 H1   HT     0.417000        1.0080           0
   73549 WT7  9102 TIP3 H2   HT     0.417000        1.0080           0
   73550 WT7  9115 TIP3 OH2  OT    -0.834000       15.9994           0
   73551 WT7  9115 TIP3 H1   HT     0.417000        1.0080           0
   73552 WT7  9115 TIP3 H2   HT     0.417000        1.0080           0
   73553 WT7  9116 TIP3 OH2  OT    -0.834000       15.9994           0
   73554 WT7  9116 TIP3 H1   HT     0.417000        1.0080           0
   73555 WT7  9116 TIP3 H2   HT     0.417000        1.0080           0
   73556 WT7  9118 TIP3 OH2  OT    -0.834000       15.9994           0
   73557 WT7  9118 TIP3 H1   HT     0.417000        1.0080           0
   73558 WT7  9118 TIP3 H2   HT     0.417000        1.0080           0
   73559 WT7  9124 TIP3 OH2  OT    -0.834000       15.9994           0
   73560 WT7  9124 TIP3 H1   HT     0.417000        1.0080           0
   73561 WT7  9124 TIP3 H2   HT     0.417000        1.0080           0
   73562 WT7  9125 TIP3 OH2  OT    -0.834000       15.9994           0
   73563 WT7  9125 TIP3 H1   HT     0.417000        1.0080           0
   73564 WT7  9125 TIP3 H2   HT     0.417000        1.0080           0
   73565 WT7  9133 TIP3 OH2  OT    -0.834000       15.9994           0
   73566 WT7  9133 TIP3 H1   HT     0.417000        1.0080           0
   73567 WT7  9133 TIP3 H2   HT     0.417000        1.0080           0
   73568 WT7  9143 TIP3 OH2  OT    -0.834000       15.9994           0
   73569 WT7  9143 TIP3 H1   HT     0.417000        1.0080           0
   73570 WT7  9143 TIP3 H2   HT     0.417000        1.0080           0
   73571 WT7  9144 TIP3 OH2  OT    -0.834000       15.9994           0
   73572 WT7  9144 TIP3 H1   HT     0.417000        1.0080           0
   73573 WT7  9144 TIP3 H2   HT     0.417000        1.0080           0
   73574 WT7  9157 TIP3 OH2  OT    -0.834000       15.9994           0
   73575 WT7  9157 TIP3 H1   HT     0.417000        1.0080           0
   73576 WT7  9157 TIP3 H2   HT     0.417000        1.0080           0
   73577 WT7  9158 TIP3 OH2  OT    -0.834000       15.9994           0
   73578 WT7  9158 TIP3 H1   HT     0.417000        1.0080           0
   73579 WT7  9158 TIP3 H2   HT     0.417000        1.0080           0
   73580 WT7  9161 TIP3 OH2  OT    -0.834000       15.9994           0
   73581 WT7  9161 TIP3 H1   HT     0.417000        1.0080           0
   73582 WT7  9161 TIP3 H2   HT     0.417000        1.0080           0
   73583 WT7  9162 TIP3 OH2  OT    -0.834000       15.9994           0
   73584 WT7  9162 TIP3 H1   HT     0.417000        1.0080           0
   73585 WT7  9162 TIP3 H2   HT     0.417000        1.0080           0
   73586 WT7  9171 TIP3 OH2  OT    -0.834000       15.9994           0
   73587 WT7  9171 TIP3 H1   HT     0.417000        1.0080           0
   73588 WT7  9171 TIP3 H2   HT     0.417000        1.0080           0
   73589 WT7  9178 TIP3 OH2  OT    -0.834000       15.9994           0
   73590 WT7  9178 TIP3 H1   HT     0.417000        1.0080           0
   73591 WT7  9178 TIP3 H2   HT     0.417000        1.0080           0
   73592 WT7  9179 TIP3 OH2  OT    -0.834000       15.9994           0
   73593 WT7  9179 TIP3 H1   HT     0.417000        1.0080           0
   73594 WT7  9179 TIP3 H2   HT     0.417000        1.0080           0
   73595 WT7  9182 TIP3 OH2  OT    -0.834000       15.9994           0
   73596 WT7  9182 TIP3 H1   HT     0.417000        1.0080           0
   73597 WT7  9182 TIP3 H2   HT     0.417000        1.0080           0
   73598 WT7  9183 TIP3 OH2  OT    -0.834000       15.9994           0
   73599 WT7  9183 TIP3 H1   HT     0.417000        1.0080           0
   73600 WT7  9183 TIP3 H2   HT     0.417000        1.0080           0
   73601 WT7  9188 TIP3 OH2  OT    -0.834000       15.9994           0
   73602 WT7  9188 TIP3 H1   HT     0.417000        1.0080           0
   73603 WT7  9188 TIP3 H2   HT     0.417000        1.0080           0
   73604 WT7  9189 TIP3 OH2  OT    -0.834000       15.9994           0
   73605 WT7  9189 TIP3 H1   HT     0.417000        1.0080           0
   73606 WT7  9189 TIP3 H2   HT     0.417000        1.0080           0
   73607 WT7  9211 TIP3 OH2  OT    -0.834000       15.9994           0
   73608 WT7  9211 TIP3 H1   HT     0.417000        1.0080           0
   73609 WT7  9211 TIP3 H2   HT     0.417000        1.0080           0
   73610 WT7  9212 TIP3 OH2  OT    -0.834000       15.9994           0
   73611 WT7  9212 TIP3 H1   HT     0.417000        1.0080           0
   73612 WT7  9212 TIP3 H2   HT     0.417000        1.0080           0
   73613 WT7  9218 TIP3 OH2  OT    -0.834000       15.9994           0
   73614 WT7  9218 TIP3 H1   HT     0.417000        1.0080           0
   73615 WT7  9218 TIP3 H2   HT     0.417000        1.0080           0
   73616 WT7  9225 TIP3 OH2  OT    -0.834000       15.9994           0
   73617 WT7  9225 TIP3 H1   HT     0.417000        1.0080           0
   73618 WT7  9225 TIP3 H2   HT     0.417000        1.0080           0
   73619 WT7  9227 TIP3 OH2  OT    -0.834000       15.9994           0
   73620 WT7  9227 TIP3 H1   HT     0.417000        1.0080           0
   73621 WT7  9227 TIP3 H2   HT     0.417000        1.0080           0
   73622 WT7  9228 TIP3 OH2  OT    -0.834000       15.9994           0
   73623 WT7  9228 TIP3 H1   HT     0.417000        1.0080           0
   73624 WT7  9228 TIP3 H2   HT     0.417000        1.0080           0
   73625 WT7  9250 TIP3 OH2  OT    -0.834000       15.9994           0
   73626 WT7  9250 TIP3 H1   HT     0.417000        1.0080           0
   73627 WT7  9250 TIP3 H2   HT     0.417000        1.0080           0
   73628 WT7  9254 TIP3 OH2  OT    -0.834000       15.9994           0
   73629 WT7  9254 TIP3 H1   HT     0.417000        1.0080           0
   73630 WT7  9254 TIP3 H2   HT     0.417000        1.0080           0
   73631 WT8  2    TIP3 OH2  OT    -0.834000       15.9994           0
   73632 WT8  2    TIP3 H1   HT     0.417000        1.0080           0
   73633 WT8  2    TIP3 H2   HT     0.417000        1.0080           0
   73634 WT8  5    TIP3 OH2  OT    -0.834000       15.9994           0
   73635 WT8  5    TIP3 H1   HT     0.417000        1.0080           0
   73636 WT8  5    TIP3 H2   HT     0.417000        1.0080           0
   73637 WT8  14   TIP3 OH2  OT    -0.834000       15.9994           0
   73638 WT8  14   TIP3 H1   HT     0.417000        1.0080           0
   73639 WT8  14   TIP3 H2   HT     0.417000        1.0080           0
   73640 WT8  15   TIP3 OH2  OT    -0.834000       15.9994           0
   73641 WT8  15   TIP3 H1   HT     0.417000        1.0080           0
   73642 WT8  15   TIP3 H2   HT     0.417000        1.0080           0
   73643 WT8  19   TIP3 OH2  OT    -0.834000       15.9994           0
   73644 WT8  19   TIP3 H1   HT     0.417000        1.0080           0
   73645 WT8  19   TIP3 H2   HT     0.417000        1.0080           0
   73646 WT8  21   TIP3 OH2  OT    -0.834000       15.9994           0
   73647 WT8  21   TIP3 H1   HT     0.417000        1.0080           0
   73648 WT8  21   TIP3 H2   HT     0.417000        1.0080           0
   73649 WT8  40   TIP3 OH2  OT    -0.834000       15.9994           0
   73650 WT8  40   TIP3 H1   HT     0.417000        1.0080           0
   73651 WT8  40   TIP3 H2   HT     0.417000        1.0080           0
   73652 WT8  42   TIP3 OH2  OT    -0.834000       15.9994           0
   73653 WT8  42   TIP3 H1   HT     0.417000        1.0080           0
   73654 WT8  42   TIP3 H2   HT     0.417000        1.0080           0
   73655 WT8  48   TIP3 OH2  OT    -0.834000       15.9994           0
   73656 WT8  48   TIP3 H1   HT     0.417000        1.0080           0
   73657 WT8  48   TIP3 H2   HT     0.417000        1.0080           0
   73658 WT8  52   TIP3 OH2  OT    -0.834000       15.9994           0
   73659 WT8  52   TIP3 H1   HT     0.417000        1.0080           0
   73660 WT8  52   TIP3 H2   HT     0.417000        1.0080           0
   73661 WT8  55   TIP3 OH2  OT    -0.834000       15.9994           0
   73662 WT8  55   TIP3 H1   HT     0.417000        1.0080           0
   73663 WT8  55   TIP3 H2   HT     0.417000        1.0080           0
   73664 WT8  61   TIP3 OH2  OT    -0.834000       15.9994           0
   73665 WT8  61   TIP3 H1   HT     0.417000        1.0080           0
   73666 WT8  61   TIP3 H2   HT     0.417000        1.0080           0
   73667 WT8  65   TIP3 OH2  OT    -0.834000       15.9994           0
   73668 WT8  65   TIP3 H1   HT     0.417000        1.0080           0
   73669 WT8  65   TIP3 H2   HT     0.417000        1.0080           0
   73670 WT8  67   TIP3 OH2  OT    -0.834000       15.9994           0
   73671 WT8  67   TIP3 H1   HT     0.417000        1.0080           0
   73672 WT8  67   TIP3 H2   HT     0.417000        1.0080           0
   73673 WT8  77   TIP3 OH2  OT    -0.834000       15.9994           0
   73674 WT8  77   TIP3 H1   HT     0.417000        1.0080           0
   73675 WT8  77   TIP3 H2   HT     0.417000        1.0080           0
   73676 WT8  78   TIP3 OH2  OT    -0.834000       15.9994           0
   73677 WT8  78   TIP3 H1   HT     0.417000        1.0080           0
   73678 WT8  78   TIP3 H2   HT     0.417000        1.0080           0
   73679 WT8  81   TIP3 OH2  OT    -0.834000       15.9994           0
   73680 WT8  81   TIP3 H1   HT     0.417000        1.0080           0
   73681 WT8  81   TIP3 H2   HT     0.417000        1.0080           0
   73682 WT8  88   TIP3 OH2  OT    -0.834000       15.9994           0
   73683 WT8  88   TIP3 H1   HT     0.417000        1.0080           0
   73684 WT8  88   TIP3 H2   HT     0.417000        1.0080           0
   73685 WT8  89   TIP3 OH2  OT    -0.834000       15.9994           0
   73686 WT8  89   TIP3 H1   HT     0.417000        1.0080           0
   73687 WT8  89   TIP3 H2   HT     0.417000        1.0080           0
   73688 WT8  94   TIP3 OH2  OT    -0.834000       15.9994           0
   73689 WT8  94   TIP3 H1   HT     0.417000        1.0080           0
   73690 WT8  94   TIP3 H2   HT     0.417000        1.0080           0
   73691 WT8  95   TIP3 OH2  OT    -0.834000       15.9994           0
   73692 WT8  95   TIP3 H1   HT     0.417000        1.0080           0
   73693 WT8  95   TIP3 H2   HT     0.417000        1.0080           0
   73694 WT8  103  TIP3 OH2  OT    -0.834000       15.9994           0
   73695 WT8  103  TIP3 H1   HT     0.417000        1.0080           0
   73696 WT8  103  TIP3 H2   HT     0.417000        1.0080           0
   73697 WT8  105  TIP3 OH2  OT    -0.834000       15.9994           0
   73698 WT8  105  TIP3 H1   HT     0.417000        1.0080           0
   73699 WT8  105  TIP3 H2   HT     0.417000        1.0080           0
   73700 WT8  108  TIP3 OH2  OT    -0.834000       15.9994           0
   73701 WT8  108  TIP3 H1   HT     0.417000        1.0080           0
   73702 WT8  108  TIP3 H2   HT     0.417000        1.0080           0
   73703 WT8  113  TIP3 OH2  OT    -0.834000       15.9994           0
   73704 WT8  113  TIP3 H1   HT     0.417000        1.0080           0
   73705 WT8  113  TIP3 H2   HT     0.417000        1.0080           0
   73706 WT8  115  TIP3 OH2  OT    -0.834000       15.9994           0
   73707 WT8  115  TIP3 H1   HT     0.417000        1.0080           0
   73708 WT8  115  TIP3 H2   HT     0.417000        1.0080           0
   73709 WT8  122  TIP3 OH2  OT    -0.834000       15.9994           0
   73710 WT8  122  TIP3 H1   HT     0.417000        1.0080           0
   73711 WT8  122  TIP3 H2   HT     0.417000        1.0080           0
   73712 WT8  128  TIP3 OH2  OT    -0.834000       15.9994           0
   73713 WT8  128  TIP3 H1   HT     0.417000        1.0080           0
   73714 WT8  128  TIP3 H2   HT     0.417000        1.0080           0
   73715 WT8  135  TIP3 OH2  OT    -0.834000       15.9994           0
   73716 WT8  135  TIP3 H1   HT     0.417000        1.0080           0
   73717 WT8  135  TIP3 H2   HT     0.417000        1.0080           0
   73718 WT8  137  TIP3 OH2  OT    -0.834000       15.9994           0
   73719 WT8  137  TIP3 H1   HT     0.417000        1.0080           0
   73720 WT8  137  TIP3 H2   HT     0.417000        1.0080           0
   73721 WT8  148  TIP3 OH2  OT    -0.834000       15.9994           0
   73722 WT8  148  TIP3 H1   HT     0.417000        1.0080           0
   73723 WT8  148  TIP3 H2   HT     0.417000        1.0080           0
   73724 WT8  149  TIP3 OH2  OT    -0.834000       15.9994           0
   73725 WT8  149  TIP3 H1   HT     0.417000        1.0080           0
   73726 WT8  149  TIP3 H2   HT     0.417000        1.0080           0
   73727 WT8  150  TIP3 OH2  OT    -0.834000       15.9994           0
   73728 WT8  150  TIP3 H1   HT     0.417000        1.0080           0
   73729 WT8  150  TIP3 H2   HT     0.417000        1.0080           0
   73730 WT8  153  TIP3 OH2  OT    -0.834000       15.9994           0
   73731 WT8  153  TIP3 H1   HT     0.417000        1.0080           0
   73732 WT8  153  TIP3 H2   HT     0.417000        1.0080           0
   73733 WT8  155  TIP3 OH2  OT    -0.834000       15.9994           0
   73734 WT8  155  TIP3 H1   HT     0.417000        1.0080           0
   73735 WT8  155  TIP3 H2   HT     0.417000        1.0080           0
   73736 WT8  167  TIP3 OH2  OT    -0.834000       15.9994           0
   73737 WT8  167  TIP3 H1   HT     0.417000        1.0080           0
   73738 WT8  167  TIP3 H2   HT     0.417000        1.0080           0
   73739 WT8  174  TIP3 OH2  OT    -0.834000       15.9994           0
   73740 WT8  174  TIP3 H1   HT     0.417000        1.0080           0
   73741 WT8  174  TIP3 H2   HT     0.417000        1.0080           0
   73742 WT8  175  TIP3 OH2  OT    -0.834000       15.9994           0
   73743 WT8  175  TIP3 H1   HT     0.417000        1.0080           0
   73744 WT8  175  TIP3 H2   HT     0.417000        1.0080           0
   73745 WT8  177  TIP3 OH2  OT    -0.834000       15.9994           0
   73746 WT8  177  TIP3 H1   HT     0.417000        1.0080           0
   73747 WT8  177  TIP3 H2   HT     0.417000        1.0080           0
   73748 WT8  189  TIP3 OH2  OT    -0.834000       15.9994           0
   73749 WT8  189  TIP3 H1   HT     0.417000        1.0080           0
   73750 WT8  189  TIP3 H2   HT     0.417000        1.0080           0
   73751 WT8  191  TIP3 OH2  OT    -0.834000       15.9994           0
   73752 WT8  191  TIP3 H1   HT     0.417000        1.0080           0
   73753 WT8  191  TIP3 H2   HT     0.417000        1.0080           0
   73754 WT8  194  TIP3 OH2  OT    -0.834000       15.9994           0
   73755 WT8  194  TIP3 H1   HT     0.417000        1.0080           0
   73756 WT8  194  TIP3 H2   HT     0.417000        1.0080           0
   73757 WT8  195  TIP3 OH2  OT    -0.834000       15.9994           0
   73758 WT8  195  TIP3 H1   HT     0.417000        1.0080           0
   73759 WT8  195  TIP3 H2   HT     0.417000        1.0080           0
   73760 WT8  196  TIP3 OH2  OT    -0.834000       15.9994           0
   73761 WT8  196  TIP3 H1   HT     0.417000        1.0080           0
   73762 WT8  196  TIP3 H2   HT     0.417000        1.0080           0
   73763 WT8  198  TIP3 OH2  OT    -0.834000       15.9994           0
   73764 WT8  198  TIP3 H1   HT     0.417000        1.0080           0
   73765 WT8  198  TIP3 H2   HT     0.417000        1.0080           0
   73766 WT8  201  TIP3 OH2  OT    -0.834000       15.9994           0
   73767 WT8  201  TIP3 H1   HT     0.417000        1.0080           0
   73768 WT8  201  TIP3 H2   HT     0.417000        1.0080           0
   73769 WT8  205  TIP3 OH2  OT    -0.834000       15.9994           0
   73770 WT8  205  TIP3 H1   HT     0.417000        1.0080           0
   73771 WT8  205  TIP3 H2   HT     0.417000        1.0080           0
   73772 WT8  207  TIP3 OH2  OT    -0.834000       15.9994           0
   73773 WT8  207  TIP3 H1   HT     0.417000        1.0080           0
   73774 WT8  207  TIP3 H2   HT     0.417000        1.0080           0
   73775 WT8  213  TIP3 OH2  OT    -0.834000       15.9994           0
   73776 WT8  213  TIP3 H1   HT     0.417000        1.0080           0
   73777 WT8  213  TIP3 H2   HT     0.417000        1.0080           0
   73778 WT8  225  TIP3 OH2  OT    -0.834000       15.9994           0
   73779 WT8  225  TIP3 H1   HT     0.417000        1.0080           0
   73780 WT8  225  TIP3 H2   HT     0.417000        1.0080           0
   73781 WT8  227  TIP3 OH2  OT    -0.834000       15.9994           0
   73782 WT8  227  TIP3 H1   HT     0.417000        1.0080           0
   73783 WT8  227  TIP3 H2   HT     0.417000        1.0080           0
   73784 WT8  234  TIP3 OH2  OT    -0.834000       15.9994           0
   73785 WT8  234  TIP3 H1   HT     0.417000        1.0080           0
   73786 WT8  234  TIP3 H2   HT     0.417000        1.0080           0
   73787 WT8  237  TIP3 OH2  OT    -0.834000       15.9994           0
   73788 WT8  237  TIP3 H1   HT     0.417000        1.0080           0
   73789 WT8  237  TIP3 H2   HT     0.417000        1.0080           0
   73790 WT8  248  TIP3 OH2  OT    -0.834000       15.9994           0
   73791 WT8  248  TIP3 H1   HT     0.417000        1.0080           0
   73792 WT8  248  TIP3 H2   HT     0.417000        1.0080           0
   73793 WT8  250  TIP3 OH2  OT    -0.834000       15.9994           0
   73794 WT8  250  TIP3 H1   HT     0.417000        1.0080           0
   73795 WT8  250  TIP3 H2   HT     0.417000        1.0080           0
   73796 WT8  261  TIP3 OH2  OT    -0.834000       15.9994           0
   73797 WT8  261  TIP3 H1   HT     0.417000        1.0080           0
   73798 WT8  261  TIP3 H2   HT     0.417000        1.0080           0
   73799 WT8  267  TIP3 OH2  OT    -0.834000       15.9994           0
   73800 WT8  267  TIP3 H1   HT     0.417000        1.0080           0
   73801 WT8  267  TIP3 H2   HT     0.417000        1.0080           0
   73802 WT8  268  TIP3 OH2  OT    -0.834000       15.9994           0
   73803 WT8  268  TIP3 H1   HT     0.417000        1.0080           0
   73804 WT8  268  TIP3 H2   HT     0.417000        1.0080           0
   73805 WT8  283  TIP3 OH2  OT    -0.834000       15.9994           0
   73806 WT8  283  TIP3 H1   HT     0.417000        1.0080           0
   73807 WT8  283  TIP3 H2   HT     0.417000        1.0080           0
   73808 WT8  292  TIP3 OH2  OT    -0.834000       15.9994           0
   73809 WT8  292  TIP3 H1   HT     0.417000        1.0080           0
   73810 WT8  292  TIP3 H2   HT     0.417000        1.0080           0
   73811 WT8  303  TIP3 OH2  OT    -0.834000       15.9994           0
   73812 WT8  303  TIP3 H1   HT     0.417000        1.0080           0
   73813 WT8  303  TIP3 H2   HT     0.417000        1.0080           0
   73814 WT8  307  TIP3 OH2  OT    -0.834000       15.9994           0
   73815 WT8  307  TIP3 H1   HT     0.417000        1.0080           0
   73816 WT8  307  TIP3 H2   HT     0.417000        1.0080           0
   73817 WT8  309  TIP3 OH2  OT    -0.834000       15.9994           0
   73818 WT8  309  TIP3 H1   HT     0.417000        1.0080           0
   73819 WT8  309  TIP3 H2   HT     0.417000        1.0080           0
   73820 WT8  311  TIP3 OH2  OT    -0.834000       15.9994           0
   73821 WT8  311  TIP3 H1   HT     0.417000        1.0080           0
   73822 WT8  311  TIP3 H2   HT     0.417000        1.0080           0
   73823 WT8  313  TIP3 OH2  OT    -0.834000       15.9994           0
   73824 WT8  313  TIP3 H1   HT     0.417000        1.0080           0
   73825 WT8  313  TIP3 H2   HT     0.417000        1.0080           0
   73826 WT8  314  TIP3 OH2  OT    -0.834000       15.9994           0
   73827 WT8  314  TIP3 H1   HT     0.417000        1.0080           0
   73828 WT8  314  TIP3 H2   HT     0.417000        1.0080           0
   73829 WT8  323  TIP3 OH2  OT    -0.834000       15.9994           0
   73830 WT8  323  TIP3 H1   HT     0.417000        1.0080           0
   73831 WT8  323  TIP3 H2   HT     0.417000        1.0080           0
   73832 WT8  325  TIP3 OH2  OT    -0.834000       15.9994           0
   73833 WT8  325  TIP3 H1   HT     0.417000        1.0080           0
   73834 WT8  325  TIP3 H2   HT     0.417000        1.0080           0
   73835 WT8  326  TIP3 OH2  OT    -0.834000       15.9994           0
   73836 WT8  326  TIP3 H1   HT     0.417000        1.0080           0
   73837 WT8  326  TIP3 H2   HT     0.417000        1.0080           0
   73838 WT8  327  TIP3 OH2  OT    -0.834000       15.9994           0
   73839 WT8  327  TIP3 H1   HT     0.417000        1.0080           0
   73840 WT8  327  TIP3 H2   HT     0.417000        1.0080           0
   73841 WT8  328  TIP3 OH2  OT    -0.834000       15.9994           0
   73842 WT8  328  TIP3 H1   HT     0.417000        1.0080           0
   73843 WT8  328  TIP3 H2   HT     0.417000        1.0080           0
   73844 WT8  329  TIP3 OH2  OT    -0.834000       15.9994           0
   73845 WT8  329  TIP3 H1   HT     0.417000        1.0080           0
   73846 WT8  329  TIP3 H2   HT     0.417000        1.0080           0
   73847 WT8  336  TIP3 OH2  OT    -0.834000       15.9994           0
   73848 WT8  336  TIP3 H1   HT     0.417000        1.0080           0
   73849 WT8  336  TIP3 H2   HT     0.417000        1.0080           0
   73850 WT8  338  TIP3 OH2  OT    -0.834000       15.9994           0
   73851 WT8  338  TIP3 H1   HT     0.417000        1.0080           0
   73852 WT8  338  TIP3 H2   HT     0.417000        1.0080           0
   73853 WT8  344  TIP3 OH2  OT    -0.834000       15.9994           0
   73854 WT8  344  TIP3 H1   HT     0.417000        1.0080           0
   73855 WT8  344  TIP3 H2   HT     0.417000        1.0080           0
   73856 WT8  347  TIP3 OH2  OT    -0.834000       15.9994           0
   73857 WT8  347  TIP3 H1   HT     0.417000        1.0080           0
   73858 WT8  347  TIP3 H2   HT     0.417000        1.0080           0
   73859 WT8  352  TIP3 OH2  OT    -0.834000       15.9994           0
   73860 WT8  352  TIP3 H1   HT     0.417000        1.0080           0
   73861 WT8  352  TIP3 H2   HT     0.417000        1.0080           0
   73862 WT8  359  TIP3 OH2  OT    -0.834000       15.9994           0
   73863 WT8  359  TIP3 H1   HT     0.417000        1.0080           0
   73864 WT8  359  TIP3 H2   HT     0.417000        1.0080           0
   73865 WT8  368  TIP3 OH2  OT    -0.834000       15.9994           0
   73866 WT8  368  TIP3 H1   HT     0.417000        1.0080           0
   73867 WT8  368  TIP3 H2   HT     0.417000        1.0080           0
   73868 WT8  369  TIP3 OH2  OT    -0.834000       15.9994           0
   73869 WT8  369  TIP3 H1   HT     0.417000        1.0080           0
   73870 WT8  369  TIP3 H2   HT     0.417000        1.0080           0
   73871 WT8  371  TIP3 OH2  OT    -0.834000       15.9994           0
   73872 WT8  371  TIP3 H1   HT     0.417000        1.0080           0
   73873 WT8  371  TIP3 H2   HT     0.417000        1.0080           0
   73874 WT8  372  TIP3 OH2  OT    -0.834000       15.9994           0
   73875 WT8  372  TIP3 H1   HT     0.417000        1.0080           0
   73876 WT8  372  TIP3 H2   HT     0.417000        1.0080           0
   73877 WT8  379  TIP3 OH2  OT    -0.834000       15.9994           0
   73878 WT8  379  TIP3 H1   HT     0.417000        1.0080           0
   73879 WT8  379  TIP3 H2   HT     0.417000        1.0080           0
   73880 WT8  384  TIP3 OH2  OT    -0.834000       15.9994           0
   73881 WT8  384  TIP3 H1   HT     0.417000        1.0080           0
   73882 WT8  384  TIP3 H2   HT     0.417000        1.0080           0
   73883 WT8  389  TIP3 OH2  OT    -0.834000       15.9994           0
   73884 WT8  389  TIP3 H1   HT     0.417000        1.0080           0
   73885 WT8  389  TIP3 H2   HT     0.417000        1.0080           0
   73886 WT8  391  TIP3 OH2  OT    -0.834000       15.9994           0
   73887 WT8  391  TIP3 H1   HT     0.417000        1.0080           0
   73888 WT8  391  TIP3 H2   HT     0.417000        1.0080           0
   73889 WT8  399  TIP3 OH2  OT    -0.834000       15.9994           0
   73890 WT8  399  TIP3 H1   HT     0.417000        1.0080           0
   73891 WT8  399  TIP3 H2   HT     0.417000        1.0080           0
   73892 WT8  400  TIP3 OH2  OT    -0.834000       15.9994           0
   73893 WT8  400  TIP3 H1   HT     0.417000        1.0080           0
   73894 WT8  400  TIP3 H2   HT     0.417000        1.0080           0
   73895 WT8  401  TIP3 OH2  OT    -0.834000       15.9994           0
   73896 WT8  401  TIP3 H1   HT     0.417000        1.0080           0
   73897 WT8  401  TIP3 H2   HT     0.417000        1.0080           0
   73898 WT8  409  TIP3 OH2  OT    -0.834000       15.9994           0
   73899 WT8  409  TIP3 H1   HT     0.417000        1.0080           0
   73900 WT8  409  TIP3 H2   HT     0.417000        1.0080           0
   73901 WT8  416  TIP3 OH2  OT    -0.834000       15.9994           0
   73902 WT8  416  TIP3 H1   HT     0.417000        1.0080           0
   73903 WT8  416  TIP3 H2   HT     0.417000        1.0080           0
   73904 WT8  417  TIP3 OH2  OT    -0.834000       15.9994           0
   73905 WT8  417  TIP3 H1   HT     0.417000        1.0080           0
   73906 WT8  417  TIP3 H2   HT     0.417000        1.0080           0
   73907 WT8  418  TIP3 OH2  OT    -0.834000       15.9994           0
   73908 WT8  418  TIP3 H1   HT     0.417000        1.0080           0
   73909 WT8  418  TIP3 H2   HT     0.417000        1.0080           0
   73910 WT8  419  TIP3 OH2  OT    -0.834000       15.9994           0
   73911 WT8  419  TIP3 H1   HT     0.417000        1.0080           0
   73912 WT8  419  TIP3 H2   HT     0.417000        1.0080           0
   73913 WT8  422  TIP3 OH2  OT    -0.834000       15.9994           0
   73914 WT8  422  TIP3 H1   HT     0.417000        1.0080           0
   73915 WT8  422  TIP3 H2   HT     0.417000        1.0080           0
   73916 WT8  425  TIP3 OH2  OT    -0.834000       15.9994           0
   73917 WT8  425  TIP3 H1   HT     0.417000        1.0080           0
   73918 WT8  425  TIP3 H2   HT     0.417000        1.0080           0
   73919 WT8  427  TIP3 OH2  OT    -0.834000       15.9994           0
   73920 WT8  427  TIP3 H1   HT     0.417000        1.0080           0
   73921 WT8  427  TIP3 H2   HT     0.417000        1.0080           0
   73922 WT8  431  TIP3 OH2  OT    -0.834000       15.9994           0
   73923 WT8  431  TIP3 H1   HT     0.417000        1.0080           0
   73924 WT8  431  TIP3 H2   HT     0.417000        1.0080           0
   73925 WT8  433  TIP3 OH2  OT    -0.834000       15.9994           0
   73926 WT8  433  TIP3 H1   HT     0.417000        1.0080           0
   73927 WT8  433  TIP3 H2   HT     0.417000        1.0080           0
   73928 WT8  446  TIP3 OH2  OT    -0.834000       15.9994           0
   73929 WT8  446  TIP3 H1   HT     0.417000        1.0080           0
   73930 WT8  446  TIP3 H2   HT     0.417000        1.0080           0
   73931 WT8  460  TIP3 OH2  OT    -0.834000       15.9994           0
   73932 WT8  460  TIP3 H1   HT     0.417000        1.0080           0
   73933 WT8  460  TIP3 H2   HT     0.417000        1.0080           0
   73934 WT8  462  TIP3 OH2  OT    -0.834000       15.9994           0
   73935 WT8  462  TIP3 H1   HT     0.417000        1.0080           0
   73936 WT8  462  TIP3 H2   HT     0.417000        1.0080           0
   73937 WT8  470  TIP3 OH2  OT    -0.834000       15.9994           0
   73938 WT8  470  TIP3 H1   HT     0.417000        1.0080           0
   73939 WT8  470  TIP3 H2   HT     0.417000        1.0080           0
   73940 WT8  472  TIP3 OH2  OT    -0.834000       15.9994           0
   73941 WT8  472  TIP3 H1   HT     0.417000        1.0080           0
   73942 WT8  472  TIP3 H2   HT     0.417000        1.0080           0
   73943 WT8  481  TIP3 OH2  OT    -0.834000       15.9994           0
   73944 WT8  481  TIP3 H1   HT     0.417000        1.0080           0
   73945 WT8  481  TIP3 H2   HT     0.417000        1.0080           0
   73946 WT8  485  TIP3 OH2  OT    -0.834000       15.9994           0
   73947 WT8  485  TIP3 H1   HT     0.417000        1.0080           0
   73948 WT8  485  TIP3 H2   HT     0.417000        1.0080           0
   73949 WT8  486  TIP3 OH2  OT    -0.834000       15.9994           0
   73950 WT8  486  TIP3 H1   HT     0.417000        1.0080           0
   73951 WT8  486  TIP3 H2   HT     0.417000        1.0080           0
   73952 WT8  489  TIP3 OH2  OT    -0.834000       15.9994           0
   73953 WT8  489  TIP3 H1   HT     0.417000        1.0080           0
   73954 WT8  489  TIP3 H2   HT     0.417000        1.0080           0
   73955 WT8  490  TIP3 OH2  OT    -0.834000       15.9994           0
   73956 WT8  490  TIP3 H1   HT     0.417000        1.0080           0
   73957 WT8  490  TIP3 H2   HT     0.417000        1.0080           0
   73958 WT8  491  TIP3 OH2  OT    -0.834000       15.9994           0
   73959 WT8  491  TIP3 H1   HT     0.417000        1.0080           0
   73960 WT8  491  TIP3 H2   HT     0.417000        1.0080           0
   73961 WT8  494  TIP3 OH2  OT    -0.834000       15.9994           0
   73962 WT8  494  TIP3 H1   HT     0.417000        1.0080           0
   73963 WT8  494  TIP3 H2   HT     0.417000        1.0080           0
   73964 WT8  501  TIP3 OH2  OT    -0.834000       15.9994           0
   73965 WT8  501  TIP3 H1   HT     0.417000        1.0080           0
   73966 WT8  501  TIP3 H2   HT     0.417000        1.0080           0
   73967 WT8  502  TIP3 OH2  OT    -0.834000       15.9994           0
   73968 WT8  502  TIP3 H1   HT     0.417000        1.0080           0
   73969 WT8  502  TIP3 H2   HT     0.417000        1.0080           0
   73970 WT8  503  TIP3 OH2  OT    -0.834000       15.9994           0
   73971 WT8  503  TIP3 H1   HT     0.417000        1.0080           0
   73972 WT8  503  TIP3 H2   HT     0.417000        1.0080           0
   73973 WT8  506  TIP3 OH2  OT    -0.834000       15.9994           0
   73974 WT8  506  TIP3 H1   HT     0.417000        1.0080           0
   73975 WT8  506  TIP3 H2   HT     0.417000        1.0080           0
   73976 WT8  509  TIP3 OH2  OT    -0.834000       15.9994           0
   73977 WT8  509  TIP3 H1   HT     0.417000        1.0080           0
   73978 WT8  509  TIP3 H2   HT     0.417000        1.0080           0
   73979 WT8  511  TIP3 OH2  OT    -0.834000       15.9994           0
   73980 WT8  511  TIP3 H1   HT     0.417000        1.0080           0
   73981 WT8  511  TIP3 H2   HT     0.417000        1.0080           0
   73982 WT8  515  TIP3 OH2  OT    -0.834000       15.9994           0
   73983 WT8  515  TIP3 H1   HT     0.417000        1.0080           0
   73984 WT8  515  TIP3 H2   HT     0.417000        1.0080           0
   73985 WT8  516  TIP3 OH2  OT    -0.834000       15.9994           0
   73986 WT8  516  TIP3 H1   HT     0.417000        1.0080           0
   73987 WT8  516  TIP3 H2   HT     0.417000        1.0080           0
   73988 WT8  520  TIP3 OH2  OT    -0.834000       15.9994           0
   73989 WT8  520  TIP3 H1   HT     0.417000        1.0080           0
   73990 WT8  520  TIP3 H2   HT     0.417000        1.0080           0
   73991 WT8  521  TIP3 OH2  OT    -0.834000       15.9994           0
   73992 WT8  521  TIP3 H1   HT     0.417000        1.0080           0
   73993 WT8  521  TIP3 H2   HT     0.417000        1.0080           0
   73994 WT8  526  TIP3 OH2  OT    -0.834000       15.9994           0
   73995 WT8  526  TIP3 H1   HT     0.417000        1.0080           0
   73996 WT8  526  TIP3 H2   HT     0.417000        1.0080           0
   73997 WT8  533  TIP3 OH2  OT    -0.834000       15.9994           0
   73998 WT8  533  TIP3 H1   HT     0.417000        1.0080           0
   73999 WT8  533  TIP3 H2   HT     0.417000        1.0080           0
   74000 WT8  540  TIP3 OH2  OT    -0.834000       15.9994           0
   74001 WT8  540  TIP3 H1   HT     0.417000        1.0080           0
   74002 WT8  540  TIP3 H2   HT     0.417000        1.0080           0
   74003 WT8  545  TIP3 OH2  OT    -0.834000       15.9994           0
   74004 WT8  545  TIP3 H1   HT     0.417000        1.0080           0
   74005 WT8  545  TIP3 H2   HT     0.417000        1.0080           0
   74006 WT8  548  TIP3 OH2  OT    -0.834000       15.9994           0
   74007 WT8  548  TIP3 H1   HT     0.417000        1.0080           0
   74008 WT8  548  TIP3 H2   HT     0.417000        1.0080           0
   74009 WT8  550  TIP3 OH2  OT    -0.834000       15.9994           0
   74010 WT8  550  TIP3 H1   HT     0.417000        1.0080           0
   74011 WT8  550  TIP3 H2   HT     0.417000        1.0080           0
   74012 WT8  551  TIP3 OH2  OT    -0.834000       15.9994           0
   74013 WT8  551  TIP3 H1   HT     0.417000        1.0080           0
   74014 WT8  551  TIP3 H2   HT     0.417000        1.0080           0
   74015 WT8  553  TIP3 OH2  OT    -0.834000       15.9994           0
   74016 WT8  553  TIP3 H1   HT     0.417000        1.0080           0
   74017 WT8  553  TIP3 H2   HT     0.417000        1.0080           0
   74018 WT8  554  TIP3 OH2  OT    -0.834000       15.9994           0
   74019 WT8  554  TIP3 H1   HT     0.417000        1.0080           0
   74020 WT8  554  TIP3 H2   HT     0.417000        1.0080           0
   74021 WT8  555  TIP3 OH2  OT    -0.834000       15.9994           0
   74022 WT8  555  TIP3 H1   HT     0.417000        1.0080           0
   74023 WT8  555  TIP3 H2   HT     0.417000        1.0080           0
   74024 WT8  556  TIP3 OH2  OT    -0.834000       15.9994           0
   74025 WT8  556  TIP3 H1   HT     0.417000        1.0080           0
   74026 WT8  556  TIP3 H2   HT     0.417000        1.0080           0
   74027 WT8  562  TIP3 OH2  OT    -0.834000       15.9994           0
   74028 WT8  562  TIP3 H1   HT     0.417000        1.0080           0
   74029 WT8  562  TIP3 H2   HT     0.417000        1.0080           0
   74030 WT8  564  TIP3 OH2  OT    -0.834000       15.9994           0
   74031 WT8  564  TIP3 H1   HT     0.417000        1.0080           0
   74032 WT8  564  TIP3 H2   HT     0.417000        1.0080           0
   74033 WT8  566  TIP3 OH2  OT    -0.834000       15.9994           0
   74034 WT8  566  TIP3 H1   HT     0.417000        1.0080           0
   74035 WT8  566  TIP3 H2   HT     0.417000        1.0080           0
   74036 WT8  570  TIP3 OH2  OT    -0.834000       15.9994           0
   74037 WT8  570  TIP3 H1   HT     0.417000        1.0080           0
   74038 WT8  570  TIP3 H2   HT     0.417000        1.0080           0
   74039 WT8  573  TIP3 OH2  OT    -0.834000       15.9994           0
   74040 WT8  573  TIP3 H1   HT     0.417000        1.0080           0
   74041 WT8  573  TIP3 H2   HT     0.417000        1.0080           0
   74042 WT8  576  TIP3 OH2  OT    -0.834000       15.9994           0
   74043 WT8  576  TIP3 H1   HT     0.417000        1.0080           0
   74044 WT8  576  TIP3 H2   HT     0.417000        1.0080           0
   74045 WT8  581  TIP3 OH2  OT    -0.834000       15.9994           0
   74046 WT8  581  TIP3 H1   HT     0.417000        1.0080           0
   74047 WT8  581  TIP3 H2   HT     0.417000        1.0080           0
   74048 WT8  584  TIP3 OH2  OT    -0.834000       15.9994           0
   74049 WT8  584  TIP3 H1   HT     0.417000        1.0080           0
   74050 WT8  584  TIP3 H2   HT     0.417000        1.0080           0
   74051 WT8  591  TIP3 OH2  OT    -0.834000       15.9994           0
   74052 WT8  591  TIP3 H1   HT     0.417000        1.0080           0
   74053 WT8  591  TIP3 H2   HT     0.417000        1.0080           0
   74054 WT8  593  TIP3 OH2  OT    -0.834000       15.9994           0
   74055 WT8  593  TIP3 H1   HT     0.417000        1.0080           0
   74056 WT8  593  TIP3 H2   HT     0.417000        1.0080           0
   74057 WT8  594  TIP3 OH2  OT    -0.834000       15.9994           0
   74058 WT8  594  TIP3 H1   HT     0.417000        1.0080           0
   74059 WT8  594  TIP3 H2   HT     0.417000        1.0080           0
   74060 WT8  599  TIP3 OH2  OT    -0.834000       15.9994           0
   74061 WT8  599  TIP3 H1   HT     0.417000        1.0080           0
   74062 WT8  599  TIP3 H2   HT     0.417000        1.0080           0
   74063 WT8  600  TIP3 OH2  OT    -0.834000       15.9994           0
   74064 WT8  600  TIP3 H1   HT     0.417000        1.0080           0
   74065 WT8  600  TIP3 H2   HT     0.417000        1.0080           0
   74066 WT8  606  TIP3 OH2  OT    -0.834000       15.9994           0
   74067 WT8  606  TIP3 H1   HT     0.417000        1.0080           0
   74068 WT8  606  TIP3 H2   HT     0.417000        1.0080           0
   74069 WT8  610  TIP3 OH2  OT    -0.834000       15.9994           0
   74070 WT8  610  TIP3 H1   HT     0.417000        1.0080           0
   74071 WT8  610  TIP3 H2   HT     0.417000        1.0080           0
   74072 WT8  616  TIP3 OH2  OT    -0.834000       15.9994           0
   74073 WT8  616  TIP3 H1   HT     0.417000        1.0080           0
   74074 WT8  616  TIP3 H2   HT     0.417000        1.0080           0
   74075 WT8  619  TIP3 OH2  OT    -0.834000       15.9994           0
   74076 WT8  619  TIP3 H1   HT     0.417000        1.0080           0
   74077 WT8  619  TIP3 H2   HT     0.417000        1.0080           0
   74078 WT8  626  TIP3 OH2  OT    -0.834000       15.9994           0
   74079 WT8  626  TIP3 H1   HT     0.417000        1.0080           0
   74080 WT8  626  TIP3 H2   HT     0.417000        1.0080           0
   74081 WT8  638  TIP3 OH2  OT    -0.834000       15.9994           0
   74082 WT8  638  TIP3 H1   HT     0.417000        1.0080           0
   74083 WT8  638  TIP3 H2   HT     0.417000        1.0080           0
   74084 WT8  639  TIP3 OH2  OT    -0.834000       15.9994           0
   74085 WT8  639  TIP3 H1   HT     0.417000        1.0080           0
   74086 WT8  639  TIP3 H2   HT     0.417000        1.0080           0
   74087 WT8  649  TIP3 OH2  OT    -0.834000       15.9994           0
   74088 WT8  649  TIP3 H1   HT     0.417000        1.0080           0
   74089 WT8  649  TIP3 H2   HT     0.417000        1.0080           0
   74090 WT8  650  TIP3 OH2  OT    -0.834000       15.9994           0
   74091 WT8  650  TIP3 H1   HT     0.417000        1.0080           0
   74092 WT8  650  TIP3 H2   HT     0.417000        1.0080           0
   74093 WT8  653  TIP3 OH2  OT    -0.834000       15.9994           0
   74094 WT8  653  TIP3 H1   HT     0.417000        1.0080           0
   74095 WT8  653  TIP3 H2   HT     0.417000        1.0080           0
   74096 WT8  662  TIP3 OH2  OT    -0.834000       15.9994           0
   74097 WT8  662  TIP3 H1   HT     0.417000        1.0080           0
   74098 WT8  662  TIP3 H2   HT     0.417000        1.0080           0
   74099 WT8  666  TIP3 OH2  OT    -0.834000       15.9994           0
   74100 WT8  666  TIP3 H1   HT     0.417000        1.0080           0
   74101 WT8  666  TIP3 H2   HT     0.417000        1.0080           0
   74102 WT8  668  TIP3 OH2  OT    -0.834000       15.9994           0
   74103 WT8  668  TIP3 H1   HT     0.417000        1.0080           0
   74104 WT8  668  TIP3 H2   HT     0.417000        1.0080           0
   74105 WT8  671  TIP3 OH2  OT    -0.834000       15.9994           0
   74106 WT8  671  TIP3 H1   HT     0.417000        1.0080           0
   74107 WT8  671  TIP3 H2   HT     0.417000        1.0080           0
   74108 WT8  673  TIP3 OH2  OT    -0.834000       15.9994           0
   74109 WT8  673  TIP3 H1   HT     0.417000        1.0080           0
   74110 WT8  673  TIP3 H2   HT     0.417000        1.0080           0
   74111 WT8  674  TIP3 OH2  OT    -0.834000       15.9994           0
   74112 WT8  674  TIP3 H1   HT     0.417000        1.0080           0
   74113 WT8  674  TIP3 H2   HT     0.417000        1.0080           0
   74114 WT8  677  TIP3 OH2  OT    -0.834000       15.9994           0
   74115 WT8  677  TIP3 H1   HT     0.417000        1.0080           0
   74116 WT8  677  TIP3 H2   HT     0.417000        1.0080           0
   74117 WT8  678  TIP3 OH2  OT    -0.834000       15.9994           0
   74118 WT8  678  TIP3 H1   HT     0.417000        1.0080           0
   74119 WT8  678  TIP3 H2   HT     0.417000        1.0080           0
   74120 WT8  684  TIP3 OH2  OT    -0.834000       15.9994           0
   74121 WT8  684  TIP3 H1   HT     0.417000        1.0080           0
   74122 WT8  684  TIP3 H2   HT     0.417000        1.0080           0
   74123 WT8  688  TIP3 OH2  OT    -0.834000       15.9994           0
   74124 WT8  688  TIP3 H1   HT     0.417000        1.0080           0
   74125 WT8  688  TIP3 H2   HT     0.417000        1.0080           0
   74126 WT8  691  TIP3 OH2  OT    -0.834000       15.9994           0
   74127 WT8  691  TIP3 H1   HT     0.417000        1.0080           0
   74128 WT8  691  TIP3 H2   HT     0.417000        1.0080           0
   74129 WT8  704  TIP3 OH2  OT    -0.834000       15.9994           0
   74130 WT8  704  TIP3 H1   HT     0.417000        1.0080           0
   74131 WT8  704  TIP3 H2   HT     0.417000        1.0080           0
   74132 WT8  707  TIP3 OH2  OT    -0.834000       15.9994           0
   74133 WT8  707  TIP3 H1   HT     0.417000        1.0080           0
   74134 WT8  707  TIP3 H2   HT     0.417000        1.0080           0
   74135 WT8  711  TIP3 OH2  OT    -0.834000       15.9994           0
   74136 WT8  711  TIP3 H1   HT     0.417000        1.0080           0
   74137 WT8  711  TIP3 H2   HT     0.417000        1.0080           0
   74138 WT8  715  TIP3 OH2  OT    -0.834000       15.9994           0
   74139 WT8  715  TIP3 H1   HT     0.417000        1.0080           0
   74140 WT8  715  TIP3 H2   HT     0.417000        1.0080           0
   74141 WT8  717  TIP3 OH2  OT    -0.834000       15.9994           0
   74142 WT8  717  TIP3 H1   HT     0.417000        1.0080           0
   74143 WT8  717  TIP3 H2   HT     0.417000        1.0080           0
   74144 WT8  722  TIP3 OH2  OT    -0.834000       15.9994           0
   74145 WT8  722  TIP3 H1   HT     0.417000        1.0080           0
   74146 WT8  722  TIP3 H2   HT     0.417000        1.0080           0
   74147 WT8  726  TIP3 OH2  OT    -0.834000       15.9994           0
   74148 WT8  726  TIP3 H1   HT     0.417000        1.0080           0
   74149 WT8  726  TIP3 H2   HT     0.417000        1.0080           0
   74150 WT8  733  TIP3 OH2  OT    -0.834000       15.9994           0
   74151 WT8  733  TIP3 H1   HT     0.417000        1.0080           0
   74152 WT8  733  TIP3 H2   HT     0.417000        1.0080           0
   74153 WT8  738  TIP3 OH2  OT    -0.834000       15.9994           0
   74154 WT8  738  TIP3 H1   HT     0.417000        1.0080           0
   74155 WT8  738  TIP3 H2   HT     0.417000        1.0080           0
   74156 WT8  746  TIP3 OH2  OT    -0.834000       15.9994           0
   74157 WT8  746  TIP3 H1   HT     0.417000        1.0080           0
   74158 WT8  746  TIP3 H2   HT     0.417000        1.0080           0
   74159 WT8  753  TIP3 OH2  OT    -0.834000       15.9994           0
   74160 WT8  753  TIP3 H1   HT     0.417000        1.0080           0
   74161 WT8  753  TIP3 H2   HT     0.417000        1.0080           0
   74162 WT8  754  TIP3 OH2  OT    -0.834000       15.9994           0
   74163 WT8  754  TIP3 H1   HT     0.417000        1.0080           0
   74164 WT8  754  TIP3 H2   HT     0.417000        1.0080           0
   74165 WT8  761  TIP3 OH2  OT    -0.834000       15.9994           0
   74166 WT8  761  TIP3 H1   HT     0.417000        1.0080           0
   74167 WT8  761  TIP3 H2   HT     0.417000        1.0080           0
   74168 WT8  766  TIP3 OH2  OT    -0.834000       15.9994           0
   74169 WT8  766  TIP3 H1   HT     0.417000        1.0080           0
   74170 WT8  766  TIP3 H2   HT     0.417000        1.0080           0
   74171 WT8  768  TIP3 OH2  OT    -0.834000       15.9994           0
   74172 WT8  768  TIP3 H1   HT     0.417000        1.0080           0
   74173 WT8  768  TIP3 H2   HT     0.417000        1.0080           0
   74174 WT8  773  TIP3 OH2  OT    -0.834000       15.9994           0
   74175 WT8  773  TIP3 H1   HT     0.417000        1.0080           0
   74176 WT8  773  TIP3 H2   HT     0.417000        1.0080           0
   74177 WT8  778  TIP3 OH2  OT    -0.834000       15.9994           0
   74178 WT8  778  TIP3 H1   HT     0.417000        1.0080           0
   74179 WT8  778  TIP3 H2   HT     0.417000        1.0080           0
   74180 WT8  779  TIP3 OH2  OT    -0.834000       15.9994           0
   74181 WT8  779  TIP3 H1   HT     0.417000        1.0080           0
   74182 WT8  779  TIP3 H2   HT     0.417000        1.0080           0
   74183 WT8  798  TIP3 OH2  OT    -0.834000       15.9994           0
   74184 WT8  798  TIP3 H1   HT     0.417000        1.0080           0
   74185 WT8  798  TIP3 H2   HT     0.417000        1.0080           0
   74186 WT8  807  TIP3 OH2  OT    -0.834000       15.9994           0
   74187 WT8  807  TIP3 H1   HT     0.417000        1.0080           0
   74188 WT8  807  TIP3 H2   HT     0.417000        1.0080           0
   74189 WT8  808  TIP3 OH2  OT    -0.834000       15.9994           0
   74190 WT8  808  TIP3 H1   HT     0.417000        1.0080           0
   74191 WT8  808  TIP3 H2   HT     0.417000        1.0080           0
   74192 WT8  812  TIP3 OH2  OT    -0.834000       15.9994           0
   74193 WT8  812  TIP3 H1   HT     0.417000        1.0080           0
   74194 WT8  812  TIP3 H2   HT     0.417000        1.0080           0
   74195 WT8  818  TIP3 OH2  OT    -0.834000       15.9994           0
   74196 WT8  818  TIP3 H1   HT     0.417000        1.0080           0
   74197 WT8  818  TIP3 H2   HT     0.417000        1.0080           0
   74198 WT8  820  TIP3 OH2  OT    -0.834000       15.9994           0
   74199 WT8  820  TIP3 H1   HT     0.417000        1.0080           0
   74200 WT8  820  TIP3 H2   HT     0.417000        1.0080           0
   74201 WT8  821  TIP3 OH2  OT    -0.834000       15.9994           0
   74202 WT8  821  TIP3 H1   HT     0.417000        1.0080           0
   74203 WT8  821  TIP3 H2   HT     0.417000        1.0080           0
   74204 WT8  824  TIP3 OH2  OT    -0.834000       15.9994           0
   74205 WT8  824  TIP3 H1   HT     0.417000        1.0080           0
   74206 WT8  824  TIP3 H2   HT     0.417000        1.0080           0
   74207 WT8  827  TIP3 OH2  OT    -0.834000       15.9994           0
   74208 WT8  827  TIP3 H1   HT     0.417000        1.0080           0
   74209 WT8  827  TIP3 H2   HT     0.417000        1.0080           0
   74210 WT8  829  TIP3 OH2  OT    -0.834000       15.9994           0
   74211 WT8  829  TIP3 H1   HT     0.417000        1.0080           0
   74212 WT8  829  TIP3 H2   HT     0.417000        1.0080           0
   74213 WT8  831  TIP3 OH2  OT    -0.834000       15.9994           0
   74214 WT8  831  TIP3 H1   HT     0.417000        1.0080           0
   74215 WT8  831  TIP3 H2   HT     0.417000        1.0080           0
   74216 WT8  834  TIP3 OH2  OT    -0.834000       15.9994           0
   74217 WT8  834  TIP3 H1   HT     0.417000        1.0080           0
   74218 WT8  834  TIP3 H2   HT     0.417000        1.0080           0
   74219 WT8  836  TIP3 OH2  OT    -0.834000       15.9994           0
   74220 WT8  836  TIP3 H1   HT     0.417000        1.0080           0
   74221 WT8  836  TIP3 H2   HT     0.417000        1.0080           0
   74222 WT8  839  TIP3 OH2  OT    -0.834000       15.9994           0
   74223 WT8  839  TIP3 H1   HT     0.417000        1.0080           0
   74224 WT8  839  TIP3 H2   HT     0.417000        1.0080           0
   74225 WT8  843  TIP3 OH2  OT    -0.834000       15.9994           0
   74226 WT8  843  TIP3 H1   HT     0.417000        1.0080           0
   74227 WT8  843  TIP3 H2   HT     0.417000        1.0080           0
   74228 WT8  846  TIP3 OH2  OT    -0.834000       15.9994           0
   74229 WT8  846  TIP3 H1   HT     0.417000        1.0080           0
   74230 WT8  846  TIP3 H2   HT     0.417000        1.0080           0
   74231 WT8  849  TIP3 OH2  OT    -0.834000       15.9994           0
   74232 WT8  849  TIP3 H1   HT     0.417000        1.0080           0
   74233 WT8  849  TIP3 H2   HT     0.417000        1.0080           0
   74234 WT8  852  TIP3 OH2  OT    -0.834000       15.9994           0
   74235 WT8  852  TIP3 H1   HT     0.417000        1.0080           0
   74236 WT8  852  TIP3 H2   HT     0.417000        1.0080           0
   74237 WT8  859  TIP3 OH2  OT    -0.834000       15.9994           0
   74238 WT8  859  TIP3 H1   HT     0.417000        1.0080           0
   74239 WT8  859  TIP3 H2   HT     0.417000        1.0080           0
   74240 WT8  860  TIP3 OH2  OT    -0.834000       15.9994           0
   74241 WT8  860  TIP3 H1   HT     0.417000        1.0080           0
   74242 WT8  860  TIP3 H2   HT     0.417000        1.0080           0
   74243 WT8  868  TIP3 OH2  OT    -0.834000       15.9994           0
   74244 WT8  868  TIP3 H1   HT     0.417000        1.0080           0
   74245 WT8  868  TIP3 H2   HT     0.417000        1.0080           0
   74246 WT8  878  TIP3 OH2  OT    -0.834000       15.9994           0
   74247 WT8  878  TIP3 H1   HT     0.417000        1.0080           0
   74248 WT8  878  TIP3 H2   HT     0.417000        1.0080           0
   74249 WT8  880  TIP3 OH2  OT    -0.834000       15.9994           0
   74250 WT8  880  TIP3 H1   HT     0.417000        1.0080           0
   74251 WT8  880  TIP3 H2   HT     0.417000        1.0080           0
   74252 WT8  884  TIP3 OH2  OT    -0.834000       15.9994           0
   74253 WT8  884  TIP3 H1   HT     0.417000        1.0080           0
   74254 WT8  884  TIP3 H2   HT     0.417000        1.0080           0
   74255 WT8  889  TIP3 OH2  OT    -0.834000       15.9994           0
   74256 WT8  889  TIP3 H1   HT     0.417000        1.0080           0
   74257 WT8  889  TIP3 H2   HT     0.417000        1.0080           0
   74258 WT8  892  TIP3 OH2  OT    -0.834000       15.9994           0
   74259 WT8  892  TIP3 H1   HT     0.417000        1.0080           0
   74260 WT8  892  TIP3 H2   HT     0.417000        1.0080           0
   74261 WT8  895  TIP3 OH2  OT    -0.834000       15.9994           0
   74262 WT8  895  TIP3 H1   HT     0.417000        1.0080           0
   74263 WT8  895  TIP3 H2   HT     0.417000        1.0080           0
   74264 WT8  898  TIP3 OH2  OT    -0.834000       15.9994           0
   74265 WT8  898  TIP3 H1   HT     0.417000        1.0080           0
   74266 WT8  898  TIP3 H2   HT     0.417000        1.0080           0
   74267 WT8  901  TIP3 OH2  OT    -0.834000       15.9994           0
   74268 WT8  901  TIP3 H1   HT     0.417000        1.0080           0
   74269 WT8  901  TIP3 H2   HT     0.417000        1.0080           0
   74270 WT8  908  TIP3 OH2  OT    -0.834000       15.9994           0
   74271 WT8  908  TIP3 H1   HT     0.417000        1.0080           0
   74272 WT8  908  TIP3 H2   HT     0.417000        1.0080           0
   74273 WT8  919  TIP3 OH2  OT    -0.834000       15.9994           0
   74274 WT8  919  TIP3 H1   HT     0.417000        1.0080           0
   74275 WT8  919  TIP3 H2   HT     0.417000        1.0080           0
   74276 WT8  922  TIP3 OH2  OT    -0.834000       15.9994           0
   74277 WT8  922  TIP3 H1   HT     0.417000        1.0080           0
   74278 WT8  922  TIP3 H2   HT     0.417000        1.0080           0
   74279 WT8  930  TIP3 OH2  OT    -0.834000       15.9994           0
   74280 WT8  930  TIP3 H1   HT     0.417000        1.0080           0
   74281 WT8  930  TIP3 H2   HT     0.417000        1.0080           0
   74282 WT8  934  TIP3 OH2  OT    -0.834000       15.9994           0
   74283 WT8  934  TIP3 H1   HT     0.417000        1.0080           0
   74284 WT8  934  TIP3 H2   HT     0.417000        1.0080           0
   74285 WT8  935  TIP3 OH2  OT    -0.834000       15.9994           0
   74286 WT8  935  TIP3 H1   HT     0.417000        1.0080           0
   74287 WT8  935  TIP3 H2   HT     0.417000        1.0080           0
   74288 WT8  936  TIP3 OH2  OT    -0.834000       15.9994           0
   74289 WT8  936  TIP3 H1   HT     0.417000        1.0080           0
   74290 WT8  936  TIP3 H2   HT     0.417000        1.0080           0
   74291 WT8  940  TIP3 OH2  OT    -0.834000       15.9994           0
   74292 WT8  940  TIP3 H1   HT     0.417000        1.0080           0
   74293 WT8  940  TIP3 H2   HT     0.417000        1.0080           0
   74294 WT8  944  TIP3 OH2  OT    -0.834000       15.9994           0
   74295 WT8  944  TIP3 H1   HT     0.417000        1.0080           0
   74296 WT8  944  TIP3 H2   HT     0.417000        1.0080           0
   74297 WT8  949  TIP3 OH2  OT    -0.834000       15.9994           0
   74298 WT8  949  TIP3 H1   HT     0.417000        1.0080           0
   74299 WT8  949  TIP3 H2   HT     0.417000        1.0080           0
   74300 WT8  954  TIP3 OH2  OT    -0.834000       15.9994           0
   74301 WT8  954  TIP3 H1   HT     0.417000        1.0080           0
   74302 WT8  954  TIP3 H2   HT     0.417000        1.0080           0
   74303 WT8  958  TIP3 OH2  OT    -0.834000       15.9994           0
   74304 WT8  958  TIP3 H1   HT     0.417000        1.0080           0
   74305 WT8  958  TIP3 H2   HT     0.417000        1.0080           0
   74306 WT8  959  TIP3 OH2  OT    -0.834000       15.9994           0
   74307 WT8  959  TIP3 H1   HT     0.417000        1.0080           0
   74308 WT8  959  TIP3 H2   HT     0.417000        1.0080           0
   74309 WT8  960  TIP3 OH2  OT    -0.834000       15.9994           0
   74310 WT8  960  TIP3 H1   HT     0.417000        1.0080           0
   74311 WT8  960  TIP3 H2   HT     0.417000        1.0080           0
   74312 WT8  969  TIP3 OH2  OT    -0.834000       15.9994           0
   74313 WT8  969  TIP3 H1   HT     0.417000        1.0080           0
   74314 WT8  969  TIP3 H2   HT     0.417000        1.0080           0
   74315 WT8  978  TIP3 OH2  OT    -0.834000       15.9994           0
   74316 WT8  978  TIP3 H1   HT     0.417000        1.0080           0
   74317 WT8  978  TIP3 H2   HT     0.417000        1.0080           0
   74318 WT8  981  TIP3 OH2  OT    -0.834000       15.9994           0
   74319 WT8  981  TIP3 H1   HT     0.417000        1.0080           0
   74320 WT8  981  TIP3 H2   HT     0.417000        1.0080           0
   74321 WT8  982  TIP3 OH2  OT    -0.834000       15.9994           0
   74322 WT8  982  TIP3 H1   HT     0.417000        1.0080           0
   74323 WT8  982  TIP3 H2   HT     0.417000        1.0080           0
   74324 WT8  983  TIP3 OH2  OT    -0.834000       15.9994           0
   74325 WT8  983  TIP3 H1   HT     0.417000        1.0080           0
   74326 WT8  983  TIP3 H2   HT     0.417000        1.0080           0
   74327 WT8  987  TIP3 OH2  OT    -0.834000       15.9994           0
   74328 WT8  987  TIP3 H1   HT     0.417000        1.0080           0
   74329 WT8  987  TIP3 H2   HT     0.417000        1.0080           0
   74330 WT8  996  TIP3 OH2  OT    -0.834000       15.9994           0
   74331 WT8  996  TIP3 H1   HT     0.417000        1.0080           0
   74332 WT8  996  TIP3 H2   HT     0.417000        1.0080           0
   74333 WT8  999  TIP3 OH2  OT    -0.834000       15.9994           0
   74334 WT8  999  TIP3 H1   HT     0.417000        1.0080           0
   74335 WT8  999  TIP3 H2   HT     0.417000        1.0080           0
   74336 WT8  1011 TIP3 OH2  OT    -0.834000       15.9994           0
   74337 WT8  1011 TIP3 H1   HT     0.417000        1.0080           0
   74338 WT8  1011 TIP3 H2   HT     0.417000        1.0080           0
   74339 WT8  1013 TIP3 OH2  OT    -0.834000       15.9994           0
   74340 WT8  1013 TIP3 H1   HT     0.417000        1.0080           0
   74341 WT8  1013 TIP3 H2   HT     0.417000        1.0080           0
   74342 WT8  1018 TIP3 OH2  OT    -0.834000       15.9994           0
   74343 WT8  1018 TIP3 H1   HT     0.417000        1.0080           0
   74344 WT8  1018 TIP3 H2   HT     0.417000        1.0080           0
   74345 WT8  1019 TIP3 OH2  OT    -0.834000       15.9994           0
   74346 WT8  1019 TIP3 H1   HT     0.417000        1.0080           0
   74347 WT8  1019 TIP3 H2   HT     0.417000        1.0080           0
   74348 WT8  1025 TIP3 OH2  OT    -0.834000       15.9994           0
   74349 WT8  1025 TIP3 H1   HT     0.417000        1.0080           0
   74350 WT8  1025 TIP3 H2   HT     0.417000        1.0080           0
   74351 WT8  1043 TIP3 OH2  OT    -0.834000       15.9994           0
   74352 WT8  1043 TIP3 H1   HT     0.417000        1.0080           0
   74353 WT8  1043 TIP3 H2   HT     0.417000        1.0080           0
   74354 WT8  1045 TIP3 OH2  OT    -0.834000       15.9994           0
   74355 WT8  1045 TIP3 H1   HT     0.417000        1.0080           0
   74356 WT8  1045 TIP3 H2   HT     0.417000        1.0080           0
   74357 WT8  1047 TIP3 OH2  OT    -0.834000       15.9994           0
   74358 WT8  1047 TIP3 H1   HT     0.417000        1.0080           0
   74359 WT8  1047 TIP3 H2   HT     0.417000        1.0080           0
   74360 WT8  1048 TIP3 OH2  OT    -0.834000       15.9994           0
   74361 WT8  1048 TIP3 H1   HT     0.417000        1.0080           0
   74362 WT8  1048 TIP3 H2   HT     0.417000        1.0080           0
   74363 WT8  1052 TIP3 OH2  OT    -0.834000       15.9994           0
   74364 WT8  1052 TIP3 H1   HT     0.417000        1.0080           0
   74365 WT8  1052 TIP3 H2   HT     0.417000        1.0080           0
   74366 WT8  1061 TIP3 OH2  OT    -0.834000       15.9994           0
   74367 WT8  1061 TIP3 H1   HT     0.417000        1.0080           0
   74368 WT8  1061 TIP3 H2   HT     0.417000        1.0080           0
   74369 WT8  1066 TIP3 OH2  OT    -0.834000       15.9994           0
   74370 WT8  1066 TIP3 H1   HT     0.417000        1.0080           0
   74371 WT8  1066 TIP3 H2   HT     0.417000        1.0080           0
   74372 WT8  1071 TIP3 OH2  OT    -0.834000       15.9994           0
   74373 WT8  1071 TIP3 H1   HT     0.417000        1.0080           0
   74374 WT8  1071 TIP3 H2   HT     0.417000        1.0080           0
   74375 WT8  1076 TIP3 OH2  OT    -0.834000       15.9994           0
   74376 WT8  1076 TIP3 H1   HT     0.417000        1.0080           0
   74377 WT8  1076 TIP3 H2   HT     0.417000        1.0080           0
   74378 WT8  1077 TIP3 OH2  OT    -0.834000       15.9994           0
   74379 WT8  1077 TIP3 H1   HT     0.417000        1.0080           0
   74380 WT8  1077 TIP3 H2   HT     0.417000        1.0080           0
   74381 WT8  1080 TIP3 OH2  OT    -0.834000       15.9994           0
   74382 WT8  1080 TIP3 H1   HT     0.417000        1.0080           0
   74383 WT8  1080 TIP3 H2   HT     0.417000        1.0080           0
   74384 WT8  1098 TIP3 OH2  OT    -0.834000       15.9994           0
   74385 WT8  1098 TIP3 H1   HT     0.417000        1.0080           0
   74386 WT8  1098 TIP3 H2   HT     0.417000        1.0080           0
   74387 WT8  1104 TIP3 OH2  OT    -0.834000       15.9994           0
   74388 WT8  1104 TIP3 H1   HT     0.417000        1.0080           0
   74389 WT8  1104 TIP3 H2   HT     0.417000        1.0080           0
   74390 WT8  1111 TIP3 OH2  OT    -0.834000       15.9994           0
   74391 WT8  1111 TIP3 H1   HT     0.417000        1.0080           0
   74392 WT8  1111 TIP3 H2   HT     0.417000        1.0080           0
   74393 WT8  1122 TIP3 OH2  OT    -0.834000       15.9994           0
   74394 WT8  1122 TIP3 H1   HT     0.417000        1.0080           0
   74395 WT8  1122 TIP3 H2   HT     0.417000        1.0080           0
   74396 WT8  1125 TIP3 OH2  OT    -0.834000       15.9994           0
   74397 WT8  1125 TIP3 H1   HT     0.417000        1.0080           0
   74398 WT8  1125 TIP3 H2   HT     0.417000        1.0080           0
   74399 WT8  1138 TIP3 OH2  OT    -0.834000       15.9994           0
   74400 WT8  1138 TIP3 H1   HT     0.417000        1.0080           0
   74401 WT8  1138 TIP3 H2   HT     0.417000        1.0080           0
   74402 WT8  1153 TIP3 OH2  OT    -0.834000       15.9994           0
   74403 WT8  1153 TIP3 H1   HT     0.417000        1.0080           0
   74404 WT8  1153 TIP3 H2   HT     0.417000        1.0080           0
   74405 WT8  1163 TIP3 OH2  OT    -0.834000       15.9994           0
   74406 WT8  1163 TIP3 H1   HT     0.417000        1.0080           0
   74407 WT8  1163 TIP3 H2   HT     0.417000        1.0080           0
   74408 WT8  1167 TIP3 OH2  OT    -0.834000       15.9994           0
   74409 WT8  1167 TIP3 H1   HT     0.417000        1.0080           0
   74410 WT8  1167 TIP3 H2   HT     0.417000        1.0080           0
   74411 WT8  1168 TIP3 OH2  OT    -0.834000       15.9994           0
   74412 WT8  1168 TIP3 H1   HT     0.417000        1.0080           0
   74413 WT8  1168 TIP3 H2   HT     0.417000        1.0080           0
   74414 WT8  1170 TIP3 OH2  OT    -0.834000       15.9994           0
   74415 WT8  1170 TIP3 H1   HT     0.417000        1.0080           0
   74416 WT8  1170 TIP3 H2   HT     0.417000        1.0080           0
   74417 WT8  1173 TIP3 OH2  OT    -0.834000       15.9994           0
   74418 WT8  1173 TIP3 H1   HT     0.417000        1.0080           0
   74419 WT8  1173 TIP3 H2   HT     0.417000        1.0080           0
   74420 WT8  1186 TIP3 OH2  OT    -0.834000       15.9994           0
   74421 WT8  1186 TIP3 H1   HT     0.417000        1.0080           0
   74422 WT8  1186 TIP3 H2   HT     0.417000        1.0080           0
   74423 WT8  1192 TIP3 OH2  OT    -0.834000       15.9994           0
   74424 WT8  1192 TIP3 H1   HT     0.417000        1.0080           0
   74425 WT8  1192 TIP3 H2   HT     0.417000        1.0080           0
   74426 WT8  1194 TIP3 OH2  OT    -0.834000       15.9994           0
   74427 WT8  1194 TIP3 H1   HT     0.417000        1.0080           0
   74428 WT8  1194 TIP3 H2   HT     0.417000        1.0080           0
   74429 WT8  1201 TIP3 OH2  OT    -0.834000       15.9994           0
   74430 WT8  1201 TIP3 H1   HT     0.417000        1.0080           0
   74431 WT8  1201 TIP3 H2   HT     0.417000        1.0080           0
   74432 WT8  1204 TIP3 OH2  OT    -0.834000       15.9994           0
   74433 WT8  1204 TIP3 H1   HT     0.417000        1.0080           0
   74434 WT8  1204 TIP3 H2   HT     0.417000        1.0080           0
   74435 WT8  1206 TIP3 OH2  OT    -0.834000       15.9994           0
   74436 WT8  1206 TIP3 H1   HT     0.417000        1.0080           0
   74437 WT8  1206 TIP3 H2   HT     0.417000        1.0080           0
   74438 WT8  1207 TIP3 OH2  OT    -0.834000       15.9994           0
   74439 WT8  1207 TIP3 H1   HT     0.417000        1.0080           0
   74440 WT8  1207 TIP3 H2   HT     0.417000        1.0080           0
   74441 WT8  1209 TIP3 OH2  OT    -0.834000       15.9994           0
   74442 WT8  1209 TIP3 H1   HT     0.417000        1.0080           0
   74443 WT8  1209 TIP3 H2   HT     0.417000        1.0080           0
   74444 WT8  1213 TIP3 OH2  OT    -0.834000       15.9994           0
   74445 WT8  1213 TIP3 H1   HT     0.417000        1.0080           0
   74446 WT8  1213 TIP3 H2   HT     0.417000        1.0080           0
   74447 WT8  1216 TIP3 OH2  OT    -0.834000       15.9994           0
   74448 WT8  1216 TIP3 H1   HT     0.417000        1.0080           0
   74449 WT8  1216 TIP3 H2   HT     0.417000        1.0080           0
   74450 WT8  1217 TIP3 OH2  OT    -0.834000       15.9994           0
   74451 WT8  1217 TIP3 H1   HT     0.417000        1.0080           0
   74452 WT8  1217 TIP3 H2   HT     0.417000        1.0080           0
   74453 WT8  1235 TIP3 OH2  OT    -0.834000       15.9994           0
   74454 WT8  1235 TIP3 H1   HT     0.417000        1.0080           0
   74455 WT8  1235 TIP3 H2   HT     0.417000        1.0080           0
   74456 WT8  1240 TIP3 OH2  OT    -0.834000       15.9994           0
   74457 WT8  1240 TIP3 H1   HT     0.417000        1.0080           0
   74458 WT8  1240 TIP3 H2   HT     0.417000        1.0080           0
   74459 WT8  1248 TIP3 OH2  OT    -0.834000       15.9994           0
   74460 WT8  1248 TIP3 H1   HT     0.417000        1.0080           0
   74461 WT8  1248 TIP3 H2   HT     0.417000        1.0080           0
   74462 WT8  1249 TIP3 OH2  OT    -0.834000       15.9994           0
   74463 WT8  1249 TIP3 H1   HT     0.417000        1.0080           0
   74464 WT8  1249 TIP3 H2   HT     0.417000        1.0080           0
   74465 WT8  1257 TIP3 OH2  OT    -0.834000       15.9994           0
   74466 WT8  1257 TIP3 H1   HT     0.417000        1.0080           0
   74467 WT8  1257 TIP3 H2   HT     0.417000        1.0080           0
   74468 WT8  1258 TIP3 OH2  OT    -0.834000       15.9994           0
   74469 WT8  1258 TIP3 H1   HT     0.417000        1.0080           0
   74470 WT8  1258 TIP3 H2   HT     0.417000        1.0080           0
   74471 WT8  1264 TIP3 OH2  OT    -0.834000       15.9994           0
   74472 WT8  1264 TIP3 H1   HT     0.417000        1.0080           0
   74473 WT8  1264 TIP3 H2   HT     0.417000        1.0080           0
   74474 WT8  1269 TIP3 OH2  OT    -0.834000       15.9994           0
   74475 WT8  1269 TIP3 H1   HT     0.417000        1.0080           0
   74476 WT8  1269 TIP3 H2   HT     0.417000        1.0080           0
   74477 WT8  1273 TIP3 OH2  OT    -0.834000       15.9994           0
   74478 WT8  1273 TIP3 H1   HT     0.417000        1.0080           0
   74479 WT8  1273 TIP3 H2   HT     0.417000        1.0080           0
   74480 WT8  1275 TIP3 OH2  OT    -0.834000       15.9994           0
   74481 WT8  1275 TIP3 H1   HT     0.417000        1.0080           0
   74482 WT8  1275 TIP3 H2   HT     0.417000        1.0080           0
   74483 WT8  1277 TIP3 OH2  OT    -0.834000       15.9994           0
   74484 WT8  1277 TIP3 H1   HT     0.417000        1.0080           0
   74485 WT8  1277 TIP3 H2   HT     0.417000        1.0080           0
   74486 WT8  1278 TIP3 OH2  OT    -0.834000       15.9994           0
   74487 WT8  1278 TIP3 H1   HT     0.417000        1.0080           0
   74488 WT8  1278 TIP3 H2   HT     0.417000        1.0080           0
   74489 WT8  1281 TIP3 OH2  OT    -0.834000       15.9994           0
   74490 WT8  1281 TIP3 H1   HT     0.417000        1.0080           0
   74491 WT8  1281 TIP3 H2   HT     0.417000        1.0080           0
   74492 WT8  1285 TIP3 OH2  OT    -0.834000       15.9994           0
   74493 WT8  1285 TIP3 H1   HT     0.417000        1.0080           0
   74494 WT8  1285 TIP3 H2   HT     0.417000        1.0080           0
   74495 WT8  1287 TIP3 OH2  OT    -0.834000       15.9994           0
   74496 WT8  1287 TIP3 H1   HT     0.417000        1.0080           0
   74497 WT8  1287 TIP3 H2   HT     0.417000        1.0080           0
   74498 WT8  1295 TIP3 OH2  OT    -0.834000       15.9994           0
   74499 WT8  1295 TIP3 H1   HT     0.417000        1.0080           0
   74500 WT8  1295 TIP3 H2   HT     0.417000        1.0080           0
   74501 WT8  1303 TIP3 OH2  OT    -0.834000       15.9994           0
   74502 WT8  1303 TIP3 H1   HT     0.417000        1.0080           0
   74503 WT8  1303 TIP3 H2   HT     0.417000        1.0080           0
   74504 WT8  1312 TIP3 OH2  OT    -0.834000       15.9994           0
   74505 WT8  1312 TIP3 H1   HT     0.417000        1.0080           0
   74506 WT8  1312 TIP3 H2   HT     0.417000        1.0080           0
   74507 WT8  1315 TIP3 OH2  OT    -0.834000       15.9994           0
   74508 WT8  1315 TIP3 H1   HT     0.417000        1.0080           0
   74509 WT8  1315 TIP3 H2   HT     0.417000        1.0080           0
   74510 WT8  1336 TIP3 OH2  OT    -0.834000       15.9994           0
   74511 WT8  1336 TIP3 H1   HT     0.417000        1.0080           0
   74512 WT8  1336 TIP3 H2   HT     0.417000        1.0080           0
   74513 WT8  1345 TIP3 OH2  OT    -0.834000       15.9994           0
   74514 WT8  1345 TIP3 H1   HT     0.417000        1.0080           0
   74515 WT8  1345 TIP3 H2   HT     0.417000        1.0080           0
   74516 WT8  1354 TIP3 OH2  OT    -0.834000       15.9994           0
   74517 WT8  1354 TIP3 H1   HT     0.417000        1.0080           0
   74518 WT8  1354 TIP3 H2   HT     0.417000        1.0080           0
   74519 WT8  1356 TIP3 OH2  OT    -0.834000       15.9994           0
   74520 WT8  1356 TIP3 H1   HT     0.417000        1.0080           0
   74521 WT8  1356 TIP3 H2   HT     0.417000        1.0080           0
   74522 WT8  1358 TIP3 OH2  OT    -0.834000       15.9994           0
   74523 WT8  1358 TIP3 H1   HT     0.417000        1.0080           0
   74524 WT8  1358 TIP3 H2   HT     0.417000        1.0080           0
   74525 WT8  1366 TIP3 OH2  OT    -0.834000       15.9994           0
   74526 WT8  1366 TIP3 H1   HT     0.417000        1.0080           0
   74527 WT8  1366 TIP3 H2   HT     0.417000        1.0080           0
   74528 WT8  1370 TIP3 OH2  OT    -0.834000       15.9994           0
   74529 WT8  1370 TIP3 H1   HT     0.417000        1.0080           0
   74530 WT8  1370 TIP3 H2   HT     0.417000        1.0080           0
   74531 WT8  1372 TIP3 OH2  OT    -0.834000       15.9994           0
   74532 WT8  1372 TIP3 H1   HT     0.417000        1.0080           0
   74533 WT8  1372 TIP3 H2   HT     0.417000        1.0080           0
   74534 WT8  1373 TIP3 OH2  OT    -0.834000       15.9994           0
   74535 WT8  1373 TIP3 H1   HT     0.417000        1.0080           0
   74536 WT8  1373 TIP3 H2   HT     0.417000        1.0080           0
   74537 WT8  1381 TIP3 OH2  OT    -0.834000       15.9994           0
   74538 WT8  1381 TIP3 H1   HT     0.417000        1.0080           0
   74539 WT8  1381 TIP3 H2   HT     0.417000        1.0080           0
   74540 WT8  1383 TIP3 OH2  OT    -0.834000       15.9994           0
   74541 WT8  1383 TIP3 H1   HT     0.417000        1.0080           0
   74542 WT8  1383 TIP3 H2   HT     0.417000        1.0080           0
   74543 WT8  1387 TIP3 OH2  OT    -0.834000       15.9994           0
   74544 WT8  1387 TIP3 H1   HT     0.417000        1.0080           0
   74545 WT8  1387 TIP3 H2   HT     0.417000        1.0080           0
   74546 WT8  1395 TIP3 OH2  OT    -0.834000       15.9994           0
   74547 WT8  1395 TIP3 H1   HT     0.417000        1.0080           0
   74548 WT8  1395 TIP3 H2   HT     0.417000        1.0080           0
   74549 WT8  1399 TIP3 OH2  OT    -0.834000       15.9994           0
   74550 WT8  1399 TIP3 H1   HT     0.417000        1.0080           0
   74551 WT8  1399 TIP3 H2   HT     0.417000        1.0080           0
   74552 WT8  1401 TIP3 OH2  OT    -0.834000       15.9994           0
   74553 WT8  1401 TIP3 H1   HT     0.417000        1.0080           0
   74554 WT8  1401 TIP3 H2   HT     0.417000        1.0080           0
   74555 WT8  1409 TIP3 OH2  OT    -0.834000       15.9994           0
   74556 WT8  1409 TIP3 H1   HT     0.417000        1.0080           0
   74557 WT8  1409 TIP3 H2   HT     0.417000        1.0080           0
   74558 WT8  1429 TIP3 OH2  OT    -0.834000       15.9994           0
   74559 WT8  1429 TIP3 H1   HT     0.417000        1.0080           0
   74560 WT8  1429 TIP3 H2   HT     0.417000        1.0080           0
   74561 WT8  1433 TIP3 OH2  OT    -0.834000       15.9994           0
   74562 WT8  1433 TIP3 H1   HT     0.417000        1.0080           0
   74563 WT8  1433 TIP3 H2   HT     0.417000        1.0080           0
   74564 WT8  1436 TIP3 OH2  OT    -0.834000       15.9994           0
   74565 WT8  1436 TIP3 H1   HT     0.417000        1.0080           0
   74566 WT8  1436 TIP3 H2   HT     0.417000        1.0080           0
   74567 WT8  1440 TIP3 OH2  OT    -0.834000       15.9994           0
   74568 WT8  1440 TIP3 H1   HT     0.417000        1.0080           0
   74569 WT8  1440 TIP3 H2   HT     0.417000        1.0080           0
   74570 WT8  1445 TIP3 OH2  OT    -0.834000       15.9994           0
   74571 WT8  1445 TIP3 H1   HT     0.417000        1.0080           0
   74572 WT8  1445 TIP3 H2   HT     0.417000        1.0080           0
   74573 WT8  1447 TIP3 OH2  OT    -0.834000       15.9994           0
   74574 WT8  1447 TIP3 H1   HT     0.417000        1.0080           0
   74575 WT8  1447 TIP3 H2   HT     0.417000        1.0080           0
   74576 WT8  1451 TIP3 OH2  OT    -0.834000       15.9994           0
   74577 WT8  1451 TIP3 H1   HT     0.417000        1.0080           0
   74578 WT8  1451 TIP3 H2   HT     0.417000        1.0080           0
   74579 WT8  1459 TIP3 OH2  OT    -0.834000       15.9994           0
   74580 WT8  1459 TIP3 H1   HT     0.417000        1.0080           0
   74581 WT8  1459 TIP3 H2   HT     0.417000        1.0080           0
   74582 WT8  1462 TIP3 OH2  OT    -0.834000       15.9994           0
   74583 WT8  1462 TIP3 H1   HT     0.417000        1.0080           0
   74584 WT8  1462 TIP3 H2   HT     0.417000        1.0080           0
   74585 WT8  1466 TIP3 OH2  OT    -0.834000       15.9994           0
   74586 WT8  1466 TIP3 H1   HT     0.417000        1.0080           0
   74587 WT8  1466 TIP3 H2   HT     0.417000        1.0080           0
   74588 WT8  1473 TIP3 OH2  OT    -0.834000       15.9994           0
   74589 WT8  1473 TIP3 H1   HT     0.417000        1.0080           0
   74590 WT8  1473 TIP3 H2   HT     0.417000        1.0080           0
   74591 WT8  1476 TIP3 OH2  OT    -0.834000       15.9994           0
   74592 WT8  1476 TIP3 H1   HT     0.417000        1.0080           0
   74593 WT8  1476 TIP3 H2   HT     0.417000        1.0080           0
   74594 WT8  1477 TIP3 OH2  OT    -0.834000       15.9994           0
   74595 WT8  1477 TIP3 H1   HT     0.417000        1.0080           0
   74596 WT8  1477 TIP3 H2   HT     0.417000        1.0080           0
   74597 WT8  1480 TIP3 OH2  OT    -0.834000       15.9994           0
   74598 WT8  1480 TIP3 H1   HT     0.417000        1.0080           0
   74599 WT8  1480 TIP3 H2   HT     0.417000        1.0080           0
   74600 WT8  1486 TIP3 OH2  OT    -0.834000       15.9994           0
   74601 WT8  1486 TIP3 H1   HT     0.417000        1.0080           0
   74602 WT8  1486 TIP3 H2   HT     0.417000        1.0080           0
   74603 WT8  1492 TIP3 OH2  OT    -0.834000       15.9994           0
   74604 WT8  1492 TIP3 H1   HT     0.417000        1.0080           0
   74605 WT8  1492 TIP3 H2   HT     0.417000        1.0080           0
   74606 WT8  1493 TIP3 OH2  OT    -0.834000       15.9994           0
   74607 WT8  1493 TIP3 H1   HT     0.417000        1.0080           0
   74608 WT8  1493 TIP3 H2   HT     0.417000        1.0080           0
   74609 WT8  1501 TIP3 OH2  OT    -0.834000       15.9994           0
   74610 WT8  1501 TIP3 H1   HT     0.417000        1.0080           0
   74611 WT8  1501 TIP3 H2   HT     0.417000        1.0080           0
   74612 WT8  1508 TIP3 OH2  OT    -0.834000       15.9994           0
   74613 WT8  1508 TIP3 H1   HT     0.417000        1.0080           0
   74614 WT8  1508 TIP3 H2   HT     0.417000        1.0080           0
   74615 WT8  1509 TIP3 OH2  OT    -0.834000       15.9994           0
   74616 WT8  1509 TIP3 H1   HT     0.417000        1.0080           0
   74617 WT8  1509 TIP3 H2   HT     0.417000        1.0080           0
   74618 WT8  1518 TIP3 OH2  OT    -0.834000       15.9994           0
   74619 WT8  1518 TIP3 H1   HT     0.417000        1.0080           0
   74620 WT8  1518 TIP3 H2   HT     0.417000        1.0080           0
   74621 WT8  1522 TIP3 OH2  OT    -0.834000       15.9994           0
   74622 WT8  1522 TIP3 H1   HT     0.417000        1.0080           0
   74623 WT8  1522 TIP3 H2   HT     0.417000        1.0080           0
   74624 WT8  1524 TIP3 OH2  OT    -0.834000       15.9994           0
   74625 WT8  1524 TIP3 H1   HT     0.417000        1.0080           0
   74626 WT8  1524 TIP3 H2   HT     0.417000        1.0080           0
   74627 WT8  1527 TIP3 OH2  OT    -0.834000       15.9994           0
   74628 WT8  1527 TIP3 H1   HT     0.417000        1.0080           0
   74629 WT8  1527 TIP3 H2   HT     0.417000        1.0080           0
   74630 WT8  1546 TIP3 OH2  OT    -0.834000       15.9994           0
   74631 WT8  1546 TIP3 H1   HT     0.417000        1.0080           0
   74632 WT8  1546 TIP3 H2   HT     0.417000        1.0080           0
   74633 WT8  1557 TIP3 OH2  OT    -0.834000       15.9994           0
   74634 WT8  1557 TIP3 H1   HT     0.417000        1.0080           0
   74635 WT8  1557 TIP3 H2   HT     0.417000        1.0080           0
   74636 WT8  1573 TIP3 OH2  OT    -0.834000       15.9994           0
   74637 WT8  1573 TIP3 H1   HT     0.417000        1.0080           0
   74638 WT8  1573 TIP3 H2   HT     0.417000        1.0080           0
   74639 WT8  1589 TIP3 OH2  OT    -0.834000       15.9994           0
   74640 WT8  1589 TIP3 H1   HT     0.417000        1.0080           0
   74641 WT8  1589 TIP3 H2   HT     0.417000        1.0080           0
   74642 WT8  1592 TIP3 OH2  OT    -0.834000       15.9994           0
   74643 WT8  1592 TIP3 H1   HT     0.417000        1.0080           0
   74644 WT8  1592 TIP3 H2   HT     0.417000        1.0080           0
   74645 WT8  1599 TIP3 OH2  OT    -0.834000       15.9994           0
   74646 WT8  1599 TIP3 H1   HT     0.417000        1.0080           0
   74647 WT8  1599 TIP3 H2   HT     0.417000        1.0080           0
   74648 WT8  1600 TIP3 OH2  OT    -0.834000       15.9994           0
   74649 WT8  1600 TIP3 H1   HT     0.417000        1.0080           0
   74650 WT8  1600 TIP3 H2   HT     0.417000        1.0080           0
   74651 WT8  1612 TIP3 OH2  OT    -0.834000       15.9994           0
   74652 WT8  1612 TIP3 H1   HT     0.417000        1.0080           0
   74653 WT8  1612 TIP3 H2   HT     0.417000        1.0080           0
   74654 WT8  1615 TIP3 OH2  OT    -0.834000       15.9994           0
   74655 WT8  1615 TIP3 H1   HT     0.417000        1.0080           0
   74656 WT8  1615 TIP3 H2   HT     0.417000        1.0080           0
   74657 WT8  1618 TIP3 OH2  OT    -0.834000       15.9994           0
   74658 WT8  1618 TIP3 H1   HT     0.417000        1.0080           0
   74659 WT8  1618 TIP3 H2   HT     0.417000        1.0080           0
   74660 WT8  1624 TIP3 OH2  OT    -0.834000       15.9994           0
   74661 WT8  1624 TIP3 H1   HT     0.417000        1.0080           0
   74662 WT8  1624 TIP3 H2   HT     0.417000        1.0080           0
   74663 WT8  1625 TIP3 OH2  OT    -0.834000       15.9994           0
   74664 WT8  1625 TIP3 H1   HT     0.417000        1.0080           0
   74665 WT8  1625 TIP3 H2   HT     0.417000        1.0080           0
   74666 WT8  1627 TIP3 OH2  OT    -0.834000       15.9994           0
   74667 WT8  1627 TIP3 H1   HT     0.417000        1.0080           0
   74668 WT8  1627 TIP3 H2   HT     0.417000        1.0080           0
   74669 WT8  1629 TIP3 OH2  OT    -0.834000       15.9994           0
   74670 WT8  1629 TIP3 H1   HT     0.417000        1.0080           0
   74671 WT8  1629 TIP3 H2   HT     0.417000        1.0080           0
   74672 WT8  1631 TIP3 OH2  OT    -0.834000       15.9994           0
   74673 WT8  1631 TIP3 H1   HT     0.417000        1.0080           0
   74674 WT8  1631 TIP3 H2   HT     0.417000        1.0080           0
   74675 WT8  1636 TIP3 OH2  OT    -0.834000       15.9994           0
   74676 WT8  1636 TIP3 H1   HT     0.417000        1.0080           0
   74677 WT8  1636 TIP3 H2   HT     0.417000        1.0080           0
   74678 WT8  1642 TIP3 OH2  OT    -0.834000       15.9994           0
   74679 WT8  1642 TIP3 H1   HT     0.417000        1.0080           0
   74680 WT8  1642 TIP3 H2   HT     0.417000        1.0080           0
   74681 WT8  1643 TIP3 OH2  OT    -0.834000       15.9994           0
   74682 WT8  1643 TIP3 H1   HT     0.417000        1.0080           0
   74683 WT8  1643 TIP3 H2   HT     0.417000        1.0080           0
   74684 WT8  1647 TIP3 OH2  OT    -0.834000       15.9994           0
   74685 WT8  1647 TIP3 H1   HT     0.417000        1.0080           0
   74686 WT8  1647 TIP3 H2   HT     0.417000        1.0080           0
   74687 WT8  1648 TIP3 OH2  OT    -0.834000       15.9994           0
   74688 WT8  1648 TIP3 H1   HT     0.417000        1.0080           0
   74689 WT8  1648 TIP3 H2   HT     0.417000        1.0080           0
   74690 WT8  1651 TIP3 OH2  OT    -0.834000       15.9994           0
   74691 WT8  1651 TIP3 H1   HT     0.417000        1.0080           0
   74692 WT8  1651 TIP3 H2   HT     0.417000        1.0080           0
   74693 WT8  1656 TIP3 OH2  OT    -0.834000       15.9994           0
   74694 WT8  1656 TIP3 H1   HT     0.417000        1.0080           0
   74695 WT8  1656 TIP3 H2   HT     0.417000        1.0080           0
   74696 WT8  1664 TIP3 OH2  OT    -0.834000       15.9994           0
   74697 WT8  1664 TIP3 H1   HT     0.417000        1.0080           0
   74698 WT8  1664 TIP3 H2   HT     0.417000        1.0080           0
   74699 WT8  1678 TIP3 OH2  OT    -0.834000       15.9994           0
   74700 WT8  1678 TIP3 H1   HT     0.417000        1.0080           0
   74701 WT8  1678 TIP3 H2   HT     0.417000        1.0080           0
   74702 WT8  1691 TIP3 OH2  OT    -0.834000       15.9994           0
   74703 WT8  1691 TIP3 H1   HT     0.417000        1.0080           0
   74704 WT8  1691 TIP3 H2   HT     0.417000        1.0080           0
   74705 WT8  1697 TIP3 OH2  OT    -0.834000       15.9994           0
   74706 WT8  1697 TIP3 H1   HT     0.417000        1.0080           0
   74707 WT8  1697 TIP3 H2   HT     0.417000        1.0080           0
   74708 WT8  1718 TIP3 OH2  OT    -0.834000       15.9994           0
   74709 WT8  1718 TIP3 H1   HT     0.417000        1.0080           0
   74710 WT8  1718 TIP3 H2   HT     0.417000        1.0080           0
   74711 WT8  1725 TIP3 OH2  OT    -0.834000       15.9994           0
   74712 WT8  1725 TIP3 H1   HT     0.417000        1.0080           0
   74713 WT8  1725 TIP3 H2   HT     0.417000        1.0080           0
   74714 WT8  1728 TIP3 OH2  OT    -0.834000       15.9994           0
   74715 WT8  1728 TIP3 H1   HT     0.417000        1.0080           0
   74716 WT8  1728 TIP3 H2   HT     0.417000        1.0080           0
   74717 WT8  1733 TIP3 OH2  OT    -0.834000       15.9994           0
   74718 WT8  1733 TIP3 H1   HT     0.417000        1.0080           0
   74719 WT8  1733 TIP3 H2   HT     0.417000        1.0080           0
   74720 WT8  1737 TIP3 OH2  OT    -0.834000       15.9994           0
   74721 WT8  1737 TIP3 H1   HT     0.417000        1.0080           0
   74722 WT8  1737 TIP3 H2   HT     0.417000        1.0080           0
   74723 WT8  1751 TIP3 OH2  OT    -0.834000       15.9994           0
   74724 WT8  1751 TIP3 H1   HT     0.417000        1.0080           0
   74725 WT8  1751 TIP3 H2   HT     0.417000        1.0080           0
   74726 WT8  1754 TIP3 OH2  OT    -0.834000       15.9994           0
   74727 WT8  1754 TIP3 H1   HT     0.417000        1.0080           0
   74728 WT8  1754 TIP3 H2   HT     0.417000        1.0080           0
   74729 WT8  1756 TIP3 OH2  OT    -0.834000       15.9994           0
   74730 WT8  1756 TIP3 H1   HT     0.417000        1.0080           0
   74731 WT8  1756 TIP3 H2   HT     0.417000        1.0080           0
   74732 WT8  1758 TIP3 OH2  OT    -0.834000       15.9994           0
   74733 WT8  1758 TIP3 H1   HT     0.417000        1.0080           0
   74734 WT8  1758 TIP3 H2   HT     0.417000        1.0080           0
   74735 WT8  1763 TIP3 OH2  OT    -0.834000       15.9994           0
   74736 WT8  1763 TIP3 H1   HT     0.417000        1.0080           0
   74737 WT8  1763 TIP3 H2   HT     0.417000        1.0080           0
   74738 WT8  1764 TIP3 OH2  OT    -0.834000       15.9994           0
   74739 WT8  1764 TIP3 H1   HT     0.417000        1.0080           0
   74740 WT8  1764 TIP3 H2   HT     0.417000        1.0080           0
   74741 WT8  1769 TIP3 OH2  OT    -0.834000       15.9994           0
   74742 WT8  1769 TIP3 H1   HT     0.417000        1.0080           0
   74743 WT8  1769 TIP3 H2   HT     0.417000        1.0080           0
   74744 WT8  1771 TIP3 OH2  OT    -0.834000       15.9994           0
   74745 WT8  1771 TIP3 H1   HT     0.417000        1.0080           0
   74746 WT8  1771 TIP3 H2   HT     0.417000        1.0080           0
   74747 WT8  1775 TIP3 OH2  OT    -0.834000       15.9994           0
   74748 WT8  1775 TIP3 H1   HT     0.417000        1.0080           0
   74749 WT8  1775 TIP3 H2   HT     0.417000        1.0080           0
   74750 WT8  1777 TIP3 OH2  OT    -0.834000       15.9994           0
   74751 WT8  1777 TIP3 H1   HT     0.417000        1.0080           0
   74752 WT8  1777 TIP3 H2   HT     0.417000        1.0080           0
   74753 WT8  1778 TIP3 OH2  OT    -0.834000       15.9994           0
   74754 WT8  1778 TIP3 H1   HT     0.417000        1.0080           0
   74755 WT8  1778 TIP3 H2   HT     0.417000        1.0080           0
   74756 WT8  1779 TIP3 OH2  OT    -0.834000       15.9994           0
   74757 WT8  1779 TIP3 H1   HT     0.417000        1.0080           0
   74758 WT8  1779 TIP3 H2   HT     0.417000        1.0080           0
   74759 WT8  1782 TIP3 OH2  OT    -0.834000       15.9994           0
   74760 WT8  1782 TIP3 H1   HT     0.417000        1.0080           0
   74761 WT8  1782 TIP3 H2   HT     0.417000        1.0080           0
   74762 WT8  1783 TIP3 OH2  OT    -0.834000       15.9994           0
   74763 WT8  1783 TIP3 H1   HT     0.417000        1.0080           0
   74764 WT8  1783 TIP3 H2   HT     0.417000        1.0080           0
   74765 WT8  1785 TIP3 OH2  OT    -0.834000       15.9994           0
   74766 WT8  1785 TIP3 H1   HT     0.417000        1.0080           0
   74767 WT8  1785 TIP3 H2   HT     0.417000        1.0080           0
   74768 WT8  1789 TIP3 OH2  OT    -0.834000       15.9994           0
   74769 WT8  1789 TIP3 H1   HT     0.417000        1.0080           0
   74770 WT8  1789 TIP3 H2   HT     0.417000        1.0080           0
   74771 WT8  1803 TIP3 OH2  OT    -0.834000       15.9994           0
   74772 WT8  1803 TIP3 H1   HT     0.417000        1.0080           0
   74773 WT8  1803 TIP3 H2   HT     0.417000        1.0080           0
   74774 WT8  1812 TIP3 OH2  OT    -0.834000       15.9994           0
   74775 WT8  1812 TIP3 H1   HT     0.417000        1.0080           0
   74776 WT8  1812 TIP3 H2   HT     0.417000        1.0080           0
   74777 WT8  1813 TIP3 OH2  OT    -0.834000       15.9994           0
   74778 WT8  1813 TIP3 H1   HT     0.417000        1.0080           0
   74779 WT8  1813 TIP3 H2   HT     0.417000        1.0080           0
   74780 WT8  1819 TIP3 OH2  OT    -0.834000       15.9994           0
   74781 WT8  1819 TIP3 H1   HT     0.417000        1.0080           0
   74782 WT8  1819 TIP3 H2   HT     0.417000        1.0080           0
   74783 WT8  1849 TIP3 OH2  OT    -0.834000       15.9994           0
   74784 WT8  1849 TIP3 H1   HT     0.417000        1.0080           0
   74785 WT8  1849 TIP3 H2   HT     0.417000        1.0080           0
   74786 WT8  1858 TIP3 OH2  OT    -0.834000       15.9994           0
   74787 WT8  1858 TIP3 H1   HT     0.417000        1.0080           0
   74788 WT8  1858 TIP3 H2   HT     0.417000        1.0080           0
   74789 WT8  1859 TIP3 OH2  OT    -0.834000       15.9994           0
   74790 WT8  1859 TIP3 H1   HT     0.417000        1.0080           0
   74791 WT8  1859 TIP3 H2   HT     0.417000        1.0080           0
   74792 WT8  1879 TIP3 OH2  OT    -0.834000       15.9994           0
   74793 WT8  1879 TIP3 H1   HT     0.417000        1.0080           0
   74794 WT8  1879 TIP3 H2   HT     0.417000        1.0080           0
   74795 WT8  1882 TIP3 OH2  OT    -0.834000       15.9994           0
   74796 WT8  1882 TIP3 H1   HT     0.417000        1.0080           0
   74797 WT8  1882 TIP3 H2   HT     0.417000        1.0080           0
   74798 WT8  1892 TIP3 OH2  OT    -0.834000       15.9994           0
   74799 WT8  1892 TIP3 H1   HT     0.417000        1.0080           0
   74800 WT8  1892 TIP3 H2   HT     0.417000        1.0080           0
   74801 WT8  1897 TIP3 OH2  OT    -0.834000       15.9994           0
   74802 WT8  1897 TIP3 H1   HT     0.417000        1.0080           0
   74803 WT8  1897 TIP3 H2   HT     0.417000        1.0080           0
   74804 WT8  1898 TIP3 OH2  OT    -0.834000       15.9994           0
   74805 WT8  1898 TIP3 H1   HT     0.417000        1.0080           0
   74806 WT8  1898 TIP3 H2   HT     0.417000        1.0080           0
   74807 WT8  1918 TIP3 OH2  OT    -0.834000       15.9994           0
   74808 WT8  1918 TIP3 H1   HT     0.417000        1.0080           0
   74809 WT8  1918 TIP3 H2   HT     0.417000        1.0080           0
   74810 WT8  1921 TIP3 OH2  OT    -0.834000       15.9994           0
   74811 WT8  1921 TIP3 H1   HT     0.417000        1.0080           0
   74812 WT8  1921 TIP3 H2   HT     0.417000        1.0080           0
   74813 WT8  1925 TIP3 OH2  OT    -0.834000       15.9994           0
   74814 WT8  1925 TIP3 H1   HT     0.417000        1.0080           0
   74815 WT8  1925 TIP3 H2   HT     0.417000        1.0080           0
   74816 WT8  1949 TIP3 OH2  OT    -0.834000       15.9994           0
   74817 WT8  1949 TIP3 H1   HT     0.417000        1.0080           0
   74818 WT8  1949 TIP3 H2   HT     0.417000        1.0080           0
   74819 WT8  1960 TIP3 OH2  OT    -0.834000       15.9994           0
   74820 WT8  1960 TIP3 H1   HT     0.417000        1.0080           0
   74821 WT8  1960 TIP3 H2   HT     0.417000        1.0080           0
   74822 WT8  1965 TIP3 OH2  OT    -0.834000       15.9994           0
   74823 WT8  1965 TIP3 H1   HT     0.417000        1.0080           0
   74824 WT8  1965 TIP3 H2   HT     0.417000        1.0080           0
   74825 WT8  1969 TIP3 OH2  OT    -0.834000       15.9994           0
   74826 WT8  1969 TIP3 H1   HT     0.417000        1.0080           0
   74827 WT8  1969 TIP3 H2   HT     0.417000        1.0080           0
   74828 WT8  1978 TIP3 OH2  OT    -0.834000       15.9994           0
   74829 WT8  1978 TIP3 H1   HT     0.417000        1.0080           0
   74830 WT8  1978 TIP3 H2   HT     0.417000        1.0080           0
   74831 WT8  1990 TIP3 OH2  OT    -0.834000       15.9994           0
   74832 WT8  1990 TIP3 H1   HT     0.417000        1.0080           0
   74833 WT8  1990 TIP3 H2   HT     0.417000        1.0080           0
   74834 WT8  1994 TIP3 OH2  OT    -0.834000       15.9994           0
   74835 WT8  1994 TIP3 H1   HT     0.417000        1.0080           0
   74836 WT8  1994 TIP3 H2   HT     0.417000        1.0080           0
   74837 WT8  2000 TIP3 OH2  OT    -0.834000       15.9994           0
   74838 WT8  2000 TIP3 H1   HT     0.417000        1.0080           0
   74839 WT8  2000 TIP3 H2   HT     0.417000        1.0080           0
   74840 WT8  2017 TIP3 OH2  OT    -0.834000       15.9994           0
   74841 WT8  2017 TIP3 H1   HT     0.417000        1.0080           0
   74842 WT8  2017 TIP3 H2   HT     0.417000        1.0080           0
   74843 WT8  2025 TIP3 OH2  OT    -0.834000       15.9994           0
   74844 WT8  2025 TIP3 H1   HT     0.417000        1.0080           0
   74845 WT8  2025 TIP3 H2   HT     0.417000        1.0080           0
   74846 WT8  2035 TIP3 OH2  OT    -0.834000       15.9994           0
   74847 WT8  2035 TIP3 H1   HT     0.417000        1.0080           0
   74848 WT8  2035 TIP3 H2   HT     0.417000        1.0080           0
   74849 WT8  2053 TIP3 OH2  OT    -0.834000       15.9994           0
   74850 WT8  2053 TIP3 H1   HT     0.417000        1.0080           0
   74851 WT8  2053 TIP3 H2   HT     0.417000        1.0080           0
   74852 WT8  2056 TIP3 OH2  OT    -0.834000       15.9994           0
   74853 WT8  2056 TIP3 H1   HT     0.417000        1.0080           0
   74854 WT8  2056 TIP3 H2   HT     0.417000        1.0080           0
   74855 WT8  2080 TIP3 OH2  OT    -0.834000       15.9994           0
   74856 WT8  2080 TIP3 H1   HT     0.417000        1.0080           0
   74857 WT8  2080 TIP3 H2   HT     0.417000        1.0080           0
   74858 WT8  2083 TIP3 OH2  OT    -0.834000       15.9994           0
   74859 WT8  2083 TIP3 H1   HT     0.417000        1.0080           0
   74860 WT8  2083 TIP3 H2   HT     0.417000        1.0080           0
   74861 WT8  2085 TIP3 OH2  OT    -0.834000       15.9994           0
   74862 WT8  2085 TIP3 H1   HT     0.417000        1.0080           0
   74863 WT8  2085 TIP3 H2   HT     0.417000        1.0080           0
   74864 WT8  2108 TIP3 OH2  OT    -0.834000       15.9994           0
   74865 WT8  2108 TIP3 H1   HT     0.417000        1.0080           0
   74866 WT8  2108 TIP3 H2   HT     0.417000        1.0080           0
   74867 WT8  2127 TIP3 OH2  OT    -0.834000       15.9994           0
   74868 WT8  2127 TIP3 H1   HT     0.417000        1.0080           0
   74869 WT8  2127 TIP3 H2   HT     0.417000        1.0080           0
   74870 WT8  2129 TIP3 OH2  OT    -0.834000       15.9994           0
   74871 WT8  2129 TIP3 H1   HT     0.417000        1.0080           0
   74872 WT8  2129 TIP3 H2   HT     0.417000        1.0080           0
   74873 WT8  2132 TIP3 OH2  OT    -0.834000       15.9994           0
   74874 WT8  2132 TIP3 H1   HT     0.417000        1.0080           0
   74875 WT8  2132 TIP3 H2   HT     0.417000        1.0080           0
   74876 WT8  2150 TIP3 OH2  OT    -0.834000       15.9994           0
   74877 WT8  2150 TIP3 H1   HT     0.417000        1.0080           0
   74878 WT8  2150 TIP3 H2   HT     0.417000        1.0080           0
   74879 WT8  2158 TIP3 OH2  OT    -0.834000       15.9994           0
   74880 WT8  2158 TIP3 H1   HT     0.417000        1.0080           0
   74881 WT8  2158 TIP3 H2   HT     0.417000        1.0080           0
   74882 WT8  2160 TIP3 OH2  OT    -0.834000       15.9994           0
   74883 WT8  2160 TIP3 H1   HT     0.417000        1.0080           0
   74884 WT8  2160 TIP3 H2   HT     0.417000        1.0080           0
   74885 WT8  2163 TIP3 OH2  OT    -0.834000       15.9994           0
   74886 WT8  2163 TIP3 H1   HT     0.417000        1.0080           0
   74887 WT8  2163 TIP3 H2   HT     0.417000        1.0080           0
   74888 WT8  2171 TIP3 OH2  OT    -0.834000       15.9994           0
   74889 WT8  2171 TIP3 H1   HT     0.417000        1.0080           0
   74890 WT8  2171 TIP3 H2   HT     0.417000        1.0080           0
   74891 WT8  2173 TIP3 OH2  OT    -0.834000       15.9994           0
   74892 WT8  2173 TIP3 H1   HT     0.417000        1.0080           0
   74893 WT8  2173 TIP3 H2   HT     0.417000        1.0080           0
   74894 WT8  2179 TIP3 OH2  OT    -0.834000       15.9994           0
   74895 WT8  2179 TIP3 H1   HT     0.417000        1.0080           0
   74896 WT8  2179 TIP3 H2   HT     0.417000        1.0080           0
   74897 WT8  2181 TIP3 OH2  OT    -0.834000       15.9994           0
   74898 WT8  2181 TIP3 H1   HT     0.417000        1.0080           0
   74899 WT8  2181 TIP3 H2   HT     0.417000        1.0080           0
   74900 WT8  2183 TIP3 OH2  OT    -0.834000       15.9994           0
   74901 WT8  2183 TIP3 H1   HT     0.417000        1.0080           0
   74902 WT8  2183 TIP3 H2   HT     0.417000        1.0080           0
   74903 WT8  2190 TIP3 OH2  OT    -0.834000       15.9994           0
   74904 WT8  2190 TIP3 H1   HT     0.417000        1.0080           0
   74905 WT8  2190 TIP3 H2   HT     0.417000        1.0080           0
   74906 WT8  2231 TIP3 OH2  OT    -0.834000       15.9994           0
   74907 WT8  2231 TIP3 H1   HT     0.417000        1.0080           0
   74908 WT8  2231 TIP3 H2   HT     0.417000        1.0080           0
   74909 WT8  2236 TIP3 OH2  OT    -0.834000       15.9994           0
   74910 WT8  2236 TIP3 H1   HT     0.417000        1.0080           0
   74911 WT8  2236 TIP3 H2   HT     0.417000        1.0080           0
   74912 WT8  2268 TIP3 OH2  OT    -0.834000       15.9994           0
   74913 WT8  2268 TIP3 H1   HT     0.417000        1.0080           0
   74914 WT8  2268 TIP3 H2   HT     0.417000        1.0080           0
   74915 WT8  2270 TIP3 OH2  OT    -0.834000       15.9994           0
   74916 WT8  2270 TIP3 H1   HT     0.417000        1.0080           0
   74917 WT8  2270 TIP3 H2   HT     0.417000        1.0080           0
   74918 WT8  2282 TIP3 OH2  OT    -0.834000       15.9994           0
   74919 WT8  2282 TIP3 H1   HT     0.417000        1.0080           0
   74920 WT8  2282 TIP3 H2   HT     0.417000        1.0080           0
   74921 WT8  2283 TIP3 OH2  OT    -0.834000       15.9994           0
   74922 WT8  2283 TIP3 H1   HT     0.417000        1.0080           0
   74923 WT8  2283 TIP3 H2   HT     0.417000        1.0080           0
   74924 WT8  2288 TIP3 OH2  OT    -0.834000       15.9994           0
   74925 WT8  2288 TIP3 H1   HT     0.417000        1.0080           0
   74926 WT8  2288 TIP3 H2   HT     0.417000        1.0080           0
   74927 WT8  2289 TIP3 OH2  OT    -0.834000       15.9994           0
   74928 WT8  2289 TIP3 H1   HT     0.417000        1.0080           0
   74929 WT8  2289 TIP3 H2   HT     0.417000        1.0080           0
   74930 WT8  2290 TIP3 OH2  OT    -0.834000       15.9994           0
   74931 WT8  2290 TIP3 H1   HT     0.417000        1.0080           0
   74932 WT8  2290 TIP3 H2   HT     0.417000        1.0080           0
   74933 WT8  2293 TIP3 OH2  OT    -0.834000       15.9994           0
   74934 WT8  2293 TIP3 H1   HT     0.417000        1.0080           0
   74935 WT8  2293 TIP3 H2   HT     0.417000        1.0080           0
   74936 WT8  2317 TIP3 OH2  OT    -0.834000       15.9994           0
   74937 WT8  2317 TIP3 H1   HT     0.417000        1.0080           0
   74938 WT8  2317 TIP3 H2   HT     0.417000        1.0080           0
   74939 WT8  2324 TIP3 OH2  OT    -0.834000       15.9994           0
   74940 WT8  2324 TIP3 H1   HT     0.417000        1.0080           0
   74941 WT8  2324 TIP3 H2   HT     0.417000        1.0080           0
   74942 WT8  2327 TIP3 OH2  OT    -0.834000       15.9994           0
   74943 WT8  2327 TIP3 H1   HT     0.417000        1.0080           0
   74944 WT8  2327 TIP3 H2   HT     0.417000        1.0080           0
   74945 WT8  2357 TIP3 OH2  OT    -0.834000       15.9994           0
   74946 WT8  2357 TIP3 H1   HT     0.417000        1.0080           0
   74947 WT8  2357 TIP3 H2   HT     0.417000        1.0080           0
   74948 WT8  2358 TIP3 OH2  OT    -0.834000       15.9994           0
   74949 WT8  2358 TIP3 H1   HT     0.417000        1.0080           0
   74950 WT8  2358 TIP3 H2   HT     0.417000        1.0080           0
   74951 WT8  2372 TIP3 OH2  OT    -0.834000       15.9994           0
   74952 WT8  2372 TIP3 H1   HT     0.417000        1.0080           0
   74953 WT8  2372 TIP3 H2   HT     0.417000        1.0080           0
   74954 WT8  2395 TIP3 OH2  OT    -0.834000       15.9994           0
   74955 WT8  2395 TIP3 H1   HT     0.417000        1.0080           0
   74956 WT8  2395 TIP3 H2   HT     0.417000        1.0080           0
   74957 WT8  2405 TIP3 OH2  OT    -0.834000       15.9994           0
   74958 WT8  2405 TIP3 H1   HT     0.417000        1.0080           0
   74959 WT8  2405 TIP3 H2   HT     0.417000        1.0080           0
   74960 WT8  2408 TIP3 OH2  OT    -0.834000       15.9994           0
   74961 WT8  2408 TIP3 H1   HT     0.417000        1.0080           0
   74962 WT8  2408 TIP3 H2   HT     0.417000        1.0080           0
   74963 WT8  2410 TIP3 OH2  OT    -0.834000       15.9994           0
   74964 WT8  2410 TIP3 H1   HT     0.417000        1.0080           0
   74965 WT8  2410 TIP3 H2   HT     0.417000        1.0080           0
   74966 WT8  2411 TIP3 OH2  OT    -0.834000       15.9994           0
   74967 WT8  2411 TIP3 H1   HT     0.417000        1.0080           0
   74968 WT8  2411 TIP3 H2   HT     0.417000        1.0080           0
   74969 WT8  2430 TIP3 OH2  OT    -0.834000       15.9994           0
   74970 WT8  2430 TIP3 H1   HT     0.417000        1.0080           0
   74971 WT8  2430 TIP3 H2   HT     0.417000        1.0080           0
   74972 WT8  2468 TIP3 OH2  OT    -0.834000       15.9994           0
   74973 WT8  2468 TIP3 H1   HT     0.417000        1.0080           0
   74974 WT8  2468 TIP3 H2   HT     0.417000        1.0080           0
   74975 WT8  2471 TIP3 OH2  OT    -0.834000       15.9994           0
   74976 WT8  2471 TIP3 H1   HT     0.417000        1.0080           0
   74977 WT8  2471 TIP3 H2   HT     0.417000        1.0080           0
   74978 WT8  2474 TIP3 OH2  OT    -0.834000       15.9994           0
   74979 WT8  2474 TIP3 H1   HT     0.417000        1.0080           0
   74980 WT8  2474 TIP3 H2   HT     0.417000        1.0080           0
   74981 WT8  2497 TIP3 OH2  OT    -0.834000       15.9994           0
   74982 WT8  2497 TIP3 H1   HT     0.417000        1.0080           0
   74983 WT8  2497 TIP3 H2   HT     0.417000        1.0080           0
   74984 WT8  2500 TIP3 OH2  OT    -0.834000       15.9994           0
   74985 WT8  2500 TIP3 H1   HT     0.417000        1.0080           0
   74986 WT8  2500 TIP3 H2   HT     0.417000        1.0080           0
   74987 WT8  2521 TIP3 OH2  OT    -0.834000       15.9994           0
   74988 WT8  2521 TIP3 H1   HT     0.417000        1.0080           0
   74989 WT8  2521 TIP3 H2   HT     0.417000        1.0080           0
   74990 WT8  2524 TIP3 OH2  OT    -0.834000       15.9994           0
   74991 WT8  2524 TIP3 H1   HT     0.417000        1.0080           0
   74992 WT8  2524 TIP3 H2   HT     0.417000        1.0080           0
   74993 WT8  2525 TIP3 OH2  OT    -0.834000       15.9994           0
   74994 WT8  2525 TIP3 H1   HT     0.417000        1.0080           0
   74995 WT8  2525 TIP3 H2   HT     0.417000        1.0080           0
   74996 WT8  2542 TIP3 OH2  OT    -0.834000       15.9994           0
   74997 WT8  2542 TIP3 H1   HT     0.417000        1.0080           0
   74998 WT8  2542 TIP3 H2   HT     0.417000        1.0080           0
   74999 WT8  2560 TIP3 OH2  OT    -0.834000       15.9994           0
   75000 WT8  2560 TIP3 H1   HT     0.417000        1.0080           0
   75001 WT8  2560 TIP3 H2   HT     0.417000        1.0080           0
   75002 WT8  2568 TIP3 OH2  OT    -0.834000       15.9994           0
   75003 WT8  2568 TIP3 H1   HT     0.417000        1.0080           0
   75004 WT8  2568 TIP3 H2   HT     0.417000        1.0080           0
   75005 WT8  2570 TIP3 OH2  OT    -0.834000       15.9994           0
   75006 WT8  2570 TIP3 H1   HT     0.417000        1.0080           0
   75007 WT8  2570 TIP3 H2   HT     0.417000        1.0080           0
   75008 WT8  2589 TIP3 OH2  OT    -0.834000       15.9994           0
   75009 WT8  2589 TIP3 H1   HT     0.417000        1.0080           0
   75010 WT8  2589 TIP3 H2   HT     0.417000        1.0080           0
   75011 WT8  2603 TIP3 OH2  OT    -0.834000       15.9994           0
   75012 WT8  2603 TIP3 H1   HT     0.417000        1.0080           0
   75013 WT8  2603 TIP3 H2   HT     0.417000        1.0080           0
   75014 WT8  2629 TIP3 OH2  OT    -0.834000       15.9994           0
   75015 WT8  2629 TIP3 H1   HT     0.417000        1.0080           0
   75016 WT8  2629 TIP3 H2   HT     0.417000        1.0080           0
   75017 WT8  2656 TIP3 OH2  OT    -0.834000       15.9994           0
   75018 WT8  2656 TIP3 H1   HT     0.417000        1.0080           0
   75019 WT8  2656 TIP3 H2   HT     0.417000        1.0080           0
   75020 WT8  2705 TIP3 OH2  OT    -0.834000       15.9994           0
   75021 WT8  2705 TIP3 H1   HT     0.417000        1.0080           0
   75022 WT8  2705 TIP3 H2   HT     0.417000        1.0080           0
   75023 WT8  2759 TIP3 OH2  OT    -0.834000       15.9994           0
   75024 WT8  2759 TIP3 H1   HT     0.417000        1.0080           0
   75025 WT8  2759 TIP3 H2   HT     0.417000        1.0080           0
   75026 WT8  2767 TIP3 OH2  OT    -0.834000       15.9994           0
   75027 WT8  2767 TIP3 H1   HT     0.417000        1.0080           0
   75028 WT8  2767 TIP3 H2   HT     0.417000        1.0080           0
   75029 WT8  2780 TIP3 OH2  OT    -0.834000       15.9994           0
   75030 WT8  2780 TIP3 H1   HT     0.417000        1.0080           0
   75031 WT8  2780 TIP3 H2   HT     0.417000        1.0080           0
   75032 WT8  2802 TIP3 OH2  OT    -0.834000       15.9994           0
   75033 WT8  2802 TIP3 H1   HT     0.417000        1.0080           0
   75034 WT8  2802 TIP3 H2   HT     0.417000        1.0080           0
   75035 WT8  2855 TIP3 OH2  OT    -0.834000       15.9994           0
   75036 WT8  2855 TIP3 H1   HT     0.417000        1.0080           0
   75037 WT8  2855 TIP3 H2   HT     0.417000        1.0080           0
   75038 WT8  2872 TIP3 OH2  OT    -0.834000       15.9994           0
   75039 WT8  2872 TIP3 H1   HT     0.417000        1.0080           0
   75040 WT8  2872 TIP3 H2   HT     0.417000        1.0080           0
   75041 WT8  2894 TIP3 OH2  OT    -0.834000       15.9994           0
   75042 WT8  2894 TIP3 H1   HT     0.417000        1.0080           0
   75043 WT8  2894 TIP3 H2   HT     0.417000        1.0080           0
   75044 WT8  2895 TIP3 OH2  OT    -0.834000       15.9994           0
   75045 WT8  2895 TIP3 H1   HT     0.417000        1.0080           0
   75046 WT8  2895 TIP3 H2   HT     0.417000        1.0080           0
   75047 WT8  2901 TIP3 OH2  OT    -0.834000       15.9994           0
   75048 WT8  2901 TIP3 H1   HT     0.417000        1.0080           0
   75049 WT8  2901 TIP3 H2   HT     0.417000        1.0080           0
   75050 WT8  2903 TIP3 OH2  OT    -0.834000       15.9994           0
   75051 WT8  2903 TIP3 H1   HT     0.417000        1.0080           0
   75052 WT8  2903 TIP3 H2   HT     0.417000        1.0080           0
   75053 WT8  2906 TIP3 OH2  OT    -0.834000       15.9994           0
   75054 WT8  2906 TIP3 H1   HT     0.417000        1.0080           0
   75055 WT8  2906 TIP3 H2   HT     0.417000        1.0080           0
   75056 WT8  2998 TIP3 OH2  OT    -0.834000       15.9994           0
   75057 WT8  2998 TIP3 H1   HT     0.417000        1.0080           0
   75058 WT8  2998 TIP3 H2   HT     0.417000        1.0080           0
   75059 WT8  3029 TIP3 OH2  OT    -0.834000       15.9994           0
   75060 WT8  3029 TIP3 H1   HT     0.417000        1.0080           0
   75061 WT8  3029 TIP3 H2   HT     0.417000        1.0080           0
   75062 WT8  3063 TIP3 OH2  OT    -0.834000       15.9994           0
   75063 WT8  3063 TIP3 H1   HT     0.417000        1.0080           0
   75064 WT8  3063 TIP3 H2   HT     0.417000        1.0080           0
   75065 WT8  3184 TIP3 OH2  OT    -0.834000       15.9994           0
   75066 WT8  3184 TIP3 H1   HT     0.417000        1.0080           0
   75067 WT8  3184 TIP3 H2   HT     0.417000        1.0080           0
   75068 WT8  3223 TIP3 OH2  OT    -0.834000       15.9994           0
   75069 WT8  3223 TIP3 H1   HT     0.417000        1.0080           0
   75070 WT8  3223 TIP3 H2   HT     0.417000        1.0080           0
   75071 WT8  3287 TIP3 OH2  OT    -0.834000       15.9994           0
   75072 WT8  3287 TIP3 H1   HT     0.417000        1.0080           0
   75073 WT8  3287 TIP3 H2   HT     0.417000        1.0080           0
   75074 WT8  3294 TIP3 OH2  OT    -0.834000       15.9994           0
   75075 WT8  3294 TIP3 H1   HT     0.417000        1.0080           0
   75076 WT8  3294 TIP3 H2   HT     0.417000        1.0080           0
   75077 WT8  3521 TIP3 OH2  OT    -0.834000       15.9994           0
   75078 WT8  3521 TIP3 H1   HT     0.417000        1.0080           0
   75079 WT8  3521 TIP3 H2   HT     0.417000        1.0080           0
   75080 WT8  3665 TIP3 OH2  OT    -0.834000       15.9994           0
   75081 WT8  3665 TIP3 H1   HT     0.417000        1.0080           0
   75082 WT8  3665 TIP3 H2   HT     0.417000        1.0080           0
   75083 WT8  3687 TIP3 OH2  OT    -0.834000       15.9994           0
   75084 WT8  3687 TIP3 H1   HT     0.417000        1.0080           0
   75085 WT8  3687 TIP3 H2   HT     0.417000        1.0080           0
   75086 WT8  3877 TIP3 OH2  OT    -0.834000       15.9994           0
   75087 WT8  3877 TIP3 H1   HT     0.417000        1.0080           0
   75088 WT8  3877 TIP3 H2   HT     0.417000        1.0080           0
   75089 WT8  4045 TIP3 OH2  OT    -0.834000       15.9994           0
   75090 WT8  4045 TIP3 H1   HT     0.417000        1.0080           0
   75091 WT8  4045 TIP3 H2   HT     0.417000        1.0080           0
   75092 WT8  4850 TIP3 OH2  OT    -0.834000       15.9994           0
   75093 WT8  4850 TIP3 H1   HT     0.417000        1.0080           0
   75094 WT8  4850 TIP3 H2   HT     0.417000        1.0080           0
   75095 WT8  4971 TIP3 OH2  OT    -0.834000       15.9994           0
   75096 WT8  4971 TIP3 H1   HT     0.417000        1.0080           0
   75097 WT8  4971 TIP3 H2   HT     0.417000        1.0080           0
   75098 WT8  5421 TIP3 OH2  OT    -0.834000       15.9994           0
   75099 WT8  5421 TIP3 H1   HT     0.417000        1.0080           0
   75100 WT8  5421 TIP3 H2   HT     0.417000        1.0080           0
   75101 WT8  6350 TIP3 OH2  OT    -0.834000       15.9994           0
   75102 WT8  6350 TIP3 H1   HT     0.417000        1.0080           0
   75103 WT8  6350 TIP3 H2   HT     0.417000        1.0080           0
   75104 WT8  6479 TIP3 OH2  OT    -0.834000       15.9994           0
   75105 WT8  6479 TIP3 H1   HT     0.417000        1.0080           0
   75106 WT8  6479 TIP3 H2   HT     0.417000        1.0080           0
   75107 WT8  6628 TIP3 OH2  OT    -0.834000       15.9994           0
   75108 WT8  6628 TIP3 H1   HT     0.417000        1.0080           0
   75109 WT8  6628 TIP3 H2   HT     0.417000        1.0080           0
   75110 WT8  6650 TIP3 OH2  OT    -0.834000       15.9994           0
   75111 WT8  6650 TIP3 H1   HT     0.417000        1.0080           0
   75112 WT8  6650 TIP3 H2   HT     0.417000        1.0080           0
   75113 WT8  6671 TIP3 OH2  OT    -0.834000       15.9994           0
   75114 WT8  6671 TIP3 H1   HT     0.417000        1.0080           0
   75115 WT8  6671 TIP3 H2   HT     0.417000        1.0080           0
   75116 WT8  6751 TIP3 OH2  OT    -0.834000       15.9994           0
   75117 WT8  6751 TIP3 H1   HT     0.417000        1.0080           0
   75118 WT8  6751 TIP3 H2   HT     0.417000        1.0080           0
   75119 WT8  6773 TIP3 OH2  OT    -0.834000       15.9994           0
   75120 WT8  6773 TIP3 H1   HT     0.417000        1.0080           0
   75121 WT8  6773 TIP3 H2   HT     0.417000        1.0080           0
   75122 WT8  6964 TIP3 OH2  OT    -0.834000       15.9994           0
   75123 WT8  6964 TIP3 H1   HT     0.417000        1.0080           0
   75124 WT8  6964 TIP3 H2   HT     0.417000        1.0080           0
   75125 WT8  6980 TIP3 OH2  OT    -0.834000       15.9994           0
   75126 WT8  6980 TIP3 H1   HT     0.417000        1.0080           0
   75127 WT8  6980 TIP3 H2   HT     0.417000        1.0080           0
   75128 WT8  7027 TIP3 OH2  OT    -0.834000       15.9994           0
   75129 WT8  7027 TIP3 H1   HT     0.417000        1.0080           0
   75130 WT8  7027 TIP3 H2   HT     0.417000        1.0080           0
   75131 WT8  7114 TIP3 OH2  OT    -0.834000       15.9994           0
   75132 WT8  7114 TIP3 H1   HT     0.417000        1.0080           0
   75133 WT8  7114 TIP3 H2   HT     0.417000        1.0080           0
   75134 WT8  7133 TIP3 OH2  OT    -0.834000       15.9994           0
   75135 WT8  7133 TIP3 H1   HT     0.417000        1.0080           0
   75136 WT8  7133 TIP3 H2   HT     0.417000        1.0080           0
   75137 WT8  7165 TIP3 OH2  OT    -0.834000       15.9994           0
   75138 WT8  7165 TIP3 H1   HT     0.417000        1.0080           0
   75139 WT8  7165 TIP3 H2   HT     0.417000        1.0080           0
   75140 WT8  7290 TIP3 OH2  OT    -0.834000       15.9994           0
   75141 WT8  7290 TIP3 H1   HT     0.417000        1.0080           0
   75142 WT8  7290 TIP3 H2   HT     0.417000        1.0080           0
   75143 WT8  7295 TIP3 OH2  OT    -0.834000       15.9994           0
   75144 WT8  7295 TIP3 H1   HT     0.417000        1.0080           0
   75145 WT8  7295 TIP3 H2   HT     0.417000        1.0080           0
   75146 WT8  7308 TIP3 OH2  OT    -0.834000       15.9994           0
   75147 WT8  7308 TIP3 H1   HT     0.417000        1.0080           0
   75148 WT8  7308 TIP3 H2   HT     0.417000        1.0080           0
   75149 WT8  7427 TIP3 OH2  OT    -0.834000       15.9994           0
   75150 WT8  7427 TIP3 H1   HT     0.417000        1.0080           0
   75151 WT8  7427 TIP3 H2   HT     0.417000        1.0080           0
   75152 WT8  7510 TIP3 OH2  OT    -0.834000       15.9994           0
   75153 WT8  7510 TIP3 H1   HT     0.417000        1.0080           0
   75154 WT8  7510 TIP3 H2   HT     0.417000        1.0080           0
   75155 WT8  7532 TIP3 OH2  OT    -0.834000       15.9994           0
   75156 WT8  7532 TIP3 H1   HT     0.417000        1.0080           0
   75157 WT8  7532 TIP3 H2   HT     0.417000        1.0080           0
   75158 WT8  7537 TIP3 OH2  OT    -0.834000       15.9994           0
   75159 WT8  7537 TIP3 H1   HT     0.417000        1.0080           0
   75160 WT8  7537 TIP3 H2   HT     0.417000        1.0080           0
   75161 WT8  7557 TIP3 OH2  OT    -0.834000       15.9994           0
   75162 WT8  7557 TIP3 H1   HT     0.417000        1.0080           0
   75163 WT8  7557 TIP3 H2   HT     0.417000        1.0080           0
   75164 WT8  7563 TIP3 OH2  OT    -0.834000       15.9994           0
   75165 WT8  7563 TIP3 H1   HT     0.417000        1.0080           0
   75166 WT8  7563 TIP3 H2   HT     0.417000        1.0080           0
   75167 WT8  7568 TIP3 OH2  OT    -0.834000       15.9994           0
   75168 WT8  7568 TIP3 H1   HT     0.417000        1.0080           0
   75169 WT8  7568 TIP3 H2   HT     0.417000        1.0080           0
   75170 WT8  7576 TIP3 OH2  OT    -0.834000       15.9994           0
   75171 WT8  7576 TIP3 H1   HT     0.417000        1.0080           0
   75172 WT8  7576 TIP3 H2   HT     0.417000        1.0080           0
   75173 WT8  7583 TIP3 OH2  OT    -0.834000       15.9994           0
   75174 WT8  7583 TIP3 H1   HT     0.417000        1.0080           0
   75175 WT8  7583 TIP3 H2   HT     0.417000        1.0080           0
   75176 WT8  7592 TIP3 OH2  OT    -0.834000       15.9994           0
   75177 WT8  7592 TIP3 H1   HT     0.417000        1.0080           0
   75178 WT8  7592 TIP3 H2   HT     0.417000        1.0080           0
   75179 WT8  7603 TIP3 OH2  OT    -0.834000       15.9994           0
   75180 WT8  7603 TIP3 H1   HT     0.417000        1.0080           0
   75181 WT8  7603 TIP3 H2   HT     0.417000        1.0080           0
   75182 WT8  7607 TIP3 OH2  OT    -0.834000       15.9994           0
   75183 WT8  7607 TIP3 H1   HT     0.417000        1.0080           0
   75184 WT8  7607 TIP3 H2   HT     0.417000        1.0080           0
   75185 WT8  7630 TIP3 OH2  OT    -0.834000       15.9994           0
   75186 WT8  7630 TIP3 H1   HT     0.417000        1.0080           0
   75187 WT8  7630 TIP3 H2   HT     0.417000        1.0080           0
   75188 WT8  7631 TIP3 OH2  OT    -0.834000       15.9994           0
   75189 WT8  7631 TIP3 H1   HT     0.417000        1.0080           0
   75190 WT8  7631 TIP3 H2   HT     0.417000        1.0080           0
   75191 WT8  7634 TIP3 OH2  OT    -0.834000       15.9994           0
   75192 WT8  7634 TIP3 H1   HT     0.417000        1.0080           0
   75193 WT8  7634 TIP3 H2   HT     0.417000        1.0080           0
   75194 WT8  7647 TIP3 OH2  OT    -0.834000       15.9994           0
   75195 WT8  7647 TIP3 H1   HT     0.417000        1.0080           0
   75196 WT8  7647 TIP3 H2   HT     0.417000        1.0080           0
   75197 WT8  7650 TIP3 OH2  OT    -0.834000       15.9994           0
   75198 WT8  7650 TIP3 H1   HT     0.417000        1.0080           0
   75199 WT8  7650 TIP3 H2   HT     0.417000        1.0080           0
   75200 WT8  7661 TIP3 OH2  OT    -0.834000       15.9994           0
   75201 WT8  7661 TIP3 H1   HT     0.417000        1.0080           0
   75202 WT8  7661 TIP3 H2   HT     0.417000        1.0080           0
   75203 WT8  7715 TIP3 OH2  OT    -0.834000       15.9994           0
   75204 WT8  7715 TIP3 H1   HT     0.417000        1.0080           0
   75205 WT8  7715 TIP3 H2   HT     0.417000        1.0080           0
   75206 WT8  7739 TIP3 OH2  OT    -0.834000       15.9994           0
   75207 WT8  7739 TIP3 H1   HT     0.417000        1.0080           0
   75208 WT8  7739 TIP3 H2   HT     0.417000        1.0080           0
   75209 WT8  7748 TIP3 OH2  OT    -0.834000       15.9994           0
   75210 WT8  7748 TIP3 H1   HT     0.417000        1.0080           0
   75211 WT8  7748 TIP3 H2   HT     0.417000        1.0080           0
   75212 WT8  7784 TIP3 OH2  OT    -0.834000       15.9994           0
   75213 WT8  7784 TIP3 H1   HT     0.417000        1.0080           0
   75214 WT8  7784 TIP3 H2   HT     0.417000        1.0080           0
   75215 WT8  7846 TIP3 OH2  OT    -0.834000       15.9994           0
   75216 WT8  7846 TIP3 H1   HT     0.417000        1.0080           0
   75217 WT8  7846 TIP3 H2   HT     0.417000        1.0080           0
   75218 WT8  7925 TIP3 OH2  OT    -0.834000       15.9994           0
   75219 WT8  7925 TIP3 H1   HT     0.417000        1.0080           0
   75220 WT8  7925 TIP3 H2   HT     0.417000        1.0080           0
   75221 WT8  7944 TIP3 OH2  OT    -0.834000       15.9994           0
   75222 WT8  7944 TIP3 H1   HT     0.417000        1.0080           0
   75223 WT8  7944 TIP3 H2   HT     0.417000        1.0080           0
   75224 WT8  7951 TIP3 OH2  OT    -0.834000       15.9994           0
   75225 WT8  7951 TIP3 H1   HT     0.417000        1.0080           0
   75226 WT8  7951 TIP3 H2   HT     0.417000        1.0080           0
   75227 WT8  7959 TIP3 OH2  OT    -0.834000       15.9994           0
   75228 WT8  7959 TIP3 H1   HT     0.417000        1.0080           0
   75229 WT8  7959 TIP3 H2   HT     0.417000        1.0080           0
   75230 WT8  7978 TIP3 OH2  OT    -0.834000       15.9994           0
   75231 WT8  7978 TIP3 H1   HT     0.417000        1.0080           0
   75232 WT8  7978 TIP3 H2   HT     0.417000        1.0080           0
   75233 WT8  7979 TIP3 OH2  OT    -0.834000       15.9994           0
   75234 WT8  7979 TIP3 H1   HT     0.417000        1.0080           0
   75235 WT8  7979 TIP3 H2   HT     0.417000        1.0080           0
   75236 WT8  7985 TIP3 OH2  OT    -0.834000       15.9994           0
   75237 WT8  7985 TIP3 H1   HT     0.417000        1.0080           0
   75238 WT8  7985 TIP3 H2   HT     0.417000        1.0080           0
   75239 WT8  7997 TIP3 OH2  OT    -0.834000       15.9994           0
   75240 WT8  7997 TIP3 H1   HT     0.417000        1.0080           0
   75241 WT8  7997 TIP3 H2   HT     0.417000        1.0080           0
   75242 WT8  7998 TIP3 OH2  OT    -0.834000       15.9994           0
   75243 WT8  7998 TIP3 H1   HT     0.417000        1.0080           0
   75244 WT8  7998 TIP3 H2   HT     0.417000        1.0080           0
   75245 WT8  8014 TIP3 OH2  OT    -0.834000       15.9994           0
   75246 WT8  8014 TIP3 H1   HT     0.417000        1.0080           0
   75247 WT8  8014 TIP3 H2   HT     0.417000        1.0080           0
   75248 WT8  8023 TIP3 OH2  OT    -0.834000       15.9994           0
   75249 WT8  8023 TIP3 H1   HT     0.417000        1.0080           0
   75250 WT8  8023 TIP3 H2   HT     0.417000        1.0080           0
   75251 WT8  8024 TIP3 OH2  OT    -0.834000       15.9994           0
   75252 WT8  8024 TIP3 H1   HT     0.417000        1.0080           0
   75253 WT8  8024 TIP3 H2   HT     0.417000        1.0080           0
   75254 WT8  8034 TIP3 OH2  OT    -0.834000       15.9994           0
   75255 WT8  8034 TIP3 H1   HT     0.417000        1.0080           0
   75256 WT8  8034 TIP3 H2   HT     0.417000        1.0080           0
   75257 WT8  8046 TIP3 OH2  OT    -0.834000       15.9994           0
   75258 WT8  8046 TIP3 H1   HT     0.417000        1.0080           0
   75259 WT8  8046 TIP3 H2   HT     0.417000        1.0080           0
   75260 WT8  8064 TIP3 OH2  OT    -0.834000       15.9994           0
   75261 WT8  8064 TIP3 H1   HT     0.417000        1.0080           0
   75262 WT8  8064 TIP3 H2   HT     0.417000        1.0080           0
   75263 WT8  8067 TIP3 OH2  OT    -0.834000       15.9994           0
   75264 WT8  8067 TIP3 H1   HT     0.417000        1.0080           0
   75265 WT8  8067 TIP3 H2   HT     0.417000        1.0080           0
   75266 WT8  8068 TIP3 OH2  OT    -0.834000       15.9994           0
   75267 WT8  8068 TIP3 H1   HT     0.417000        1.0080           0
   75268 WT8  8068 TIP3 H2   HT     0.417000        1.0080           0
   75269 WT8  8079 TIP3 OH2  OT    -0.834000       15.9994           0
   75270 WT8  8079 TIP3 H1   HT     0.417000        1.0080           0
   75271 WT8  8079 TIP3 H2   HT     0.417000        1.0080           0
   75272 WT8  8123 TIP3 OH2  OT    -0.834000       15.9994           0
   75273 WT8  8123 TIP3 H1   HT     0.417000        1.0080           0
   75274 WT8  8123 TIP3 H2   HT     0.417000        1.0080           0
   75275 WT8  8124 TIP3 OH2  OT    -0.834000       15.9994           0
   75276 WT8  8124 TIP3 H1   HT     0.417000        1.0080           0
   75277 WT8  8124 TIP3 H2   HT     0.417000        1.0080           0
   75278 WT8  8133 TIP3 OH2  OT    -0.834000       15.9994           0
   75279 WT8  8133 TIP3 H1   HT     0.417000        1.0080           0
   75280 WT8  8133 TIP3 H2   HT     0.417000        1.0080           0
   75281 WT8  8136 TIP3 OH2  OT    -0.834000       15.9994           0
   75282 WT8  8136 TIP3 H1   HT     0.417000        1.0080           0
   75283 WT8  8136 TIP3 H2   HT     0.417000        1.0080           0
   75284 WT8  8140 TIP3 OH2  OT    -0.834000       15.9994           0
   75285 WT8  8140 TIP3 H1   HT     0.417000        1.0080           0
   75286 WT8  8140 TIP3 H2   HT     0.417000        1.0080           0
   75287 WT8  8141 TIP3 OH2  OT    -0.834000       15.9994           0
   75288 WT8  8141 TIP3 H1   HT     0.417000        1.0080           0
   75289 WT8  8141 TIP3 H2   HT     0.417000        1.0080           0
   75290 WT8  8161 TIP3 OH2  OT    -0.834000       15.9994           0
   75291 WT8  8161 TIP3 H1   HT     0.417000        1.0080           0
   75292 WT8  8161 TIP3 H2   HT     0.417000        1.0080           0
   75293 WT8  8173 TIP3 OH2  OT    -0.834000       15.9994           0
   75294 WT8  8173 TIP3 H1   HT     0.417000        1.0080           0
   75295 WT8  8173 TIP3 H2   HT     0.417000        1.0080           0
   75296 WT8  8174 TIP3 OH2  OT    -0.834000       15.9994           0
   75297 WT8  8174 TIP3 H1   HT     0.417000        1.0080           0
   75298 WT8  8174 TIP3 H2   HT     0.417000        1.0080           0
   75299 WT8  8176 TIP3 OH2  OT    -0.834000       15.9994           0
   75300 WT8  8176 TIP3 H1   HT     0.417000        1.0080           0
   75301 WT8  8176 TIP3 H2   HT     0.417000        1.0080           0
   75302 WT8  8183 TIP3 OH2  OT    -0.834000       15.9994           0
   75303 WT8  8183 TIP3 H1   HT     0.417000        1.0080           0
   75304 WT8  8183 TIP3 H2   HT     0.417000        1.0080           0
   75305 WT8  8191 TIP3 OH2  OT    -0.834000       15.9994           0
   75306 WT8  8191 TIP3 H1   HT     0.417000        1.0080           0
   75307 WT8  8191 TIP3 H2   HT     0.417000        1.0080           0
   75308 WT8  8222 TIP3 OH2  OT    -0.834000       15.9994           0
   75309 WT8  8222 TIP3 H1   HT     0.417000        1.0080           0
   75310 WT8  8222 TIP3 H2   HT     0.417000        1.0080           0
   75311 WT8  8229 TIP3 OH2  OT    -0.834000       15.9994           0
   75312 WT8  8229 TIP3 H1   HT     0.417000        1.0080           0
   75313 WT8  8229 TIP3 H2   HT     0.417000        1.0080           0
   75314 WT8  8230 TIP3 OH2  OT    -0.834000       15.9994           0
   75315 WT8  8230 TIP3 H1   HT     0.417000        1.0080           0
   75316 WT8  8230 TIP3 H2   HT     0.417000        1.0080           0
   75317 WT8  8260 TIP3 OH2  OT    -0.834000       15.9994           0
   75318 WT8  8260 TIP3 H1   HT     0.417000        1.0080           0
   75319 WT8  8260 TIP3 H2   HT     0.417000        1.0080           0
   75320 WT8  8263 TIP3 OH2  OT    -0.834000       15.9994           0
   75321 WT8  8263 TIP3 H1   HT     0.417000        1.0080           0
   75322 WT8  8263 TIP3 H2   HT     0.417000        1.0080           0
   75323 WT8  8264 TIP3 OH2  OT    -0.834000       15.9994           0
   75324 WT8  8264 TIP3 H1   HT     0.417000        1.0080           0
   75325 WT8  8264 TIP3 H2   HT     0.417000        1.0080           0
   75326 WT8  8265 TIP3 OH2  OT    -0.834000       15.9994           0
   75327 WT8  8265 TIP3 H1   HT     0.417000        1.0080           0
   75328 WT8  8265 TIP3 H2   HT     0.417000        1.0080           0
   75329 WT8  8266 TIP3 OH2  OT    -0.834000       15.9994           0
   75330 WT8  8266 TIP3 H1   HT     0.417000        1.0080           0
   75331 WT8  8266 TIP3 H2   HT     0.417000        1.0080           0
   75332 WT8  8278 TIP3 OH2  OT    -0.834000       15.9994           0
   75333 WT8  8278 TIP3 H1   HT     0.417000        1.0080           0
   75334 WT8  8278 TIP3 H2   HT     0.417000        1.0080           0
   75335 WT8  8290 TIP3 OH2  OT    -0.834000       15.9994           0
   75336 WT8  8290 TIP3 H1   HT     0.417000        1.0080           0
   75337 WT8  8290 TIP3 H2   HT     0.417000        1.0080           0
   75338 WT8  8308 TIP3 OH2  OT    -0.834000       15.9994           0
   75339 WT8  8308 TIP3 H1   HT     0.417000        1.0080           0
   75340 WT8  8308 TIP3 H2   HT     0.417000        1.0080           0
   75341 WT8  8309 TIP3 OH2  OT    -0.834000       15.9994           0
   75342 WT8  8309 TIP3 H1   HT     0.417000        1.0080           0
   75343 WT8  8309 TIP3 H2   HT     0.417000        1.0080           0
   75344 WT8  8328 TIP3 OH2  OT    -0.834000       15.9994           0
   75345 WT8  8328 TIP3 H1   HT     0.417000        1.0080           0
   75346 WT8  8328 TIP3 H2   HT     0.417000        1.0080           0
   75347 WT8  8330 TIP3 OH2  OT    -0.834000       15.9994           0
   75348 WT8  8330 TIP3 H1   HT     0.417000        1.0080           0
   75349 WT8  8330 TIP3 H2   HT     0.417000        1.0080           0
   75350 WT8  8351 TIP3 OH2  OT    -0.834000       15.9994           0
   75351 WT8  8351 TIP3 H1   HT     0.417000        1.0080           0
   75352 WT8  8351 TIP3 H2   HT     0.417000        1.0080           0
   75353 WT8  8352 TIP3 OH2  OT    -0.834000       15.9994           0
   75354 WT8  8352 TIP3 H1   HT     0.417000        1.0080           0
   75355 WT8  8352 TIP3 H2   HT     0.417000        1.0080           0
   75356 WT8  8357 TIP3 OH2  OT    -0.834000       15.9994           0
   75357 WT8  8357 TIP3 H1   HT     0.417000        1.0080           0
   75358 WT8  8357 TIP3 H2   HT     0.417000        1.0080           0
   75359 WT8  8361 TIP3 OH2  OT    -0.834000       15.9994           0
   75360 WT8  8361 TIP3 H1   HT     0.417000        1.0080           0
   75361 WT8  8361 TIP3 H2   HT     0.417000        1.0080           0
   75362 WT8  8375 TIP3 OH2  OT    -0.834000       15.9994           0
   75363 WT8  8375 TIP3 H1   HT     0.417000        1.0080           0
   75364 WT8  8375 TIP3 H2   HT     0.417000        1.0080           0
   75365 WT8  8376 TIP3 OH2  OT    -0.834000       15.9994           0
   75366 WT8  8376 TIP3 H1   HT     0.417000        1.0080           0
   75367 WT8  8376 TIP3 H2   HT     0.417000        1.0080           0
   75368 WT8  8383 TIP3 OH2  OT    -0.834000       15.9994           0
   75369 WT8  8383 TIP3 H1   HT     0.417000        1.0080           0
   75370 WT8  8383 TIP3 H2   HT     0.417000        1.0080           0
   75371 WT8  8387 TIP3 OH2  OT    -0.834000       15.9994           0
   75372 WT8  8387 TIP3 H1   HT     0.417000        1.0080           0
   75373 WT8  8387 TIP3 H2   HT     0.417000        1.0080           0
   75374 WT8  8393 TIP3 OH2  OT    -0.834000       15.9994           0
   75375 WT8  8393 TIP3 H1   HT     0.417000        1.0080           0
   75376 WT8  8393 TIP3 H2   HT     0.417000        1.0080           0
   75377 WT8  8395 TIP3 OH2  OT    -0.834000       15.9994           0
   75378 WT8  8395 TIP3 H1   HT     0.417000        1.0080           0
   75379 WT8  8395 TIP3 H2   HT     0.417000        1.0080           0
   75380 WT8  8403 TIP3 OH2  OT    -0.834000       15.9994           0
   75381 WT8  8403 TIP3 H1   HT     0.417000        1.0080           0
   75382 WT8  8403 TIP3 H2   HT     0.417000        1.0080           0
   75383 WT8  8408 TIP3 OH2  OT    -0.834000       15.9994           0
   75384 WT8  8408 TIP3 H1   HT     0.417000        1.0080           0
   75385 WT8  8408 TIP3 H2   HT     0.417000        1.0080           0
   75386 WT8  8411 TIP3 OH2  OT    -0.834000       15.9994           0
   75387 WT8  8411 TIP3 H1   HT     0.417000        1.0080           0
   75388 WT8  8411 TIP3 H2   HT     0.417000        1.0080           0
   75389 WT8  8414 TIP3 OH2  OT    -0.834000       15.9994           0
   75390 WT8  8414 TIP3 H1   HT     0.417000        1.0080           0
   75391 WT8  8414 TIP3 H2   HT     0.417000        1.0080           0
   75392 WT8  8415 TIP3 OH2  OT    -0.834000       15.9994           0
   75393 WT8  8415 TIP3 H1   HT     0.417000        1.0080           0
   75394 WT8  8415 TIP3 H2   HT     0.417000        1.0080           0
   75395 WT8  8425 TIP3 OH2  OT    -0.834000       15.9994           0
   75396 WT8  8425 TIP3 H1   HT     0.417000        1.0080           0
   75397 WT8  8425 TIP3 H2   HT     0.417000        1.0080           0
   75398 WT8  8440 TIP3 OH2  OT    -0.834000       15.9994           0
   75399 WT8  8440 TIP3 H1   HT     0.417000        1.0080           0
   75400 WT8  8440 TIP3 H2   HT     0.417000        1.0080           0
   75401 WT8  8448 TIP3 OH2  OT    -0.834000       15.9994           0
   75402 WT8  8448 TIP3 H1   HT     0.417000        1.0080           0
   75403 WT8  8448 TIP3 H2   HT     0.417000        1.0080           0
   75404 WT8  8452 TIP3 OH2  OT    -0.834000       15.9994           0
   75405 WT8  8452 TIP3 H1   HT     0.417000        1.0080           0
   75406 WT8  8452 TIP3 H2   HT     0.417000        1.0080           0
   75407 WT8  8459 TIP3 OH2  OT    -0.834000       15.9994           0
   75408 WT8  8459 TIP3 H1   HT     0.417000        1.0080           0
   75409 WT8  8459 TIP3 H2   HT     0.417000        1.0080           0
   75410 WT8  8466 TIP3 OH2  OT    -0.834000       15.9994           0
   75411 WT8  8466 TIP3 H1   HT     0.417000        1.0080           0
   75412 WT8  8466 TIP3 H2   HT     0.417000        1.0080           0
   75413 WT8  8468 TIP3 OH2  OT    -0.834000       15.9994           0
   75414 WT8  8468 TIP3 H1   HT     0.417000        1.0080           0
   75415 WT8  8468 TIP3 H2   HT     0.417000        1.0080           0
   75416 WT8  8488 TIP3 OH2  OT    -0.834000       15.9994           0
   75417 WT8  8488 TIP3 H1   HT     0.417000        1.0080           0
   75418 WT8  8488 TIP3 H2   HT     0.417000        1.0080           0
   75419 WT8  8492 TIP3 OH2  OT    -0.834000       15.9994           0
   75420 WT8  8492 TIP3 H1   HT     0.417000        1.0080           0
   75421 WT8  8492 TIP3 H2   HT     0.417000        1.0080           0
   75422 WT8  8500 TIP3 OH2  OT    -0.834000       15.9994           0
   75423 WT8  8500 TIP3 H1   HT     0.417000        1.0080           0
   75424 WT8  8500 TIP3 H2   HT     0.417000        1.0080           0
   75425 WT8  8518 TIP3 OH2  OT    -0.834000       15.9994           0
   75426 WT8  8518 TIP3 H1   HT     0.417000        1.0080           0
   75427 WT8  8518 TIP3 H2   HT     0.417000        1.0080           0
   75428 WT8  8520 TIP3 OH2  OT    -0.834000       15.9994           0
   75429 WT8  8520 TIP3 H1   HT     0.417000        1.0080           0
   75430 WT8  8520 TIP3 H2   HT     0.417000        1.0080           0
   75431 WT8  8528 TIP3 OH2  OT    -0.834000       15.9994           0
   75432 WT8  8528 TIP3 H1   HT     0.417000        1.0080           0
   75433 WT8  8528 TIP3 H2   HT     0.417000        1.0080           0
   75434 WT8  8534 TIP3 OH2  OT    -0.834000       15.9994           0
   75435 WT8  8534 TIP3 H1   HT     0.417000        1.0080           0
   75436 WT8  8534 TIP3 H2   HT     0.417000        1.0080           0
   75437 WT8  8536 TIP3 OH2  OT    -0.834000       15.9994           0
   75438 WT8  8536 TIP3 H1   HT     0.417000        1.0080           0
   75439 WT8  8536 TIP3 H2   HT     0.417000        1.0080           0
   75440 WT8  8537 TIP3 OH2  OT    -0.834000       15.9994           0
   75441 WT8  8537 TIP3 H1   HT     0.417000        1.0080           0
   75442 WT8  8537 TIP3 H2   HT     0.417000        1.0080           0
   75443 WT8  8549 TIP3 OH2  OT    -0.834000       15.9994           0
   75444 WT8  8549 TIP3 H1   HT     0.417000        1.0080           0
   75445 WT8  8549 TIP3 H2   HT     0.417000        1.0080           0
   75446 WT8  8551 TIP3 OH2  OT    -0.834000       15.9994           0
   75447 WT8  8551 TIP3 H1   HT     0.417000        1.0080           0
   75448 WT8  8551 TIP3 H2   HT     0.417000        1.0080           0
   75449 WT8  8555 TIP3 OH2  OT    -0.834000       15.9994           0
   75450 WT8  8555 TIP3 H1   HT     0.417000        1.0080           0
   75451 WT8  8555 TIP3 H2   HT     0.417000        1.0080           0
   75452 WT8  8556 TIP3 OH2  OT    -0.834000       15.9994           0
   75453 WT8  8556 TIP3 H1   HT     0.417000        1.0080           0
   75454 WT8  8556 TIP3 H2   HT     0.417000        1.0080           0
   75455 WT8  8558 TIP3 OH2  OT    -0.834000       15.9994           0
   75456 WT8  8558 TIP3 H1   HT     0.417000        1.0080           0
   75457 WT8  8558 TIP3 H2   HT     0.417000        1.0080           0
   75458 WT8  8560 TIP3 OH2  OT    -0.834000       15.9994           0
   75459 WT8  8560 TIP3 H1   HT     0.417000        1.0080           0
   75460 WT8  8560 TIP3 H2   HT     0.417000        1.0080           0
   75461 WT8  8566 TIP3 OH2  OT    -0.834000       15.9994           0
   75462 WT8  8566 TIP3 H1   HT     0.417000        1.0080           0
   75463 WT8  8566 TIP3 H2   HT     0.417000        1.0080           0
   75464 WT8  8567 TIP3 OH2  OT    -0.834000       15.9994           0
   75465 WT8  8567 TIP3 H1   HT     0.417000        1.0080           0
   75466 WT8  8567 TIP3 H2   HT     0.417000        1.0080           0
   75467 WT8  8570 TIP3 OH2  OT    -0.834000       15.9994           0
   75468 WT8  8570 TIP3 H1   HT     0.417000        1.0080           0
   75469 WT8  8570 TIP3 H2   HT     0.417000        1.0080           0
   75470 WT8  8579 TIP3 OH2  OT    -0.834000       15.9994           0
   75471 WT8  8579 TIP3 H1   HT     0.417000        1.0080           0
   75472 WT8  8579 TIP3 H2   HT     0.417000        1.0080           0
   75473 WT8  8585 TIP3 OH2  OT    -0.834000       15.9994           0
   75474 WT8  8585 TIP3 H1   HT     0.417000        1.0080           0
   75475 WT8  8585 TIP3 H2   HT     0.417000        1.0080           0
   75476 WT8  8600 TIP3 OH2  OT    -0.834000       15.9994           0
   75477 WT8  8600 TIP3 H1   HT     0.417000        1.0080           0
   75478 WT8  8600 TIP3 H2   HT     0.417000        1.0080           0
   75479 WT8  8607 TIP3 OH2  OT    -0.834000       15.9994           0
   75480 WT8  8607 TIP3 H1   HT     0.417000        1.0080           0
   75481 WT8  8607 TIP3 H2   HT     0.417000        1.0080           0
   75482 WT8  8608 TIP3 OH2  OT    -0.834000       15.9994           0
   75483 WT8  8608 TIP3 H1   HT     0.417000        1.0080           0
   75484 WT8  8608 TIP3 H2   HT     0.417000        1.0080           0
   75485 WT8  8622 TIP3 OH2  OT    -0.834000       15.9994           0
   75486 WT8  8622 TIP3 H1   HT     0.417000        1.0080           0
   75487 WT8  8622 TIP3 H2   HT     0.417000        1.0080           0
   75488 WT8  8626 TIP3 OH2  OT    -0.834000       15.9994           0
   75489 WT8  8626 TIP3 H1   HT     0.417000        1.0080           0
   75490 WT8  8626 TIP3 H2   HT     0.417000        1.0080           0
   75491 WT8  8628 TIP3 OH2  OT    -0.834000       15.9994           0
   75492 WT8  8628 TIP3 H1   HT     0.417000        1.0080           0
   75493 WT8  8628 TIP3 H2   HT     0.417000        1.0080           0
   75494 WT8  8642 TIP3 OH2  OT    -0.834000       15.9994           0
   75495 WT8  8642 TIP3 H1   HT     0.417000        1.0080           0
   75496 WT8  8642 TIP3 H2   HT     0.417000        1.0080           0
   75497 WT8  8645 TIP3 OH2  OT    -0.834000       15.9994           0
   75498 WT8  8645 TIP3 H1   HT     0.417000        1.0080           0
   75499 WT8  8645 TIP3 H2   HT     0.417000        1.0080           0
   75500 WT8  8653 TIP3 OH2  OT    -0.834000       15.9994           0
   75501 WT8  8653 TIP3 H1   HT     0.417000        1.0080           0
   75502 WT8  8653 TIP3 H2   HT     0.417000        1.0080           0
   75503 WT8  8658 TIP3 OH2  OT    -0.834000       15.9994           0
   75504 WT8  8658 TIP3 H1   HT     0.417000        1.0080           0
   75505 WT8  8658 TIP3 H2   HT     0.417000        1.0080           0
   75506 WT8  8661 TIP3 OH2  OT    -0.834000       15.9994           0
   75507 WT8  8661 TIP3 H1   HT     0.417000        1.0080           0
   75508 WT8  8661 TIP3 H2   HT     0.417000        1.0080           0
   75509 WT8  8662 TIP3 OH2  OT    -0.834000       15.9994           0
   75510 WT8  8662 TIP3 H1   HT     0.417000        1.0080           0
   75511 WT8  8662 TIP3 H2   HT     0.417000        1.0080           0
   75512 WT8  8666 TIP3 OH2  OT    -0.834000       15.9994           0
   75513 WT8  8666 TIP3 H1   HT     0.417000        1.0080           0
   75514 WT8  8666 TIP3 H2   HT     0.417000        1.0080           0
   75515 WT8  8675 TIP3 OH2  OT    -0.834000       15.9994           0
   75516 WT8  8675 TIP3 H1   HT     0.417000        1.0080           0
   75517 WT8  8675 TIP3 H2   HT     0.417000        1.0080           0
   75518 WT8  8679 TIP3 OH2  OT    -0.834000       15.9994           0
   75519 WT8  8679 TIP3 H1   HT     0.417000        1.0080           0
   75520 WT8  8679 TIP3 H2   HT     0.417000        1.0080           0
   75521 WT8  8680 TIP3 OH2  OT    -0.834000       15.9994           0
   75522 WT8  8680 TIP3 H1   HT     0.417000        1.0080           0
   75523 WT8  8680 TIP3 H2   HT     0.417000        1.0080           0
   75524 WT8  8683 TIP3 OH2  OT    -0.834000       15.9994           0
   75525 WT8  8683 TIP3 H1   HT     0.417000        1.0080           0
   75526 WT8  8683 TIP3 H2   HT     0.417000        1.0080           0
   75527 WT8  8687 TIP3 OH2  OT    -0.834000       15.9994           0
   75528 WT8  8687 TIP3 H1   HT     0.417000        1.0080           0
   75529 WT8  8687 TIP3 H2   HT     0.417000        1.0080           0
   75530 WT8  8688 TIP3 OH2  OT    -0.834000       15.9994           0
   75531 WT8  8688 TIP3 H1   HT     0.417000        1.0080           0
   75532 WT8  8688 TIP3 H2   HT     0.417000        1.0080           0
   75533 WT8  8690 TIP3 OH2  OT    -0.834000       15.9994           0
   75534 WT8  8690 TIP3 H1   HT     0.417000        1.0080           0
   75535 WT8  8690 TIP3 H2   HT     0.417000        1.0080           0
   75536 WT8  8691 TIP3 OH2  OT    -0.834000       15.9994           0
   75537 WT8  8691 TIP3 H1   HT     0.417000        1.0080           0
   75538 WT8  8691 TIP3 H2   HT     0.417000        1.0080           0
   75539 WT8  8695 TIP3 OH2  OT    -0.834000       15.9994           0
   75540 WT8  8695 TIP3 H1   HT     0.417000        1.0080           0
   75541 WT8  8695 TIP3 H2   HT     0.417000        1.0080           0
   75542 WT8  8699 TIP3 OH2  OT    -0.834000       15.9994           0
   75543 WT8  8699 TIP3 H1   HT     0.417000        1.0080           0
   75544 WT8  8699 TIP3 H2   HT     0.417000        1.0080           0
   75545 WT8  8701 TIP3 OH2  OT    -0.834000       15.9994           0
   75546 WT8  8701 TIP3 H1   HT     0.417000        1.0080           0
   75547 WT8  8701 TIP3 H2   HT     0.417000        1.0080           0
   75548 WT8  8711 TIP3 OH2  OT    -0.834000       15.9994           0
   75549 WT8  8711 TIP3 H1   HT     0.417000        1.0080           0
   75550 WT8  8711 TIP3 H2   HT     0.417000        1.0080           0
   75551 WT8  8713 TIP3 OH2  OT    -0.834000       15.9994           0
   75552 WT8  8713 TIP3 H1   HT     0.417000        1.0080           0
   75553 WT8  8713 TIP3 H2   HT     0.417000        1.0080           0
   75554 WT8  8721 TIP3 OH2  OT    -0.834000       15.9994           0
   75555 WT8  8721 TIP3 H1   HT     0.417000        1.0080           0
   75556 WT8  8721 TIP3 H2   HT     0.417000        1.0080           0
   75557 WT8  8722 TIP3 OH2  OT    -0.834000       15.9994           0
   75558 WT8  8722 TIP3 H1   HT     0.417000        1.0080           0
   75559 WT8  8722 TIP3 H2   HT     0.417000        1.0080           0
   75560 WT8  8732 TIP3 OH2  OT    -0.834000       15.9994           0
   75561 WT8  8732 TIP3 H1   HT     0.417000        1.0080           0
   75562 WT8  8732 TIP3 H2   HT     0.417000        1.0080           0
   75563 WT8  8748 TIP3 OH2  OT    -0.834000       15.9994           0
   75564 WT8  8748 TIP3 H1   HT     0.417000        1.0080           0
   75565 WT8  8748 TIP3 H2   HT     0.417000        1.0080           0
   75566 WT8  8780 TIP3 OH2  OT    -0.834000       15.9994           0
   75567 WT8  8780 TIP3 H1   HT     0.417000        1.0080           0
   75568 WT8  8780 TIP3 H2   HT     0.417000        1.0080           0
   75569 WT8  8791 TIP3 OH2  OT    -0.834000       15.9994           0
   75570 WT8  8791 TIP3 H1   HT     0.417000        1.0080           0
   75571 WT8  8791 TIP3 H2   HT     0.417000        1.0080           0
   75572 WT8  8794 TIP3 OH2  OT    -0.834000       15.9994           0
   75573 WT8  8794 TIP3 H1   HT     0.417000        1.0080           0
   75574 WT8  8794 TIP3 H2   HT     0.417000        1.0080           0
   75575 WT8  8798 TIP3 OH2  OT    -0.834000       15.9994           0
   75576 WT8  8798 TIP3 H1   HT     0.417000        1.0080           0
   75577 WT8  8798 TIP3 H2   HT     0.417000        1.0080           0
   75578 WT8  8800 TIP3 OH2  OT    -0.834000       15.9994           0
   75579 WT8  8800 TIP3 H1   HT     0.417000        1.0080           0
   75580 WT8  8800 TIP3 H2   HT     0.417000        1.0080           0
   75581 WT8  8809 TIP3 OH2  OT    -0.834000       15.9994           0
   75582 WT8  8809 TIP3 H1   HT     0.417000        1.0080           0
   75583 WT8  8809 TIP3 H2   HT     0.417000        1.0080           0
   75584 WT8  8813 TIP3 OH2  OT    -0.834000       15.9994           0
   75585 WT8  8813 TIP3 H1   HT     0.417000        1.0080           0
   75586 WT8  8813 TIP3 H2   HT     0.417000        1.0080           0
   75587 WT8  8822 TIP3 OH2  OT    -0.834000       15.9994           0
   75588 WT8  8822 TIP3 H1   HT     0.417000        1.0080           0
   75589 WT8  8822 TIP3 H2   HT     0.417000        1.0080           0
   75590 WT8  8833 TIP3 OH2  OT    -0.834000       15.9994           0
   75591 WT8  8833 TIP3 H1   HT     0.417000        1.0080           0
   75592 WT8  8833 TIP3 H2   HT     0.417000        1.0080           0
   75593 WT8  8836 TIP3 OH2  OT    -0.834000       15.9994           0
   75594 WT8  8836 TIP3 H1   HT     0.417000        1.0080           0
   75595 WT8  8836 TIP3 H2   HT     0.417000        1.0080           0
   75596 WT8  8841 TIP3 OH2  OT    -0.834000       15.9994           0
   75597 WT8  8841 TIP3 H1   HT     0.417000        1.0080           0
   75598 WT8  8841 TIP3 H2   HT     0.417000        1.0080           0
   75599 WT8  8845 TIP3 OH2  OT    -0.834000       15.9994           0
   75600 WT8  8845 TIP3 H1   HT     0.417000        1.0080           0
   75601 WT8  8845 TIP3 H2   HT     0.417000        1.0080           0
   75602 WT8  8851 TIP3 OH2  OT    -0.834000       15.9994           0
   75603 WT8  8851 TIP3 H1   HT     0.417000        1.0080           0
   75604 WT8  8851 TIP3 H2   HT     0.417000        1.0080           0
   75605 WT8  8855 TIP3 OH2  OT    -0.834000       15.9994           0
   75606 WT8  8855 TIP3 H1   HT     0.417000        1.0080           0
   75607 WT8  8855 TIP3 H2   HT     0.417000        1.0080           0
   75608 WT8  8860 TIP3 OH2  OT    -0.834000       15.9994           0
   75609 WT8  8860 TIP3 H1   HT     0.417000        1.0080           0
   75610 WT8  8860 TIP3 H2   HT     0.417000        1.0080           0
   75611 WT8  8864 TIP3 OH2  OT    -0.834000       15.9994           0
   75612 WT8  8864 TIP3 H1   HT     0.417000        1.0080           0
   75613 WT8  8864 TIP3 H2   HT     0.417000        1.0080           0
   75614 WT8  8870 TIP3 OH2  OT    -0.834000       15.9994           0
   75615 WT8  8870 TIP3 H1   HT     0.417000        1.0080           0
   75616 WT8  8870 TIP3 H2   HT     0.417000        1.0080           0
   75617 WT8  8876 TIP3 OH2  OT    -0.834000       15.9994           0
   75618 WT8  8876 TIP3 H1   HT     0.417000        1.0080           0
   75619 WT8  8876 TIP3 H2   HT     0.417000        1.0080           0
   75620 WT8  8877 TIP3 OH2  OT    -0.834000       15.9994           0
   75621 WT8  8877 TIP3 H1   HT     0.417000        1.0080           0
   75622 WT8  8877 TIP3 H2   HT     0.417000        1.0080           0
   75623 WT8  8879 TIP3 OH2  OT    -0.834000       15.9994           0
   75624 WT8  8879 TIP3 H1   HT     0.417000        1.0080           0
   75625 WT8  8879 TIP3 H2   HT     0.417000        1.0080           0
   75626 WT8  8890 TIP3 OH2  OT    -0.834000       15.9994           0
   75627 WT8  8890 TIP3 H1   HT     0.417000        1.0080           0
   75628 WT8  8890 TIP3 H2   HT     0.417000        1.0080           0
   75629 WT8  8893 TIP3 OH2  OT    -0.834000       15.9994           0
   75630 WT8  8893 TIP3 H1   HT     0.417000        1.0080           0
   75631 WT8  8893 TIP3 H2   HT     0.417000        1.0080           0
   75632 WT8  8894 TIP3 OH2  OT    -0.834000       15.9994           0
   75633 WT8  8894 TIP3 H1   HT     0.417000        1.0080           0
   75634 WT8  8894 TIP3 H2   HT     0.417000        1.0080           0
   75635 WT8  8895 TIP3 OH2  OT    -0.834000       15.9994           0
   75636 WT8  8895 TIP3 H1   HT     0.417000        1.0080           0
   75637 WT8  8895 TIP3 H2   HT     0.417000        1.0080           0
   75638 WT8  8902 TIP3 OH2  OT    -0.834000       15.9994           0
   75639 WT8  8902 TIP3 H1   HT     0.417000        1.0080           0
   75640 WT8  8902 TIP3 H2   HT     0.417000        1.0080           0
   75641 WT8  8904 TIP3 OH2  OT    -0.834000       15.9994           0
   75642 WT8  8904 TIP3 H1   HT     0.417000        1.0080           0
   75643 WT8  8904 TIP3 H2   HT     0.417000        1.0080           0
   75644 WT8  8920 TIP3 OH2  OT    -0.834000       15.9994           0
   75645 WT8  8920 TIP3 H1   HT     0.417000        1.0080           0
   75646 WT8  8920 TIP3 H2   HT     0.417000        1.0080           0
   75647 WT8  8927 TIP3 OH2  OT    -0.834000       15.9994           0
   75648 WT8  8927 TIP3 H1   HT     0.417000        1.0080           0
   75649 WT8  8927 TIP3 H2   HT     0.417000        1.0080           0
   75650 WT8  8928 TIP3 OH2  OT    -0.834000       15.9994           0
   75651 WT8  8928 TIP3 H1   HT     0.417000        1.0080           0
   75652 WT8  8928 TIP3 H2   HT     0.417000        1.0080           0
   75653 WT8  8931 TIP3 OH2  OT    -0.834000       15.9994           0
   75654 WT8  8931 TIP3 H1   HT     0.417000        1.0080           0
   75655 WT8  8931 TIP3 H2   HT     0.417000        1.0080           0
   75656 WT8  8935 TIP3 OH2  OT    -0.834000       15.9994           0
   75657 WT8  8935 TIP3 H1   HT     0.417000        1.0080           0
   75658 WT8  8935 TIP3 H2   HT     0.417000        1.0080           0
   75659 WT8  8937 TIP3 OH2  OT    -0.834000       15.9994           0
   75660 WT8  8937 TIP3 H1   HT     0.417000        1.0080           0
   75661 WT8  8937 TIP3 H2   HT     0.417000        1.0080           0
   75662 WT8  8938 TIP3 OH2  OT    -0.834000       15.9994           0
   75663 WT8  8938 TIP3 H1   HT     0.417000        1.0080           0
   75664 WT8  8938 TIP3 H2   HT     0.417000        1.0080           0
   75665 WT8  8939 TIP3 OH2  OT    -0.834000       15.9994           0
   75666 WT8  8939 TIP3 H1   HT     0.417000        1.0080           0
   75667 WT8  8939 TIP3 H2   HT     0.417000        1.0080           0
   75668 WT8  8942 TIP3 OH2  OT    -0.834000       15.9994           0
   75669 WT8  8942 TIP3 H1   HT     0.417000        1.0080           0
   75670 WT8  8942 TIP3 H2   HT     0.417000        1.0080           0
   75671 WT8  8959 TIP3 OH2  OT    -0.834000       15.9994           0
   75672 WT8  8959 TIP3 H1   HT     0.417000        1.0080           0
   75673 WT8  8959 TIP3 H2   HT     0.417000        1.0080           0
   75674 WT8  8960 TIP3 OH2  OT    -0.834000       15.9994           0
   75675 WT8  8960 TIP3 H1   HT     0.417000        1.0080           0
   75676 WT8  8960 TIP3 H2   HT     0.417000        1.0080           0
   75677 WT8  8964 TIP3 OH2  OT    -0.834000       15.9994           0
   75678 WT8  8964 TIP3 H1   HT     0.417000        1.0080           0
   75679 WT8  8964 TIP3 H2   HT     0.417000        1.0080           0
   75680 WT8  8972 TIP3 OH2  OT    -0.834000       15.9994           0
   75681 WT8  8972 TIP3 H1   HT     0.417000        1.0080           0
   75682 WT8  8972 TIP3 H2   HT     0.417000        1.0080           0
   75683 WT8  8973 TIP3 OH2  OT    -0.834000       15.9994           0
   75684 WT8  8973 TIP3 H1   HT     0.417000        1.0080           0
   75685 WT8  8973 TIP3 H2   HT     0.417000        1.0080           0
   75686 WT8  8977 TIP3 OH2  OT    -0.834000       15.9994           0
   75687 WT8  8977 TIP3 H1   HT     0.417000        1.0080           0
   75688 WT8  8977 TIP3 H2   HT     0.417000        1.0080           0
   75689 WT8  8982 TIP3 OH2  OT    -0.834000       15.9994           0
   75690 WT8  8982 TIP3 H1   HT     0.417000        1.0080           0
   75691 WT8  8982 TIP3 H2   HT     0.417000        1.0080           0
   75692 WT8  8984 TIP3 OH2  OT    -0.834000       15.9994           0
   75693 WT8  8984 TIP3 H1   HT     0.417000        1.0080           0
   75694 WT8  8984 TIP3 H2   HT     0.417000        1.0080           0
   75695 WT8  8988 TIP3 OH2  OT    -0.834000       15.9994           0
   75696 WT8  8988 TIP3 H1   HT     0.417000        1.0080           0
   75697 WT8  8988 TIP3 H2   HT     0.417000        1.0080           0
   75698 WT8  9005 TIP3 OH2  OT    -0.834000       15.9994           0
   75699 WT8  9005 TIP3 H1   HT     0.417000        1.0080           0
   75700 WT8  9005 TIP3 H2   HT     0.417000        1.0080           0
   75701 WT8  9012 TIP3 OH2  OT    -0.834000       15.9994           0
   75702 WT8  9012 TIP3 H1   HT     0.417000        1.0080           0
   75703 WT8  9012 TIP3 H2   HT     0.417000        1.0080           0
   75704 WT8  9017 TIP3 OH2  OT    -0.834000       15.9994           0
   75705 WT8  9017 TIP3 H1   HT     0.417000        1.0080           0
   75706 WT8  9017 TIP3 H2   HT     0.417000        1.0080           0
   75707 WT8  9022 TIP3 OH2  OT    -0.834000       15.9994           0
   75708 WT8  9022 TIP3 H1   HT     0.417000        1.0080           0
   75709 WT8  9022 TIP3 H2   HT     0.417000        1.0080           0
   75710 WT8  9029 TIP3 OH2  OT    -0.834000       15.9994           0
   75711 WT8  9029 TIP3 H1   HT     0.417000        1.0080           0
   75712 WT8  9029 TIP3 H2   HT     0.417000        1.0080           0
   75713 WT8  9035 TIP3 OH2  OT    -0.834000       15.9994           0
   75714 WT8  9035 TIP3 H1   HT     0.417000        1.0080           0
   75715 WT8  9035 TIP3 H2   HT     0.417000        1.0080           0
   75716 WT8  9047 TIP3 OH2  OT    -0.834000       15.9994           0
   75717 WT8  9047 TIP3 H1   HT     0.417000        1.0080           0
   75718 WT8  9047 TIP3 H2   HT     0.417000        1.0080           0
   75719 WT8  9049 TIP3 OH2  OT    -0.834000       15.9994           0
   75720 WT8  9049 TIP3 H1   HT     0.417000        1.0080           0
   75721 WT8  9049 TIP3 H2   HT     0.417000        1.0080           0
   75722 WT8  9055 TIP3 OH2  OT    -0.834000       15.9994           0
   75723 WT8  9055 TIP3 H1   HT     0.417000        1.0080           0
   75724 WT8  9055 TIP3 H2   HT     0.417000        1.0080           0
   75725 WT8  9058 TIP3 OH2  OT    -0.834000       15.9994           0
   75726 WT8  9058 TIP3 H1   HT     0.417000        1.0080           0
   75727 WT8  9058 TIP3 H2   HT     0.417000        1.0080           0
   75728 WT8  9063 TIP3 OH2  OT    -0.834000       15.9994           0
   75729 WT8  9063 TIP3 H1   HT     0.417000        1.0080           0
   75730 WT8  9063 TIP3 H2   HT     0.417000        1.0080           0
   75731 WT8  9064 TIP3 OH2  OT    -0.834000       15.9994           0
   75732 WT8  9064 TIP3 H1   HT     0.417000        1.0080           0
   75733 WT8  9064 TIP3 H2   HT     0.417000        1.0080           0
   75734 WT8  9065 TIP3 OH2  OT    -0.834000       15.9994           0
   75735 WT8  9065 TIP3 H1   HT     0.417000        1.0080           0
   75736 WT8  9065 TIP3 H2   HT     0.417000        1.0080           0
   75737 WT8  9068 TIP3 OH2  OT    -0.834000       15.9994           0
   75738 WT8  9068 TIP3 H1   HT     0.417000        1.0080           0
   75739 WT8  9068 TIP3 H2   HT     0.417000        1.0080           0
   75740 WT8  9071 TIP3 OH2  OT    -0.834000       15.9994           0
   75741 WT8  9071 TIP3 H1   HT     0.417000        1.0080           0
   75742 WT8  9071 TIP3 H2   HT     0.417000        1.0080           0
   75743 WT8  9073 TIP3 OH2  OT    -0.834000       15.9994           0
   75744 WT8  9073 TIP3 H1   HT     0.417000        1.0080           0
   75745 WT8  9073 TIP3 H2   HT     0.417000        1.0080           0
   75746 WT8  9077 TIP3 OH2  OT    -0.834000       15.9994           0
   75747 WT8  9077 TIP3 H1   HT     0.417000        1.0080           0
   75748 WT8  9077 TIP3 H2   HT     0.417000        1.0080           0
   75749 WT8  9085 TIP3 OH2  OT    -0.834000       15.9994           0
   75750 WT8  9085 TIP3 H1   HT     0.417000        1.0080           0
   75751 WT8  9085 TIP3 H2   HT     0.417000        1.0080           0
   75752 WT8  9091 TIP3 OH2  OT    -0.834000       15.9994           0
   75753 WT8  9091 TIP3 H1   HT     0.417000        1.0080           0
   75754 WT8  9091 TIP3 H2   HT     0.417000        1.0080           0
   75755 WT8  9096 TIP3 OH2  OT    -0.834000       15.9994           0
   75756 WT8  9096 TIP3 H1   HT     0.417000        1.0080           0
   75757 WT8  9096 TIP3 H2   HT     0.417000        1.0080           0
   75758 WT8  9097 TIP3 OH2  OT    -0.834000       15.9994           0
   75759 WT8  9097 TIP3 H1   HT     0.417000        1.0080           0
   75760 WT8  9097 TIP3 H2   HT     0.417000        1.0080           0
   75761 WT8  9102 TIP3 OH2  OT    -0.834000       15.9994           0
   75762 WT8  9102 TIP3 H1   HT     0.417000        1.0080           0
   75763 WT8  9102 TIP3 H2   HT     0.417000        1.0080           0
   75764 WT8  9116 TIP3 OH2  OT    -0.834000       15.9994           0
   75765 WT8  9116 TIP3 H1   HT     0.417000        1.0080           0
   75766 WT8  9116 TIP3 H2   HT     0.417000        1.0080           0
   75767 WT8  9118 TIP3 OH2  OT    -0.834000       15.9994           0
   75768 WT8  9118 TIP3 H1   HT     0.417000        1.0080           0
   75769 WT8  9118 TIP3 H2   HT     0.417000        1.0080           0
   75770 WT8  9124 TIP3 OH2  OT    -0.834000       15.9994           0
   75771 WT8  9124 TIP3 H1   HT     0.417000        1.0080           0
   75772 WT8  9124 TIP3 H2   HT     0.417000        1.0080           0
   75773 WT8  9133 TIP3 OH2  OT    -0.834000       15.9994           0
   75774 WT8  9133 TIP3 H1   HT     0.417000        1.0080           0
   75775 WT8  9133 TIP3 H2   HT     0.417000        1.0080           0
   75776 WT8  9143 TIP3 OH2  OT    -0.834000       15.9994           0
   75777 WT8  9143 TIP3 H1   HT     0.417000        1.0080           0
   75778 WT8  9143 TIP3 H2   HT     0.417000        1.0080           0
   75779 WT8  9144 TIP3 OH2  OT    -0.834000       15.9994           0
   75780 WT8  9144 TIP3 H1   HT     0.417000        1.0080           0
   75781 WT8  9144 TIP3 H2   HT     0.417000        1.0080           0
   75782 WT8  9158 TIP3 OH2  OT    -0.834000       15.9994           0
   75783 WT8  9158 TIP3 H1   HT     0.417000        1.0080           0
   75784 WT8  9158 TIP3 H2   HT     0.417000        1.0080           0
   75785 WT8  9161 TIP3 OH2  OT    -0.834000       15.9994           0
   75786 WT8  9161 TIP3 H1   HT     0.417000        1.0080           0
   75787 WT8  9161 TIP3 H2   HT     0.417000        1.0080           0
   75788 WT8  9171 TIP3 OH2  OT    -0.834000       15.9994           0
   75789 WT8  9171 TIP3 H1   HT     0.417000        1.0080           0
   75790 WT8  9171 TIP3 H2   HT     0.417000        1.0080           0
   75791 WT8  9178 TIP3 OH2  OT    -0.834000       15.9994           0
   75792 WT8  9178 TIP3 H1   HT     0.417000        1.0080           0
   75793 WT8  9178 TIP3 H2   HT     0.417000        1.0080           0
   75794 WT8  9179 TIP3 OH2  OT    -0.834000       15.9994           0
   75795 WT8  9179 TIP3 H1   HT     0.417000        1.0080           0
   75796 WT8  9179 TIP3 H2   HT     0.417000        1.0080           0
   75797 WT8  9182 TIP3 OH2  OT    -0.834000       15.9994           0
   75798 WT8  9182 TIP3 H1   HT     0.417000        1.0080           0
   75799 WT8  9182 TIP3 H2   HT     0.417000        1.0080           0
   75800 WT8  9183 TIP3 OH2  OT    -0.834000       15.9994           0
   75801 WT8  9183 TIP3 H1   HT     0.417000        1.0080           0
   75802 WT8  9183 TIP3 H2   HT     0.417000        1.0080           0
   75803 WT8  9184 TIP3 OH2  OT    -0.834000       15.9994           0
   75804 WT8  9184 TIP3 H1   HT     0.417000        1.0080           0
   75805 WT8  9184 TIP3 H2   HT     0.417000        1.0080           0
   75806 WT8  9189 TIP3 OH2  OT    -0.834000       15.9994           0
   75807 WT8  9189 TIP3 H1   HT     0.417000        1.0080           0
   75808 WT8  9189 TIP3 H2   HT     0.417000        1.0080           0
   75809 WT8  9198 TIP3 OH2  OT    -0.834000       15.9994           0
   75810 WT8  9198 TIP3 H1   HT     0.417000        1.0080           0
   75811 WT8  9198 TIP3 H2   HT     0.417000        1.0080           0
   75812 WT8  9211 TIP3 OH2  OT    -0.834000       15.9994           0
   75813 WT8  9211 TIP3 H1   HT     0.417000        1.0080           0
   75814 WT8  9211 TIP3 H2   HT     0.417000        1.0080           0
   75815 WT8  9212 TIP3 OH2  OT    -0.834000       15.9994           0
   75816 WT8  9212 TIP3 H1   HT     0.417000        1.0080           0
   75817 WT8  9212 TIP3 H2   HT     0.417000        1.0080           0
   75818 WT8  9218 TIP3 OH2  OT    -0.834000       15.9994           0
   75819 WT8  9218 TIP3 H1   HT     0.417000        1.0080           0
   75820 WT8  9218 TIP3 H2   HT     0.417000        1.0080           0
   75821 WT8  9223 TIP3 OH2  OT    -0.834000       15.9994           0
   75822 WT8  9223 TIP3 H1   HT     0.417000        1.0080           0
   75823 WT8  9223 TIP3 H2   HT     0.417000        1.0080           0
   75824 WT8  9225 TIP3 OH2  OT    -0.834000       15.9994           0
   75825 WT8  9225 TIP3 H1   HT     0.417000        1.0080           0
   75826 WT8  9225 TIP3 H2   HT     0.417000        1.0080           0
   75827 WT8  9227 TIP3 OH2  OT    -0.834000       15.9994           0
   75828 WT8  9227 TIP3 H1   HT     0.417000        1.0080           0
   75829 WT8  9227 TIP3 H2   HT     0.417000        1.0080           0
   75830 WT8  9228 TIP3 OH2  OT    -0.834000       15.9994           0
   75831 WT8  9228 TIP3 H1   HT     0.417000        1.0080           0
   75832 WT8  9228 TIP3 H2   HT     0.417000        1.0080           0
   75833 WT8  9250 TIP3 OH2  OT    -0.834000       15.9994           0
   75834 WT8  9250 TIP3 H1   HT     0.417000        1.0080           0
   75835 WT8  9250 TIP3 H2   HT     0.417000        1.0080           0
   75836 WT8  9254 TIP3 OH2  OT    -0.834000       15.9994           0
   75837 WT8  9254 TIP3 H1   HT     0.417000        1.0080           0
   75838 WT8  9254 TIP3 H2   HT     0.417000        1.0080           0
   75839 WT9  2    TIP3 OH2  OT    -0.834000       15.9994           0
   75840 WT9  2    TIP3 H1   HT     0.417000        1.0080           0
   75841 WT9  2    TIP3 H2   HT     0.417000        1.0080           0
   75842 WT9  8    TIP3 OH2  OT    -0.834000       15.9994           0
   75843 WT9  8    TIP3 H1   HT     0.417000        1.0080           0
   75844 WT9  8    TIP3 H2   HT     0.417000        1.0080           0
   75845 WT9  14   TIP3 OH2  OT    -0.834000       15.9994           0
   75846 WT9  14   TIP3 H1   HT     0.417000        1.0080           0
   75847 WT9  14   TIP3 H2   HT     0.417000        1.0080           0
   75848 WT9  15   TIP3 OH2  OT    -0.834000       15.9994           0
   75849 WT9  15   TIP3 H1   HT     0.417000        1.0080           0
   75850 WT9  15   TIP3 H2   HT     0.417000        1.0080           0
   75851 WT9  21   TIP3 OH2  OT    -0.834000       15.9994           0
   75852 WT9  21   TIP3 H1   HT     0.417000        1.0080           0
   75853 WT9  21   TIP3 H2   HT     0.417000        1.0080           0
   75854 WT9  40   TIP3 OH2  OT    -0.834000       15.9994           0
   75855 WT9  40   TIP3 H1   HT     0.417000        1.0080           0
   75856 WT9  40   TIP3 H2   HT     0.417000        1.0080           0
   75857 WT9  44   TIP3 OH2  OT    -0.834000       15.9994           0
   75858 WT9  44   TIP3 H1   HT     0.417000        1.0080           0
   75859 WT9  44   TIP3 H2   HT     0.417000        1.0080           0
   75860 WT9  48   TIP3 OH2  OT    -0.834000       15.9994           0
   75861 WT9  48   TIP3 H1   HT     0.417000        1.0080           0
   75862 WT9  48   TIP3 H2   HT     0.417000        1.0080           0
   75863 WT9  52   TIP3 OH2  OT    -0.834000       15.9994           0
   75864 WT9  52   TIP3 H1   HT     0.417000        1.0080           0
   75865 WT9  52   TIP3 H2   HT     0.417000        1.0080           0
   75866 WT9  53   TIP3 OH2  OT    -0.834000       15.9994           0
   75867 WT9  53   TIP3 H1   HT     0.417000        1.0080           0
   75868 WT9  53   TIP3 H2   HT     0.417000        1.0080           0
   75869 WT9  55   TIP3 OH2  OT    -0.834000       15.9994           0
   75870 WT9  55   TIP3 H1   HT     0.417000        1.0080           0
   75871 WT9  55   TIP3 H2   HT     0.417000        1.0080           0
   75872 WT9  65   TIP3 OH2  OT    -0.834000       15.9994           0
   75873 WT9  65   TIP3 H1   HT     0.417000        1.0080           0
   75874 WT9  65   TIP3 H2   HT     0.417000        1.0080           0
   75875 WT9  67   TIP3 OH2  OT    -0.834000       15.9994           0
   75876 WT9  67   TIP3 H1   HT     0.417000        1.0080           0
   75877 WT9  67   TIP3 H2   HT     0.417000        1.0080           0
   75878 WT9  77   TIP3 OH2  OT    -0.834000       15.9994           0
   75879 WT9  77   TIP3 H1   HT     0.417000        1.0080           0
   75880 WT9  77   TIP3 H2   HT     0.417000        1.0080           0
   75881 WT9  87   TIP3 OH2  OT    -0.834000       15.9994           0
   75882 WT9  87   TIP3 H1   HT     0.417000        1.0080           0
   75883 WT9  87   TIP3 H2   HT     0.417000        1.0080           0
   75884 WT9  88   TIP3 OH2  OT    -0.834000       15.9994           0
   75885 WT9  88   TIP3 H1   HT     0.417000        1.0080           0
   75886 WT9  88   TIP3 H2   HT     0.417000        1.0080           0
   75887 WT9  89   TIP3 OH2  OT    -0.834000       15.9994           0
   75888 WT9  89   TIP3 H1   HT     0.417000        1.0080           0
   75889 WT9  89   TIP3 H2   HT     0.417000        1.0080           0
   75890 WT9  94   TIP3 OH2  OT    -0.834000       15.9994           0
   75891 WT9  94   TIP3 H1   HT     0.417000        1.0080           0
   75892 WT9  94   TIP3 H2   HT     0.417000        1.0080           0
   75893 WT9  95   TIP3 OH2  OT    -0.834000       15.9994           0
   75894 WT9  95   TIP3 H1   HT     0.417000        1.0080           0
   75895 WT9  95   TIP3 H2   HT     0.417000        1.0080           0
   75896 WT9  108  TIP3 OH2  OT    -0.834000       15.9994           0
   75897 WT9  108  TIP3 H1   HT     0.417000        1.0080           0
   75898 WT9  108  TIP3 H2   HT     0.417000        1.0080           0
   75899 WT9  113  TIP3 OH2  OT    -0.834000       15.9994           0
   75900 WT9  113  TIP3 H1   HT     0.417000        1.0080           0
   75901 WT9  113  TIP3 H2   HT     0.417000        1.0080           0
   75902 WT9  115  TIP3 OH2  OT    -0.834000       15.9994           0
   75903 WT9  115  TIP3 H1   HT     0.417000        1.0080           0
   75904 WT9  115  TIP3 H2   HT     0.417000        1.0080           0
   75905 WT9  135  TIP3 OH2  OT    -0.834000       15.9994           0
   75906 WT9  135  TIP3 H1   HT     0.417000        1.0080           0
   75907 WT9  135  TIP3 H2   HT     0.417000        1.0080           0
   75908 WT9  137  TIP3 OH2  OT    -0.834000       15.9994           0
   75909 WT9  137  TIP3 H1   HT     0.417000        1.0080           0
   75910 WT9  137  TIP3 H2   HT     0.417000        1.0080           0
   75911 WT9  149  TIP3 OH2  OT    -0.834000       15.9994           0
   75912 WT9  149  TIP3 H1   HT     0.417000        1.0080           0
   75913 WT9  149  TIP3 H2   HT     0.417000        1.0080           0
   75914 WT9  150  TIP3 OH2  OT    -0.834000       15.9994           0
   75915 WT9  150  TIP3 H1   HT     0.417000        1.0080           0
   75916 WT9  150  TIP3 H2   HT     0.417000        1.0080           0
   75917 WT9  153  TIP3 OH2  OT    -0.834000       15.9994           0
   75918 WT9  153  TIP3 H1   HT     0.417000        1.0080           0
   75919 WT9  153  TIP3 H2   HT     0.417000        1.0080           0
   75920 WT9  155  TIP3 OH2  OT    -0.834000       15.9994           0
   75921 WT9  155  TIP3 H1   HT     0.417000        1.0080           0
   75922 WT9  155  TIP3 H2   HT     0.417000        1.0080           0
   75923 WT9  167  TIP3 OH2  OT    -0.834000       15.9994           0
   75924 WT9  167  TIP3 H1   HT     0.417000        1.0080           0
   75925 WT9  167  TIP3 H2   HT     0.417000        1.0080           0
   75926 WT9  174  TIP3 OH2  OT    -0.834000       15.9994           0
   75927 WT9  174  TIP3 H1   HT     0.417000        1.0080           0
   75928 WT9  174  TIP3 H2   HT     0.417000        1.0080           0
   75929 WT9  175  TIP3 OH2  OT    -0.834000       15.9994           0
   75930 WT9  175  TIP3 H1   HT     0.417000        1.0080           0
   75931 WT9  175  TIP3 H2   HT     0.417000        1.0080           0
   75932 WT9  177  TIP3 OH2  OT    -0.834000       15.9994           0
   75933 WT9  177  TIP3 H1   HT     0.417000        1.0080           0
   75934 WT9  177  TIP3 H2   HT     0.417000        1.0080           0
   75935 WT9  189  TIP3 OH2  OT    -0.834000       15.9994           0
   75936 WT9  189  TIP3 H1   HT     0.417000        1.0080           0
   75937 WT9  189  TIP3 H2   HT     0.417000        1.0080           0
   75938 WT9  191  TIP3 OH2  OT    -0.834000       15.9994           0
   75939 WT9  191  TIP3 H1   HT     0.417000        1.0080           0
   75940 WT9  191  TIP3 H2   HT     0.417000        1.0080           0
   75941 WT9  194  TIP3 OH2  OT    -0.834000       15.9994           0
   75942 WT9  194  TIP3 H1   HT     0.417000        1.0080           0
   75943 WT9  194  TIP3 H2   HT     0.417000        1.0080           0
   75944 WT9  195  TIP3 OH2  OT    -0.834000       15.9994           0
   75945 WT9  195  TIP3 H1   HT     0.417000        1.0080           0
   75946 WT9  195  TIP3 H2   HT     0.417000        1.0080           0
   75947 WT9  196  TIP3 OH2  OT    -0.834000       15.9994           0
   75948 WT9  196  TIP3 H1   HT     0.417000        1.0080           0
   75949 WT9  196  TIP3 H2   HT     0.417000        1.0080           0
   75950 WT9  198  TIP3 OH2  OT    -0.834000       15.9994           0
   75951 WT9  198  TIP3 H1   HT     0.417000        1.0080           0
   75952 WT9  198  TIP3 H2   HT     0.417000        1.0080           0
   75953 WT9  205  TIP3 OH2  OT    -0.834000       15.9994           0
   75954 WT9  205  TIP3 H1   HT     0.417000        1.0080           0
   75955 WT9  205  TIP3 H2   HT     0.417000        1.0080           0
   75956 WT9  225  TIP3 OH2  OT    -0.834000       15.9994           0
   75957 WT9  225  TIP3 H1   HT     0.417000        1.0080           0
   75958 WT9  225  TIP3 H2   HT     0.417000        1.0080           0
   75959 WT9  237  TIP3 OH2  OT    -0.834000       15.9994           0
   75960 WT9  237  TIP3 H1   HT     0.417000        1.0080           0
   75961 WT9  237  TIP3 H2   HT     0.417000        1.0080           0
   75962 WT9  261  TIP3 OH2  OT    -0.834000       15.9994           0
   75963 WT9  261  TIP3 H1   HT     0.417000        1.0080           0
   75964 WT9  261  TIP3 H2   HT     0.417000        1.0080           0
   75965 WT9  267  TIP3 OH2  OT    -0.834000       15.9994           0
   75966 WT9  267  TIP3 H1   HT     0.417000        1.0080           0
   75967 WT9  267  TIP3 H2   HT     0.417000        1.0080           0
   75968 WT9  283  TIP3 OH2  OT    -0.834000       15.9994           0
   75969 WT9  283  TIP3 H1   HT     0.417000        1.0080           0
   75970 WT9  283  TIP3 H2   HT     0.417000        1.0080           0
   75971 WT9  285  TIP3 OH2  OT    -0.834000       15.9994           0
   75972 WT9  285  TIP3 H1   HT     0.417000        1.0080           0
   75973 WT9  285  TIP3 H2   HT     0.417000        1.0080           0
   75974 WT9  303  TIP3 OH2  OT    -0.834000       15.9994           0
   75975 WT9  303  TIP3 H1   HT     0.417000        1.0080           0
   75976 WT9  303  TIP3 H2   HT     0.417000        1.0080           0
   75977 WT9  306  TIP3 OH2  OT    -0.834000       15.9994           0
   75978 WT9  306  TIP3 H1   HT     0.417000        1.0080           0
   75979 WT9  306  TIP3 H2   HT     0.417000        1.0080           0
   75980 WT9  307  TIP3 OH2  OT    -0.834000       15.9994           0
   75981 WT9  307  TIP3 H1   HT     0.417000        1.0080           0
   75982 WT9  307  TIP3 H2   HT     0.417000        1.0080           0
   75983 WT9  309  TIP3 OH2  OT    -0.834000       15.9994           0
   75984 WT9  309  TIP3 H1   HT     0.417000        1.0080           0
   75985 WT9  309  TIP3 H2   HT     0.417000        1.0080           0
   75986 WT9  323  TIP3 OH2  OT    -0.834000       15.9994           0
   75987 WT9  323  TIP3 H1   HT     0.417000        1.0080           0
   75988 WT9  323  TIP3 H2   HT     0.417000        1.0080           0
   75989 WT9  325  TIP3 OH2  OT    -0.834000       15.9994           0
   75990 WT9  325  TIP3 H1   HT     0.417000        1.0080           0
   75991 WT9  325  TIP3 H2   HT     0.417000        1.0080           0
   75992 WT9  326  TIP3 OH2  OT    -0.834000       15.9994           0
   75993 WT9  326  TIP3 H1   HT     0.417000        1.0080           0
   75994 WT9  326  TIP3 H2   HT     0.417000        1.0080           0
   75995 WT9  327  TIP3 OH2  OT    -0.834000       15.9994           0
   75996 WT9  327  TIP3 H1   HT     0.417000        1.0080           0
   75997 WT9  327  TIP3 H2   HT     0.417000        1.0080           0
   75998 WT9  329  TIP3 OH2  OT    -0.834000       15.9994           0
   75999 WT9  329  TIP3 H1   HT     0.417000        1.0080           0
   76000 WT9  329  TIP3 H2   HT     0.417000        1.0080           0
   76001 WT9  338  TIP3 OH2  OT    -0.834000       15.9994           0
   76002 WT9  338  TIP3 H1   HT     0.417000        1.0080           0
   76003 WT9  338  TIP3 H2   HT     0.417000        1.0080           0
   76004 WT9  344  TIP3 OH2  OT    -0.834000       15.9994           0
   76005 WT9  344  TIP3 H1   HT     0.417000        1.0080           0
   76006 WT9  344  TIP3 H2   HT     0.417000        1.0080           0
   76007 WT9  347  TIP3 OH2  OT    -0.834000       15.9994           0
   76008 WT9  347  TIP3 H1   HT     0.417000        1.0080           0
   76009 WT9  347  TIP3 H2   HT     0.417000        1.0080           0
   76010 WT9  349  TIP3 OH2  OT    -0.834000       15.9994           0
   76011 WT9  349  TIP3 H1   HT     0.417000        1.0080           0
   76012 WT9  349  TIP3 H2   HT     0.417000        1.0080           0
   76013 WT9  368  TIP3 OH2  OT    -0.834000       15.9994           0
   76014 WT9  368  TIP3 H1   HT     0.417000        1.0080           0
   76015 WT9  368  TIP3 H2   HT     0.417000        1.0080           0
   76016 WT9  369  TIP3 OH2  OT    -0.834000       15.9994           0
   76017 WT9  369  TIP3 H1   HT     0.417000        1.0080           0
   76018 WT9  369  TIP3 H2   HT     0.417000        1.0080           0
   76019 WT9  371  TIP3 OH2  OT    -0.834000       15.9994           0
   76020 WT9  371  TIP3 H1   HT     0.417000        1.0080           0
   76021 WT9  371  TIP3 H2   HT     0.417000        1.0080           0
   76022 WT9  372  TIP3 OH2  OT    -0.834000       15.9994           0
   76023 WT9  372  TIP3 H1   HT     0.417000        1.0080           0
   76024 WT9  372  TIP3 H2   HT     0.417000        1.0080           0
   76025 WT9  389  TIP3 OH2  OT    -0.834000       15.9994           0
   76026 WT9  389  TIP3 H1   HT     0.417000        1.0080           0
   76027 WT9  389  TIP3 H2   HT     0.417000        1.0080           0
   76028 WT9  391  TIP3 OH2  OT    -0.834000       15.9994           0
   76029 WT9  391  TIP3 H1   HT     0.417000        1.0080           0
   76030 WT9  391  TIP3 H2   HT     0.417000        1.0080           0
   76031 WT9  401  TIP3 OH2  OT    -0.834000       15.9994           0
   76032 WT9  401  TIP3 H1   HT     0.417000        1.0080           0
   76033 WT9  401  TIP3 H2   HT     0.417000        1.0080           0
   76034 WT9  409  TIP3 OH2  OT    -0.834000       15.9994           0
   76035 WT9  409  TIP3 H1   HT     0.417000        1.0080           0
   76036 WT9  409  TIP3 H2   HT     0.417000        1.0080           0
   76037 WT9  416  TIP3 OH2  OT    -0.834000       15.9994           0
   76038 WT9  416  TIP3 H1   HT     0.417000        1.0080           0
   76039 WT9  416  TIP3 H2   HT     0.417000        1.0080           0
   76040 WT9  425  TIP3 OH2  OT    -0.834000       15.9994           0
   76041 WT9  425  TIP3 H1   HT     0.417000        1.0080           0
   76042 WT9  425  TIP3 H2   HT     0.417000        1.0080           0
   76043 WT9  427  TIP3 OH2  OT    -0.834000       15.9994           0
   76044 WT9  427  TIP3 H1   HT     0.417000        1.0080           0
   76045 WT9  427  TIP3 H2   HT     0.417000        1.0080           0
   76046 WT9  431  TIP3 OH2  OT    -0.834000       15.9994           0
   76047 WT9  431  TIP3 H1   HT     0.417000        1.0080           0
   76048 WT9  431  TIP3 H2   HT     0.417000        1.0080           0
   76049 WT9  446  TIP3 OH2  OT    -0.834000       15.9994           0
   76050 WT9  446  TIP3 H1   HT     0.417000        1.0080           0
   76051 WT9  446  TIP3 H2   HT     0.417000        1.0080           0
   76052 WT9  472  TIP3 OH2  OT    -0.834000       15.9994           0
   76053 WT9  472  TIP3 H1   HT     0.417000        1.0080           0
   76054 WT9  472  TIP3 H2   HT     0.417000        1.0080           0
   76055 WT9  476  TIP3 OH2  OT    -0.834000       15.9994           0
   76056 WT9  476  TIP3 H1   HT     0.417000        1.0080           0
   76057 WT9  476  TIP3 H2   HT     0.417000        1.0080           0
   76058 WT9  480  TIP3 OH2  OT    -0.834000       15.9994           0
   76059 WT9  480  TIP3 H1   HT     0.417000        1.0080           0
   76060 WT9  480  TIP3 H2   HT     0.417000        1.0080           0
   76061 WT9  481  TIP3 OH2  OT    -0.834000       15.9994           0
   76062 WT9  481  TIP3 H1   HT     0.417000        1.0080           0
   76063 WT9  481  TIP3 H2   HT     0.417000        1.0080           0
   76064 WT9  485  TIP3 OH2  OT    -0.834000       15.9994           0
   76065 WT9  485  TIP3 H1   HT     0.417000        1.0080           0
   76066 WT9  485  TIP3 H2   HT     0.417000        1.0080           0
   76067 WT9  489  TIP3 OH2  OT    -0.834000       15.9994           0
   76068 WT9  489  TIP3 H1   HT     0.417000        1.0080           0
   76069 WT9  489  TIP3 H2   HT     0.417000        1.0080           0
   76070 WT9  490  TIP3 OH2  OT    -0.834000       15.9994           0
   76071 WT9  490  TIP3 H1   HT     0.417000        1.0080           0
   76072 WT9  490  TIP3 H2   HT     0.417000        1.0080           0
   76073 WT9  491  TIP3 OH2  OT    -0.834000       15.9994           0
   76074 WT9  491  TIP3 H1   HT     0.417000        1.0080           0
   76075 WT9  491  TIP3 H2   HT     0.417000        1.0080           0
   76076 WT9  494  TIP3 OH2  OT    -0.834000       15.9994           0
   76077 WT9  494  TIP3 H1   HT     0.417000        1.0080           0
   76078 WT9  494  TIP3 H2   HT     0.417000        1.0080           0
   76079 WT9  496  TIP3 OH2  OT    -0.834000       15.9994           0
   76080 WT9  496  TIP3 H1   HT     0.417000        1.0080           0
   76081 WT9  496  TIP3 H2   HT     0.417000        1.0080           0
   76082 WT9  503  TIP3 OH2  OT    -0.834000       15.9994           0
   76083 WT9  503  TIP3 H1   HT     0.417000        1.0080           0
   76084 WT9  503  TIP3 H2   HT     0.417000        1.0080           0
   76085 WT9  506  TIP3 OH2  OT    -0.834000       15.9994           0
   76086 WT9  506  TIP3 H1   HT     0.417000        1.0080           0
   76087 WT9  506  TIP3 H2   HT     0.417000        1.0080           0
   76088 WT9  509  TIP3 OH2  OT    -0.834000       15.9994           0
   76089 WT9  509  TIP3 H1   HT     0.417000        1.0080           0
   76090 WT9  509  TIP3 H2   HT     0.417000        1.0080           0
   76091 WT9  511  TIP3 OH2  OT    -0.834000       15.9994           0
   76092 WT9  511  TIP3 H1   HT     0.417000        1.0080           0
   76093 WT9  511  TIP3 H2   HT     0.417000        1.0080           0
   76094 WT9  515  TIP3 OH2  OT    -0.834000       15.9994           0
   76095 WT9  515  TIP3 H1   HT     0.417000        1.0080           0
   76096 WT9  515  TIP3 H2   HT     0.417000        1.0080           0
   76097 WT9  516  TIP3 OH2  OT    -0.834000       15.9994           0
   76098 WT9  516  TIP3 H1   HT     0.417000        1.0080           0
   76099 WT9  516  TIP3 H2   HT     0.417000        1.0080           0
   76100 WT9  533  TIP3 OH2  OT    -0.834000       15.9994           0
   76101 WT9  533  TIP3 H1   HT     0.417000        1.0080           0
   76102 WT9  533  TIP3 H2   HT     0.417000        1.0080           0
   76103 WT9  543  TIP3 OH2  OT    -0.834000       15.9994           0
   76104 WT9  543  TIP3 H1   HT     0.417000        1.0080           0
   76105 WT9  543  TIP3 H2   HT     0.417000        1.0080           0
   76106 WT9  548  TIP3 OH2  OT    -0.834000       15.9994           0
   76107 WT9  548  TIP3 H1   HT     0.417000        1.0080           0
   76108 WT9  548  TIP3 H2   HT     0.417000        1.0080           0
   76109 WT9  550  TIP3 OH2  OT    -0.834000       15.9994           0
   76110 WT9  550  TIP3 H1   HT     0.417000        1.0080           0
   76111 WT9  550  TIP3 H2   HT     0.417000        1.0080           0
   76112 WT9  551  TIP3 OH2  OT    -0.834000       15.9994           0
   76113 WT9  551  TIP3 H1   HT     0.417000        1.0080           0
   76114 WT9  551  TIP3 H2   HT     0.417000        1.0080           0
   76115 WT9  553  TIP3 OH2  OT    -0.834000       15.9994           0
   76116 WT9  553  TIP3 H1   HT     0.417000        1.0080           0
   76117 WT9  553  TIP3 H2   HT     0.417000        1.0080           0
   76118 WT9  554  TIP3 OH2  OT    -0.834000       15.9994           0
   76119 WT9  554  TIP3 H1   HT     0.417000        1.0080           0
   76120 WT9  554  TIP3 H2   HT     0.417000        1.0080           0
   76121 WT9  555  TIP3 OH2  OT    -0.834000       15.9994           0
   76122 WT9  555  TIP3 H1   HT     0.417000        1.0080           0
   76123 WT9  555  TIP3 H2   HT     0.417000        1.0080           0
   76124 WT9  556  TIP3 OH2  OT    -0.834000       15.9994           0
   76125 WT9  556  TIP3 H1   HT     0.417000        1.0080           0
   76126 WT9  556  TIP3 H2   HT     0.417000        1.0080           0
   76127 WT9  562  TIP3 OH2  OT    -0.834000       15.9994           0
   76128 WT9  562  TIP3 H1   HT     0.417000        1.0080           0
   76129 WT9  562  TIP3 H2   HT     0.417000        1.0080           0
   76130 WT9  570  TIP3 OH2  OT    -0.834000       15.9994           0
   76131 WT9  570  TIP3 H1   HT     0.417000        1.0080           0
   76132 WT9  570  TIP3 H2   HT     0.417000        1.0080           0
   76133 WT9  573  TIP3 OH2  OT    -0.834000       15.9994           0
   76134 WT9  573  TIP3 H1   HT     0.417000        1.0080           0
   76135 WT9  573  TIP3 H2   HT     0.417000        1.0080           0
   76136 WT9  575  TIP3 OH2  OT    -0.834000       15.9994           0
   76137 WT9  575  TIP3 H1   HT     0.417000        1.0080           0
   76138 WT9  575  TIP3 H2   HT     0.417000        1.0080           0
   76139 WT9  578  TIP3 OH2  OT    -0.834000       15.9994           0
   76140 WT9  578  TIP3 H1   HT     0.417000        1.0080           0
   76141 WT9  578  TIP3 H2   HT     0.417000        1.0080           0
   76142 WT9  591  TIP3 OH2  OT    -0.834000       15.9994           0
   76143 WT9  591  TIP3 H1   HT     0.417000        1.0080           0
   76144 WT9  591  TIP3 H2   HT     0.417000        1.0080           0
   76145 WT9  593  TIP3 OH2  OT    -0.834000       15.9994           0
   76146 WT9  593  TIP3 H1   HT     0.417000        1.0080           0
   76147 WT9  593  TIP3 H2   HT     0.417000        1.0080           0
   76148 WT9  594  TIP3 OH2  OT    -0.834000       15.9994           0
   76149 WT9  594  TIP3 H1   HT     0.417000        1.0080           0
   76150 WT9  594  TIP3 H2   HT     0.417000        1.0080           0
   76151 WT9  599  TIP3 OH2  OT    -0.834000       15.9994           0
   76152 WT9  599  TIP3 H1   HT     0.417000        1.0080           0
   76153 WT9  599  TIP3 H2   HT     0.417000        1.0080           0
   76154 WT9  600  TIP3 OH2  OT    -0.834000       15.9994           0
   76155 WT9  600  TIP3 H1   HT     0.417000        1.0080           0
   76156 WT9  600  TIP3 H2   HT     0.417000        1.0080           0
   76157 WT9  602  TIP3 OH2  OT    -0.834000       15.9994           0
   76158 WT9  602  TIP3 H1   HT     0.417000        1.0080           0
   76159 WT9  602  TIP3 H2   HT     0.417000        1.0080           0
   76160 WT9  616  TIP3 OH2  OT    -0.834000       15.9994           0
   76161 WT9  616  TIP3 H1   HT     0.417000        1.0080           0
   76162 WT9  616  TIP3 H2   HT     0.417000        1.0080           0
   76163 WT9  619  TIP3 OH2  OT    -0.834000       15.9994           0
   76164 WT9  619  TIP3 H1   HT     0.417000        1.0080           0
   76165 WT9  619  TIP3 H2   HT     0.417000        1.0080           0
   76166 WT9  626  TIP3 OH2  OT    -0.834000       15.9994           0
   76167 WT9  626  TIP3 H1   HT     0.417000        1.0080           0
   76168 WT9  626  TIP3 H2   HT     0.417000        1.0080           0
   76169 WT9  638  TIP3 OH2  OT    -0.834000       15.9994           0
   76170 WT9  638  TIP3 H1   HT     0.417000        1.0080           0
   76171 WT9  638  TIP3 H2   HT     0.417000        1.0080           0
   76172 WT9  639  TIP3 OH2  OT    -0.834000       15.9994           0
   76173 WT9  639  TIP3 H1   HT     0.417000        1.0080           0
   76174 WT9  639  TIP3 H2   HT     0.417000        1.0080           0
   76175 WT9  653  TIP3 OH2  OT    -0.834000       15.9994           0
   76176 WT9  653  TIP3 H1   HT     0.417000        1.0080           0
   76177 WT9  653  TIP3 H2   HT     0.417000        1.0080           0
   76178 WT9  662  TIP3 OH2  OT    -0.834000       15.9994           0
   76179 WT9  662  TIP3 H1   HT     0.417000        1.0080           0
   76180 WT9  662  TIP3 H2   HT     0.417000        1.0080           0
   76181 WT9  666  TIP3 OH2  OT    -0.834000       15.9994           0
   76182 WT9  666  TIP3 H1   HT     0.417000        1.0080           0
   76183 WT9  666  TIP3 H2   HT     0.417000        1.0080           0
   76184 WT9  674  TIP3 OH2  OT    -0.834000       15.9994           0
   76185 WT9  674  TIP3 H1   HT     0.417000        1.0080           0
   76186 WT9  674  TIP3 H2   HT     0.417000        1.0080           0
   76187 WT9  677  TIP3 OH2  OT    -0.834000       15.9994           0
   76188 WT9  677  TIP3 H1   HT     0.417000        1.0080           0
   76189 WT9  677  TIP3 H2   HT     0.417000        1.0080           0
   76190 WT9  678  TIP3 OH2  OT    -0.834000       15.9994           0
   76191 WT9  678  TIP3 H1   HT     0.417000        1.0080           0
   76192 WT9  678  TIP3 H2   HT     0.417000        1.0080           0
   76193 WT9  684  TIP3 OH2  OT    -0.834000       15.9994           0
   76194 WT9  684  TIP3 H1   HT     0.417000        1.0080           0
   76195 WT9  684  TIP3 H2   HT     0.417000        1.0080           0
   76196 WT9  704  TIP3 OH2  OT    -0.834000       15.9994           0
   76197 WT9  704  TIP3 H1   HT     0.417000        1.0080           0
   76198 WT9  704  TIP3 H2   HT     0.417000        1.0080           0
   76199 WT9  707  TIP3 OH2  OT    -0.834000       15.9994           0
   76200 WT9  707  TIP3 H1   HT     0.417000        1.0080           0
   76201 WT9  707  TIP3 H2   HT     0.417000        1.0080           0
   76202 WT9  711  TIP3 OH2  OT    -0.834000       15.9994           0
   76203 WT9  711  TIP3 H1   HT     0.417000        1.0080           0
   76204 WT9  711  TIP3 H2   HT     0.417000        1.0080           0
   76205 WT9  715  TIP3 OH2  OT    -0.834000       15.9994           0
   76206 WT9  715  TIP3 H1   HT     0.417000        1.0080           0
   76207 WT9  715  TIP3 H2   HT     0.417000        1.0080           0
   76208 WT9  717  TIP3 OH2  OT    -0.834000       15.9994           0
   76209 WT9  717  TIP3 H1   HT     0.417000        1.0080           0
   76210 WT9  717  TIP3 H2   HT     0.417000        1.0080           0
   76211 WT9  721  TIP3 OH2  OT    -0.834000       15.9994           0
   76212 WT9  721  TIP3 H1   HT     0.417000        1.0080           0
   76213 WT9  721  TIP3 H2   HT     0.417000        1.0080           0
   76214 WT9  722  TIP3 OH2  OT    -0.834000       15.9994           0
   76215 WT9  722  TIP3 H1   HT     0.417000        1.0080           0
   76216 WT9  722  TIP3 H2   HT     0.417000        1.0080           0
   76217 WT9  726  TIP3 OH2  OT    -0.834000       15.9994           0
   76218 WT9  726  TIP3 H1   HT     0.417000        1.0080           0
   76219 WT9  726  TIP3 H2   HT     0.417000        1.0080           0
   76220 WT9  733  TIP3 OH2  OT    -0.834000       15.9994           0
   76221 WT9  733  TIP3 H1   HT     0.417000        1.0080           0
   76222 WT9  733  TIP3 H2   HT     0.417000        1.0080           0
   76223 WT9  738  TIP3 OH2  OT    -0.834000       15.9994           0
   76224 WT9  738  TIP3 H1   HT     0.417000        1.0080           0
   76225 WT9  738  TIP3 H2   HT     0.417000        1.0080           0
   76226 WT9  746  TIP3 OH2  OT    -0.834000       15.9994           0
   76227 WT9  746  TIP3 H1   HT     0.417000        1.0080           0
   76228 WT9  746  TIP3 H2   HT     0.417000        1.0080           0
   76229 WT9  749  TIP3 OH2  OT    -0.834000       15.9994           0
   76230 WT9  749  TIP3 H1   HT     0.417000        1.0080           0
   76231 WT9  749  TIP3 H2   HT     0.417000        1.0080           0
   76232 WT9  761  TIP3 OH2  OT    -0.834000       15.9994           0
   76233 WT9  761  TIP3 H1   HT     0.417000        1.0080           0
   76234 WT9  761  TIP3 H2   HT     0.417000        1.0080           0
   76235 WT9  766  TIP3 OH2  OT    -0.834000       15.9994           0
   76236 WT9  766  TIP3 H1   HT     0.417000        1.0080           0
   76237 WT9  766  TIP3 H2   HT     0.417000        1.0080           0
   76238 WT9  768  TIP3 OH2  OT    -0.834000       15.9994           0
   76239 WT9  768  TIP3 H1   HT     0.417000        1.0080           0
   76240 WT9  768  TIP3 H2   HT     0.417000        1.0080           0
   76241 WT9  782  TIP3 OH2  OT    -0.834000       15.9994           0
   76242 WT9  782  TIP3 H1   HT     0.417000        1.0080           0
   76243 WT9  782  TIP3 H2   HT     0.417000        1.0080           0
   76244 WT9  792  TIP3 OH2  OT    -0.834000       15.9994           0
   76245 WT9  792  TIP3 H1   HT     0.417000        1.0080           0
   76246 WT9  792  TIP3 H2   HT     0.417000        1.0080           0
   76247 WT9  807  TIP3 OH2  OT    -0.834000       15.9994           0
   76248 WT9  807  TIP3 H1   HT     0.417000        1.0080           0
   76249 WT9  807  TIP3 H2   HT     0.417000        1.0080           0
   76250 WT9  808  TIP3 OH2  OT    -0.834000       15.9994           0
   76251 WT9  808  TIP3 H1   HT     0.417000        1.0080           0
   76252 WT9  808  TIP3 H2   HT     0.417000        1.0080           0
   76253 WT9  822  TIP3 OH2  OT    -0.834000       15.9994           0
   76254 WT9  822  TIP3 H1   HT     0.417000        1.0080           0
   76255 WT9  822  TIP3 H2   HT     0.417000        1.0080           0
   76256 WT9  827  TIP3 OH2  OT    -0.834000       15.9994           0
   76257 WT9  827  TIP3 H1   HT     0.417000        1.0080           0
   76258 WT9  827  TIP3 H2   HT     0.417000        1.0080           0
   76259 WT9  829  TIP3 OH2  OT    -0.834000       15.9994           0
   76260 WT9  829  TIP3 H1   HT     0.417000        1.0080           0
   76261 WT9  829  TIP3 H2   HT     0.417000        1.0080           0
   76262 WT9  831  TIP3 OH2  OT    -0.834000       15.9994           0
   76263 WT9  831  TIP3 H1   HT     0.417000        1.0080           0
   76264 WT9  831  TIP3 H2   HT     0.417000        1.0080           0
   76265 WT9  834  TIP3 OH2  OT    -0.834000       15.9994           0
   76266 WT9  834  TIP3 H1   HT     0.417000        1.0080           0
   76267 WT9  834  TIP3 H2   HT     0.417000        1.0080           0
   76268 WT9  843  TIP3 OH2  OT    -0.834000       15.9994           0
   76269 WT9  843  TIP3 H1   HT     0.417000        1.0080           0
   76270 WT9  843  TIP3 H2   HT     0.417000        1.0080           0
   76271 WT9  846  TIP3 OH2  OT    -0.834000       15.9994           0
   76272 WT9  846  TIP3 H1   HT     0.417000        1.0080           0
   76273 WT9  846  TIP3 H2   HT     0.417000        1.0080           0
   76274 WT9  849  TIP3 OH2  OT    -0.834000       15.9994           0
   76275 WT9  849  TIP3 H1   HT     0.417000        1.0080           0
   76276 WT9  849  TIP3 H2   HT     0.417000        1.0080           0
   76277 WT9  852  TIP3 OH2  OT    -0.834000       15.9994           0
   76278 WT9  852  TIP3 H1   HT     0.417000        1.0080           0
   76279 WT9  852  TIP3 H2   HT     0.417000        1.0080           0
   76280 WT9  854  TIP3 OH2  OT    -0.834000       15.9994           0
   76281 WT9  854  TIP3 H1   HT     0.417000        1.0080           0
   76282 WT9  854  TIP3 H2   HT     0.417000        1.0080           0
   76283 WT9  880  TIP3 OH2  OT    -0.834000       15.9994           0
   76284 WT9  880  TIP3 H1   HT     0.417000        1.0080           0
   76285 WT9  880  TIP3 H2   HT     0.417000        1.0080           0
   76286 WT9  889  TIP3 OH2  OT    -0.834000       15.9994           0
   76287 WT9  889  TIP3 H1   HT     0.417000        1.0080           0
   76288 WT9  889  TIP3 H2   HT     0.417000        1.0080           0
   76289 WT9  892  TIP3 OH2  OT    -0.834000       15.9994           0
   76290 WT9  892  TIP3 H1   HT     0.417000        1.0080           0
   76291 WT9  892  TIP3 H2   HT     0.417000        1.0080           0
   76292 WT9  895  TIP3 OH2  OT    -0.834000       15.9994           0
   76293 WT9  895  TIP3 H1   HT     0.417000        1.0080           0
   76294 WT9  895  TIP3 H2   HT     0.417000        1.0080           0
   76295 WT9  898  TIP3 OH2  OT    -0.834000       15.9994           0
   76296 WT9  898  TIP3 H1   HT     0.417000        1.0080           0
   76297 WT9  898  TIP3 H2   HT     0.417000        1.0080           0
   76298 WT9  908  TIP3 OH2  OT    -0.834000       15.9994           0
   76299 WT9  908  TIP3 H1   HT     0.417000        1.0080           0
   76300 WT9  908  TIP3 H2   HT     0.417000        1.0080           0
   76301 WT9  910  TIP3 OH2  OT    -0.834000       15.9994           0
   76302 WT9  910  TIP3 H1   HT     0.417000        1.0080           0
   76303 WT9  910  TIP3 H2   HT     0.417000        1.0080           0
   76304 WT9  914  TIP3 OH2  OT    -0.834000       15.9994           0
   76305 WT9  914  TIP3 H1   HT     0.417000        1.0080           0
   76306 WT9  914  TIP3 H2   HT     0.417000        1.0080           0
   76307 WT9  928  TIP3 OH2  OT    -0.834000       15.9994           0
   76308 WT9  928  TIP3 H1   HT     0.417000        1.0080           0
   76309 WT9  928  TIP3 H2   HT     0.417000        1.0080           0
   76310 WT9  930  TIP3 OH2  OT    -0.834000       15.9994           0
   76311 WT9  930  TIP3 H1   HT     0.417000        1.0080           0
   76312 WT9  930  TIP3 H2   HT     0.417000        1.0080           0
   76313 WT9  933  TIP3 OH2  OT    -0.834000       15.9994           0
   76314 WT9  933  TIP3 H1   HT     0.417000        1.0080           0
   76315 WT9  933  TIP3 H2   HT     0.417000        1.0080           0
   76316 WT9  934  TIP3 OH2  OT    -0.834000       15.9994           0
   76317 WT9  934  TIP3 H1   HT     0.417000        1.0080           0
   76318 WT9  934  TIP3 H2   HT     0.417000        1.0080           0
   76319 WT9  935  TIP3 OH2  OT    -0.834000       15.9994           0
   76320 WT9  935  TIP3 H1   HT     0.417000        1.0080           0
   76321 WT9  935  TIP3 H2   HT     0.417000        1.0080           0
   76322 WT9  936  TIP3 OH2  OT    -0.834000       15.9994           0
   76323 WT9  936  TIP3 H1   HT     0.417000        1.0080           0
   76324 WT9  936  TIP3 H2   HT     0.417000        1.0080           0
   76325 WT9  940  TIP3 OH2  OT    -0.834000       15.9994           0
   76326 WT9  940  TIP3 H1   HT     0.417000        1.0080           0
   76327 WT9  940  TIP3 H2   HT     0.417000        1.0080           0
   76328 WT9  954  TIP3 OH2  OT    -0.834000       15.9994           0
   76329 WT9  954  TIP3 H1   HT     0.417000        1.0080           0
   76330 WT9  954  TIP3 H2   HT     0.417000        1.0080           0
   76331 WT9  969  TIP3 OH2  OT    -0.834000       15.9994           0
   76332 WT9  969  TIP3 H1   HT     0.417000        1.0080           0
   76333 WT9  969  TIP3 H2   HT     0.417000        1.0080           0
   76334 WT9  978  TIP3 OH2  OT    -0.834000       15.9994           0
   76335 WT9  978  TIP3 H1   HT     0.417000        1.0080           0
   76336 WT9  978  TIP3 H2   HT     0.417000        1.0080           0
   76337 WT9  983  TIP3 OH2  OT    -0.834000       15.9994           0
   76338 WT9  983  TIP3 H1   HT     0.417000        1.0080           0
   76339 WT9  983  TIP3 H2   HT     0.417000        1.0080           0
   76340 WT9  987  TIP3 OH2  OT    -0.834000       15.9994           0
   76341 WT9  987  TIP3 H1   HT     0.417000        1.0080           0
   76342 WT9  987  TIP3 H2   HT     0.417000        1.0080           0
   76343 WT9  996  TIP3 OH2  OT    -0.834000       15.9994           0
   76344 WT9  996  TIP3 H1   HT     0.417000        1.0080           0
   76345 WT9  996  TIP3 H2   HT     0.417000        1.0080           0
   76346 WT9  1011 TIP3 OH2  OT    -0.834000       15.9994           0
   76347 WT9  1011 TIP3 H1   HT     0.417000        1.0080           0
   76348 WT9  1011 TIP3 H2   HT     0.417000        1.0080           0
   76349 WT9  1018 TIP3 OH2  OT    -0.834000       15.9994           0
   76350 WT9  1018 TIP3 H1   HT     0.417000        1.0080           0
   76351 WT9  1018 TIP3 H2   HT     0.417000        1.0080           0
   76352 WT9  1019 TIP3 OH2  OT    -0.834000       15.9994           0
   76353 WT9  1019 TIP3 H1   HT     0.417000        1.0080           0
   76354 WT9  1019 TIP3 H2   HT     0.417000        1.0080           0
   76355 WT9  1043 TIP3 OH2  OT    -0.834000       15.9994           0
   76356 WT9  1043 TIP3 H1   HT     0.417000        1.0080           0
   76357 WT9  1043 TIP3 H2   HT     0.417000        1.0080           0
   76358 WT9  1061 TIP3 OH2  OT    -0.834000       15.9994           0
   76359 WT9  1061 TIP3 H1   HT     0.417000        1.0080           0
   76360 WT9  1061 TIP3 H2   HT     0.417000        1.0080           0
   76361 WT9  1066 TIP3 OH2  OT    -0.834000       15.9994           0
   76362 WT9  1066 TIP3 H1   HT     0.417000        1.0080           0
   76363 WT9  1066 TIP3 H2   HT     0.417000        1.0080           0
   76364 WT9  1076 TIP3 OH2  OT    -0.834000       15.9994           0
   76365 WT9  1076 TIP3 H1   HT     0.417000        1.0080           0
   76366 WT9  1076 TIP3 H2   HT     0.417000        1.0080           0
   76367 WT9  1077 TIP3 OH2  OT    -0.834000       15.9994           0
   76368 WT9  1077 TIP3 H1   HT     0.417000        1.0080           0
   76369 WT9  1077 TIP3 H2   HT     0.417000        1.0080           0
   76370 WT9  1080 TIP3 OH2  OT    -0.834000       15.9994           0
   76371 WT9  1080 TIP3 H1   HT     0.417000        1.0080           0
   76372 WT9  1080 TIP3 H2   HT     0.417000        1.0080           0
   76373 WT9  1098 TIP3 OH2  OT    -0.834000       15.9994           0
   76374 WT9  1098 TIP3 H1   HT     0.417000        1.0080           0
   76375 WT9  1098 TIP3 H2   HT     0.417000        1.0080           0
   76376 WT9  1104 TIP3 OH2  OT    -0.834000       15.9994           0
   76377 WT9  1104 TIP3 H1   HT     0.417000        1.0080           0
   76378 WT9  1104 TIP3 H2   HT     0.417000        1.0080           0
   76379 WT9  1125 TIP3 OH2  OT    -0.834000       15.9994           0
   76380 WT9  1125 TIP3 H1   HT     0.417000        1.0080           0
   76381 WT9  1125 TIP3 H2   HT     0.417000        1.0080           0
   76382 WT9  1138 TIP3 OH2  OT    -0.834000       15.9994           0
   76383 WT9  1138 TIP3 H1   HT     0.417000        1.0080           0
   76384 WT9  1138 TIP3 H2   HT     0.417000        1.0080           0
   76385 WT9  1163 TIP3 OH2  OT    -0.834000       15.9994           0
   76386 WT9  1163 TIP3 H1   HT     0.417000        1.0080           0
   76387 WT9  1163 TIP3 H2   HT     0.417000        1.0080           0
   76388 WT9  1167 TIP3 OH2  OT    -0.834000       15.9994           0
   76389 WT9  1167 TIP3 H1   HT     0.417000        1.0080           0
   76390 WT9  1167 TIP3 H2   HT     0.417000        1.0080           0
   76391 WT9  1168 TIP3 OH2  OT    -0.834000       15.9994           0
   76392 WT9  1168 TIP3 H1   HT     0.417000        1.0080           0
   76393 WT9  1168 TIP3 H2   HT     0.417000        1.0080           0
   76394 WT9  1186 TIP3 OH2  OT    -0.834000       15.9994           0
   76395 WT9  1186 TIP3 H1   HT     0.417000        1.0080           0
   76396 WT9  1186 TIP3 H2   HT     0.417000        1.0080           0
   76397 WT9  1194 TIP3 OH2  OT    -0.834000       15.9994           0
   76398 WT9  1194 TIP3 H1   HT     0.417000        1.0080           0
   76399 WT9  1194 TIP3 H2   HT     0.417000        1.0080           0
   76400 WT9  1195 TIP3 OH2  OT    -0.834000       15.9994           0
   76401 WT9  1195 TIP3 H1   HT     0.417000        1.0080           0
   76402 WT9  1195 TIP3 H2   HT     0.417000        1.0080           0
   76403 WT9  1201 TIP3 OH2  OT    -0.834000       15.9994           0
   76404 WT9  1201 TIP3 H1   HT     0.417000        1.0080           0
   76405 WT9  1201 TIP3 H2   HT     0.417000        1.0080           0
   76406 WT9  1206 TIP3 OH2  OT    -0.834000       15.9994           0
   76407 WT9  1206 TIP3 H1   HT     0.417000        1.0080           0
   76408 WT9  1206 TIP3 H2   HT     0.417000        1.0080           0
   76409 WT9  1207 TIP3 OH2  OT    -0.834000       15.9994           0
   76410 WT9  1207 TIP3 H1   HT     0.417000        1.0080           0
   76411 WT9  1207 TIP3 H2   HT     0.417000        1.0080           0
   76412 WT9  1217 TIP3 OH2  OT    -0.834000       15.9994           0
   76413 WT9  1217 TIP3 H1   HT     0.417000        1.0080           0
   76414 WT9  1217 TIP3 H2   HT     0.417000        1.0080           0
   76415 WT9  1240 TIP3 OH2  OT    -0.834000       15.9994           0
   76416 WT9  1240 TIP3 H1   HT     0.417000        1.0080           0
   76417 WT9  1240 TIP3 H2   HT     0.417000        1.0080           0
   76418 WT9  1248 TIP3 OH2  OT    -0.834000       15.9994           0
   76419 WT9  1248 TIP3 H1   HT     0.417000        1.0080           0
   76420 WT9  1248 TIP3 H2   HT     0.417000        1.0080           0
   76421 WT9  1249 TIP3 OH2  OT    -0.834000       15.9994           0
   76422 WT9  1249 TIP3 H1   HT     0.417000        1.0080           0
   76423 WT9  1249 TIP3 H2   HT     0.417000        1.0080           0
   76424 WT9  1252 TIP3 OH2  OT    -0.834000       15.9994           0
   76425 WT9  1252 TIP3 H1   HT     0.417000        1.0080           0
   76426 WT9  1252 TIP3 H2   HT     0.417000        1.0080           0
   76427 WT9  1269 TIP3 OH2  OT    -0.834000       15.9994           0
   76428 WT9  1269 TIP3 H1   HT     0.417000        1.0080           0
   76429 WT9  1269 TIP3 H2   HT     0.417000        1.0080           0
   76430 WT9  1277 TIP3 OH2  OT    -0.834000       15.9994           0
   76431 WT9  1277 TIP3 H1   HT     0.417000        1.0080           0
   76432 WT9  1277 TIP3 H2   HT     0.417000        1.0080           0
   76433 WT9  1278 TIP3 OH2  OT    -0.834000       15.9994           0
   76434 WT9  1278 TIP3 H1   HT     0.417000        1.0080           0
   76435 WT9  1278 TIP3 H2   HT     0.417000        1.0080           0
   76436 WT9  1281 TIP3 OH2  OT    -0.834000       15.9994           0
   76437 WT9  1281 TIP3 H1   HT     0.417000        1.0080           0
   76438 WT9  1281 TIP3 H2   HT     0.417000        1.0080           0
   76439 WT9  1285 TIP3 OH2  OT    -0.834000       15.9994           0
   76440 WT9  1285 TIP3 H1   HT     0.417000        1.0080           0
   76441 WT9  1285 TIP3 H2   HT     0.417000        1.0080           0
   76442 WT9  1287 TIP3 OH2  OT    -0.834000       15.9994           0
   76443 WT9  1287 TIP3 H1   HT     0.417000        1.0080           0
   76444 WT9  1287 TIP3 H2   HT     0.417000        1.0080           0
   76445 WT9  1295 TIP3 OH2  OT    -0.834000       15.9994           0
   76446 WT9  1295 TIP3 H1   HT     0.417000        1.0080           0
   76447 WT9  1295 TIP3 H2   HT     0.417000        1.0080           0
   76448 WT9  1298 TIP3 OH2  OT    -0.834000       15.9994           0
   76449 WT9  1298 TIP3 H1   HT     0.417000        1.0080           0
   76450 WT9  1298 TIP3 H2   HT     0.417000        1.0080           0
   76451 WT9  1301 TIP3 OH2  OT    -0.834000       15.9994           0
   76452 WT9  1301 TIP3 H1   HT     0.417000        1.0080           0
   76453 WT9  1301 TIP3 H2   HT     0.417000        1.0080           0
   76454 WT9  1303 TIP3 OH2  OT    -0.834000       15.9994           0
   76455 WT9  1303 TIP3 H1   HT     0.417000        1.0080           0
   76456 WT9  1303 TIP3 H2   HT     0.417000        1.0080           0
   76457 WT9  1312 TIP3 OH2  OT    -0.834000       15.9994           0
   76458 WT9  1312 TIP3 H1   HT     0.417000        1.0080           0
   76459 WT9  1312 TIP3 H2   HT     0.417000        1.0080           0
   76460 WT9  1328 TIP3 OH2  OT    -0.834000       15.9994           0
   76461 WT9  1328 TIP3 H1   HT     0.417000        1.0080           0
   76462 WT9  1328 TIP3 H2   HT     0.417000        1.0080           0
   76463 WT9  1336 TIP3 OH2  OT    -0.834000       15.9994           0
   76464 WT9  1336 TIP3 H1   HT     0.417000        1.0080           0
   76465 WT9  1336 TIP3 H2   HT     0.417000        1.0080           0
   76466 WT9  1345 TIP3 OH2  OT    -0.834000       15.9994           0
   76467 WT9  1345 TIP3 H1   HT     0.417000        1.0080           0
   76468 WT9  1345 TIP3 H2   HT     0.417000        1.0080           0
   76469 WT9  1354 TIP3 OH2  OT    -0.834000       15.9994           0
   76470 WT9  1354 TIP3 H1   HT     0.417000        1.0080           0
   76471 WT9  1354 TIP3 H2   HT     0.417000        1.0080           0
   76472 WT9  1356 TIP3 OH2  OT    -0.834000       15.9994           0
   76473 WT9  1356 TIP3 H1   HT     0.417000        1.0080           0
   76474 WT9  1356 TIP3 H2   HT     0.417000        1.0080           0
   76475 WT9  1358 TIP3 OH2  OT    -0.834000       15.9994           0
   76476 WT9  1358 TIP3 H1   HT     0.417000        1.0080           0
   76477 WT9  1358 TIP3 H2   HT     0.417000        1.0080           0
   76478 WT9  1370 TIP3 OH2  OT    -0.834000       15.9994           0
   76479 WT9  1370 TIP3 H1   HT     0.417000        1.0080           0
   76480 WT9  1370 TIP3 H2   HT     0.417000        1.0080           0
   76481 WT9  1372 TIP3 OH2  OT    -0.834000       15.9994           0
   76482 WT9  1372 TIP3 H1   HT     0.417000        1.0080           0
   76483 WT9  1372 TIP3 H2   HT     0.417000        1.0080           0
   76484 WT9  1373 TIP3 OH2  OT    -0.834000       15.9994           0
   76485 WT9  1373 TIP3 H1   HT     0.417000        1.0080           0
   76486 WT9  1373 TIP3 H2   HT     0.417000        1.0080           0
   76487 WT9  1374 TIP3 OH2  OT    -0.834000       15.9994           0
   76488 WT9  1374 TIP3 H1   HT     0.417000        1.0080           0
   76489 WT9  1374 TIP3 H2   HT     0.417000        1.0080           0
   76490 WT9  1387 TIP3 OH2  OT    -0.834000       15.9994           0
   76491 WT9  1387 TIP3 H1   HT     0.417000        1.0080           0
   76492 WT9  1387 TIP3 H2   HT     0.417000        1.0080           0
   76493 WT9  1395 TIP3 OH2  OT    -0.834000       15.9994           0
   76494 WT9  1395 TIP3 H1   HT     0.417000        1.0080           0
   76495 WT9  1395 TIP3 H2   HT     0.417000        1.0080           0
   76496 WT9  1401 TIP3 OH2  OT    -0.834000       15.9994           0
   76497 WT9  1401 TIP3 H1   HT     0.417000        1.0080           0
   76498 WT9  1401 TIP3 H2   HT     0.417000        1.0080           0
   76499 WT9  1408 TIP3 OH2  OT    -0.834000       15.9994           0
   76500 WT9  1408 TIP3 H1   HT     0.417000        1.0080           0
   76501 WT9  1408 TIP3 H2   HT     0.417000        1.0080           0
   76502 WT9  1414 TIP3 OH2  OT    -0.834000       15.9994           0
   76503 WT9  1414 TIP3 H1   HT     0.417000        1.0080           0
   76504 WT9  1414 TIP3 H2   HT     0.417000        1.0080           0
   76505 WT9  1429 TIP3 OH2  OT    -0.834000       15.9994           0
   76506 WT9  1429 TIP3 H1   HT     0.417000        1.0080           0
   76507 WT9  1429 TIP3 H2   HT     0.417000        1.0080           0
   76508 WT9  1433 TIP3 OH2  OT    -0.834000       15.9994           0
   76509 WT9  1433 TIP3 H1   HT     0.417000        1.0080           0
   76510 WT9  1433 TIP3 H2   HT     0.417000        1.0080           0
   76511 WT9  1436 TIP3 OH2  OT    -0.834000       15.9994           0
   76512 WT9  1436 TIP3 H1   HT     0.417000        1.0080           0
   76513 WT9  1436 TIP3 H2   HT     0.417000        1.0080           0
   76514 WT9  1440 TIP3 OH2  OT    -0.834000       15.9994           0
   76515 WT9  1440 TIP3 H1   HT     0.417000        1.0080           0
   76516 WT9  1440 TIP3 H2   HT     0.417000        1.0080           0
   76517 WT9  1451 TIP3 OH2  OT    -0.834000       15.9994           0
   76518 WT9  1451 TIP3 H1   HT     0.417000        1.0080           0
   76519 WT9  1451 TIP3 H2   HT     0.417000        1.0080           0
   76520 WT9  1459 TIP3 OH2  OT    -0.834000       15.9994           0
   76521 WT9  1459 TIP3 H1   HT     0.417000        1.0080           0
   76522 WT9  1459 TIP3 H2   HT     0.417000        1.0080           0
   76523 WT9  1476 TIP3 OH2  OT    -0.834000       15.9994           0
   76524 WT9  1476 TIP3 H1   HT     0.417000        1.0080           0
   76525 WT9  1476 TIP3 H2   HT     0.417000        1.0080           0
   76526 WT9  1477 TIP3 OH2  OT    -0.834000       15.9994           0
   76527 WT9  1477 TIP3 H1   HT     0.417000        1.0080           0
   76528 WT9  1477 TIP3 H2   HT     0.417000        1.0080           0
   76529 WT9  1480 TIP3 OH2  OT    -0.834000       15.9994           0
   76530 WT9  1480 TIP3 H1   HT     0.417000        1.0080           0
   76531 WT9  1480 TIP3 H2   HT     0.417000        1.0080           0
   76532 WT9  1483 TIP3 OH2  OT    -0.834000       15.9994           0
   76533 WT9  1483 TIP3 H1   HT     0.417000        1.0080           0
   76534 WT9  1483 TIP3 H2   HT     0.417000        1.0080           0
   76535 WT9  1492 TIP3 OH2  OT    -0.834000       15.9994           0
   76536 WT9  1492 TIP3 H1   HT     0.417000        1.0080           0
   76537 WT9  1492 TIP3 H2   HT     0.417000        1.0080           0
   76538 WT9  1493 TIP3 OH2  OT    -0.834000       15.9994           0
   76539 WT9  1493 TIP3 H1   HT     0.417000        1.0080           0
   76540 WT9  1493 TIP3 H2   HT     0.417000        1.0080           0
   76541 WT9  1501 TIP3 OH2  OT    -0.834000       15.9994           0
   76542 WT9  1501 TIP3 H1   HT     0.417000        1.0080           0
   76543 WT9  1501 TIP3 H2   HT     0.417000        1.0080           0
   76544 WT9  1514 TIP3 OH2  OT    -0.834000       15.9994           0
   76545 WT9  1514 TIP3 H1   HT     0.417000        1.0080           0
   76546 WT9  1514 TIP3 H2   HT     0.417000        1.0080           0
   76547 WT9  1518 TIP3 OH2  OT    -0.834000       15.9994           0
   76548 WT9  1518 TIP3 H1   HT     0.417000        1.0080           0
   76549 WT9  1518 TIP3 H2   HT     0.417000        1.0080           0
   76550 WT9  1522 TIP3 OH2  OT    -0.834000       15.9994           0
   76551 WT9  1522 TIP3 H1   HT     0.417000        1.0080           0
   76552 WT9  1522 TIP3 H2   HT     0.417000        1.0080           0
   76553 WT9  1524 TIP3 OH2  OT    -0.834000       15.9994           0
   76554 WT9  1524 TIP3 H1   HT     0.417000        1.0080           0
   76555 WT9  1524 TIP3 H2   HT     0.417000        1.0080           0
   76556 WT9  1557 TIP3 OH2  OT    -0.834000       15.9994           0
   76557 WT9  1557 TIP3 H1   HT     0.417000        1.0080           0
   76558 WT9  1557 TIP3 H2   HT     0.417000        1.0080           0
   76559 WT9  1573 TIP3 OH2  OT    -0.834000       15.9994           0
   76560 WT9  1573 TIP3 H1   HT     0.417000        1.0080           0
   76561 WT9  1573 TIP3 H2   HT     0.417000        1.0080           0
   76562 WT9  1589 TIP3 OH2  OT    -0.834000       15.9994           0
   76563 WT9  1589 TIP3 H1   HT     0.417000        1.0080           0
   76564 WT9  1589 TIP3 H2   HT     0.417000        1.0080           0
   76565 WT9  1592 TIP3 OH2  OT    -0.834000       15.9994           0
   76566 WT9  1592 TIP3 H1   HT     0.417000        1.0080           0
   76567 WT9  1592 TIP3 H2   HT     0.417000        1.0080           0
   76568 WT9  1600 TIP3 OH2  OT    -0.834000       15.9994           0
   76569 WT9  1600 TIP3 H1   HT     0.417000        1.0080           0
   76570 WT9  1600 TIP3 H2   HT     0.417000        1.0080           0
   76571 WT9  1612 TIP3 OH2  OT    -0.834000       15.9994           0
   76572 WT9  1612 TIP3 H1   HT     0.417000        1.0080           0
   76573 WT9  1612 TIP3 H2   HT     0.417000        1.0080           0
   76574 WT9  1618 TIP3 OH2  OT    -0.834000       15.9994           0
   76575 WT9  1618 TIP3 H1   HT     0.417000        1.0080           0
   76576 WT9  1618 TIP3 H2   HT     0.417000        1.0080           0
   76577 WT9  1624 TIP3 OH2  OT    -0.834000       15.9994           0
   76578 WT9  1624 TIP3 H1   HT     0.417000        1.0080           0
   76579 WT9  1624 TIP3 H2   HT     0.417000        1.0080           0
   76580 WT9  1625 TIP3 OH2  OT    -0.834000       15.9994           0
   76581 WT9  1625 TIP3 H1   HT     0.417000        1.0080           0
   76582 WT9  1625 TIP3 H2   HT     0.417000        1.0080           0
   76583 WT9  1627 TIP3 OH2  OT    -0.834000       15.9994           0
   76584 WT9  1627 TIP3 H1   HT     0.417000        1.0080           0
   76585 WT9  1627 TIP3 H2   HT     0.417000        1.0080           0
   76586 WT9  1629 TIP3 OH2  OT    -0.834000       15.9994           0
   76587 WT9  1629 TIP3 H1   HT     0.417000        1.0080           0
   76588 WT9  1629 TIP3 H2   HT     0.417000        1.0080           0
   76589 WT9  1642 TIP3 OH2  OT    -0.834000       15.9994           0
   76590 WT9  1642 TIP3 H1   HT     0.417000        1.0080           0
   76591 WT9  1642 TIP3 H2   HT     0.417000        1.0080           0
   76592 WT9  1643 TIP3 OH2  OT    -0.834000       15.9994           0
   76593 WT9  1643 TIP3 H1   HT     0.417000        1.0080           0
   76594 WT9  1643 TIP3 H2   HT     0.417000        1.0080           0
   76595 WT9  1647 TIP3 OH2  OT    -0.834000       15.9994           0
   76596 WT9  1647 TIP3 H1   HT     0.417000        1.0080           0
   76597 WT9  1647 TIP3 H2   HT     0.417000        1.0080           0
   76598 WT9  1648 TIP3 OH2  OT    -0.834000       15.9994           0
   76599 WT9  1648 TIP3 H1   HT     0.417000        1.0080           0
   76600 WT9  1648 TIP3 H2   HT     0.417000        1.0080           0
   76601 WT9  1651 TIP3 OH2  OT    -0.834000       15.9994           0
   76602 WT9  1651 TIP3 H1   HT     0.417000        1.0080           0
   76603 WT9  1651 TIP3 H2   HT     0.417000        1.0080           0
   76604 WT9  1656 TIP3 OH2  OT    -0.834000       15.9994           0
   76605 WT9  1656 TIP3 H1   HT     0.417000        1.0080           0
   76606 WT9  1656 TIP3 H2   HT     0.417000        1.0080           0
   76607 WT9  1664 TIP3 OH2  OT    -0.834000       15.9994           0
   76608 WT9  1664 TIP3 H1   HT     0.417000        1.0080           0
   76609 WT9  1664 TIP3 H2   HT     0.417000        1.0080           0
   76610 WT9  1691 TIP3 OH2  OT    -0.834000       15.9994           0
   76611 WT9  1691 TIP3 H1   HT     0.417000        1.0080           0
   76612 WT9  1691 TIP3 H2   HT     0.417000        1.0080           0
   76613 WT9  1706 TIP3 OH2  OT    -0.834000       15.9994           0
   76614 WT9  1706 TIP3 H1   HT     0.417000        1.0080           0
   76615 WT9  1706 TIP3 H2   HT     0.417000        1.0080           0
   76616 WT9  1718 TIP3 OH2  OT    -0.834000       15.9994           0
   76617 WT9  1718 TIP3 H1   HT     0.417000        1.0080           0
   76618 WT9  1718 TIP3 H2   HT     0.417000        1.0080           0
   76619 WT9  1725 TIP3 OH2  OT    -0.834000       15.9994           0
   76620 WT9  1725 TIP3 H1   HT     0.417000        1.0080           0
   76621 WT9  1725 TIP3 H2   HT     0.417000        1.0080           0
   76622 WT9  1728 TIP3 OH2  OT    -0.834000       15.9994           0
   76623 WT9  1728 TIP3 H1   HT     0.417000        1.0080           0
   76624 WT9  1728 TIP3 H2   HT     0.417000        1.0080           0
   76625 WT9  1733 TIP3 OH2  OT    -0.834000       15.9994           0
   76626 WT9  1733 TIP3 H1   HT     0.417000        1.0080           0
   76627 WT9  1733 TIP3 H2   HT     0.417000        1.0080           0
   76628 WT9  1737 TIP3 OH2  OT    -0.834000       15.9994           0
   76629 WT9  1737 TIP3 H1   HT     0.417000        1.0080           0
   76630 WT9  1737 TIP3 H2   HT     0.417000        1.0080           0
   76631 WT9  1754 TIP3 OH2  OT    -0.834000       15.9994           0
   76632 WT9  1754 TIP3 H1   HT     0.417000        1.0080           0
   76633 WT9  1754 TIP3 H2   HT     0.417000        1.0080           0
   76634 WT9  1764 TIP3 OH2  OT    -0.834000       15.9994           0
   76635 WT9  1764 TIP3 H1   HT     0.417000        1.0080           0
   76636 WT9  1764 TIP3 H2   HT     0.417000        1.0080           0
   76637 WT9  1769 TIP3 OH2  OT    -0.834000       15.9994           0
   76638 WT9  1769 TIP3 H1   HT     0.417000        1.0080           0
   76639 WT9  1769 TIP3 H2   HT     0.417000        1.0080           0
   76640 WT9  1771 TIP3 OH2  OT    -0.834000       15.9994           0
   76641 WT9  1771 TIP3 H1   HT     0.417000        1.0080           0
   76642 WT9  1771 TIP3 H2   HT     0.417000        1.0080           0
   76643 WT9  1775 TIP3 OH2  OT    -0.834000       15.9994           0
   76644 WT9  1775 TIP3 H1   HT     0.417000        1.0080           0
   76645 WT9  1775 TIP3 H2   HT     0.417000        1.0080           0
   76646 WT9  1778 TIP3 OH2  OT    -0.834000       15.9994           0
   76647 WT9  1778 TIP3 H1   HT     0.417000        1.0080           0
   76648 WT9  1778 TIP3 H2   HT     0.417000        1.0080           0
   76649 WT9  1785 TIP3 OH2  OT    -0.834000       15.9994           0
   76650 WT9  1785 TIP3 H1   HT     0.417000        1.0080           0
   76651 WT9  1785 TIP3 H2   HT     0.417000        1.0080           0
   76652 WT9  1789 TIP3 OH2  OT    -0.834000       15.9994           0
   76653 WT9  1789 TIP3 H1   HT     0.417000        1.0080           0
   76654 WT9  1789 TIP3 H2   HT     0.417000        1.0080           0
   76655 WT9  1813 TIP3 OH2  OT    -0.834000       15.9994           0
   76656 WT9  1813 TIP3 H1   HT     0.417000        1.0080           0
   76657 WT9  1813 TIP3 H2   HT     0.417000        1.0080           0
   76658 WT9  1819 TIP3 OH2  OT    -0.834000       15.9994           0
   76659 WT9  1819 TIP3 H1   HT     0.417000        1.0080           0
   76660 WT9  1819 TIP3 H2   HT     0.417000        1.0080           0
   76661 WT9  1849 TIP3 OH2  OT    -0.834000       15.9994           0
   76662 WT9  1849 TIP3 H1   HT     0.417000        1.0080           0
   76663 WT9  1849 TIP3 H2   HT     0.417000        1.0080           0
   76664 WT9  1853 TIP3 OH2  OT    -0.834000       15.9994           0
   76665 WT9  1853 TIP3 H1   HT     0.417000        1.0080           0
   76666 WT9  1853 TIP3 H2   HT     0.417000        1.0080           0
   76667 WT9  1859 TIP3 OH2  OT    -0.834000       15.9994           0
   76668 WT9  1859 TIP3 H1   HT     0.417000        1.0080           0
   76669 WT9  1859 TIP3 H2   HT     0.417000        1.0080           0
   76670 WT9  1864 TIP3 OH2  OT    -0.834000       15.9994           0
   76671 WT9  1864 TIP3 H1   HT     0.417000        1.0080           0
   76672 WT9  1864 TIP3 H2   HT     0.417000        1.0080           0
   76673 WT9  1882 TIP3 OH2  OT    -0.834000       15.9994           0
   76674 WT9  1882 TIP3 H1   HT     0.417000        1.0080           0
   76675 WT9  1882 TIP3 H2   HT     0.417000        1.0080           0
   76676 WT9  1892 TIP3 OH2  OT    -0.834000       15.9994           0
   76677 WT9  1892 TIP3 H1   HT     0.417000        1.0080           0
   76678 WT9  1892 TIP3 H2   HT     0.417000        1.0080           0
   76679 WT9  1897 TIP3 OH2  OT    -0.834000       15.9994           0
   76680 WT9  1897 TIP3 H1   HT     0.417000        1.0080           0
   76681 WT9  1897 TIP3 H2   HT     0.417000        1.0080           0
   76682 WT9  1898 TIP3 OH2  OT    -0.834000       15.9994           0
   76683 WT9  1898 TIP3 H1   HT     0.417000        1.0080           0
   76684 WT9  1898 TIP3 H2   HT     0.417000        1.0080           0
   76685 WT9  1918 TIP3 OH2  OT    -0.834000       15.9994           0
   76686 WT9  1918 TIP3 H1   HT     0.417000        1.0080           0
   76687 WT9  1918 TIP3 H2   HT     0.417000        1.0080           0
   76688 WT9  1921 TIP3 OH2  OT    -0.834000       15.9994           0
   76689 WT9  1921 TIP3 H1   HT     0.417000        1.0080           0
   76690 WT9  1921 TIP3 H2   HT     0.417000        1.0080           0
   76691 WT9  1925 TIP3 OH2  OT    -0.834000       15.9994           0
   76692 WT9  1925 TIP3 H1   HT     0.417000        1.0080           0
   76693 WT9  1925 TIP3 H2   HT     0.417000        1.0080           0
   76694 WT9  1939 TIP3 OH2  OT    -0.834000       15.9994           0
   76695 WT9  1939 TIP3 H1   HT     0.417000        1.0080           0
   76696 WT9  1939 TIP3 H2   HT     0.417000        1.0080           0
   76697 WT9  1949 TIP3 OH2  OT    -0.834000       15.9994           0
   76698 WT9  1949 TIP3 H1   HT     0.417000        1.0080           0
   76699 WT9  1949 TIP3 H2   HT     0.417000        1.0080           0
   76700 WT9  1960 TIP3 OH2  OT    -0.834000       15.9994           0
   76701 WT9  1960 TIP3 H1   HT     0.417000        1.0080           0
   76702 WT9  1960 TIP3 H2   HT     0.417000        1.0080           0
   76703 WT9  1965 TIP3 OH2  OT    -0.834000       15.9994           0
   76704 WT9  1965 TIP3 H1   HT     0.417000        1.0080           0
   76705 WT9  1965 TIP3 H2   HT     0.417000        1.0080           0
   76706 WT9  1994 TIP3 OH2  OT    -0.834000       15.9994           0
   76707 WT9  1994 TIP3 H1   HT     0.417000        1.0080           0
   76708 WT9  1994 TIP3 H2   HT     0.417000        1.0080           0
   76709 WT9  2000 TIP3 OH2  OT    -0.834000       15.9994           0
   76710 WT9  2000 TIP3 H1   HT     0.417000        1.0080           0
   76711 WT9  2000 TIP3 H2   HT     0.417000        1.0080           0
   76712 WT9  2022 TIP3 OH2  OT    -0.834000       15.9994           0
   76713 WT9  2022 TIP3 H1   HT     0.417000        1.0080           0
   76714 WT9  2022 TIP3 H2   HT     0.417000        1.0080           0
   76715 WT9  2025 TIP3 OH2  OT    -0.834000       15.9994           0
   76716 WT9  2025 TIP3 H1   HT     0.417000        1.0080           0
   76717 WT9  2025 TIP3 H2   HT     0.417000        1.0080           0
   76718 WT9  2053 TIP3 OH2  OT    -0.834000       15.9994           0
   76719 WT9  2053 TIP3 H1   HT     0.417000        1.0080           0
   76720 WT9  2053 TIP3 H2   HT     0.417000        1.0080           0
   76721 WT9  2083 TIP3 OH2  OT    -0.834000       15.9994           0
   76722 WT9  2083 TIP3 H1   HT     0.417000        1.0080           0
   76723 WT9  2083 TIP3 H2   HT     0.417000        1.0080           0
   76724 WT9  2085 TIP3 OH2  OT    -0.834000       15.9994           0
   76725 WT9  2085 TIP3 H1   HT     0.417000        1.0080           0
   76726 WT9  2085 TIP3 H2   HT     0.417000        1.0080           0
   76727 WT9  2108 TIP3 OH2  OT    -0.834000       15.9994           0
   76728 WT9  2108 TIP3 H1   HT     0.417000        1.0080           0
   76729 WT9  2108 TIP3 H2   HT     0.417000        1.0080           0
   76730 WT9  2116 TIP3 OH2  OT    -0.834000       15.9994           0
   76731 WT9  2116 TIP3 H1   HT     0.417000        1.0080           0
   76732 WT9  2116 TIP3 H2   HT     0.417000        1.0080           0
   76733 WT9  2127 TIP3 OH2  OT    -0.834000       15.9994           0
   76734 WT9  2127 TIP3 H1   HT     0.417000        1.0080           0
   76735 WT9  2127 TIP3 H2   HT     0.417000        1.0080           0
   76736 WT9  2129 TIP3 OH2  OT    -0.834000       15.9994           0
   76737 WT9  2129 TIP3 H1   HT     0.417000        1.0080           0
   76738 WT9  2129 TIP3 H2   HT     0.417000        1.0080           0
   76739 WT9  2132 TIP3 OH2  OT    -0.834000       15.9994           0
   76740 WT9  2132 TIP3 H1   HT     0.417000        1.0080           0
   76741 WT9  2132 TIP3 H2   HT     0.417000        1.0080           0
   76742 WT9  2150 TIP3 OH2  OT    -0.834000       15.9994           0
   76743 WT9  2150 TIP3 H1   HT     0.417000        1.0080           0
   76744 WT9  2150 TIP3 H2   HT     0.417000        1.0080           0
   76745 WT9  2156 TIP3 OH2  OT    -0.834000       15.9994           0
   76746 WT9  2156 TIP3 H1   HT     0.417000        1.0080           0
   76747 WT9  2156 TIP3 H2   HT     0.417000        1.0080           0
   76748 WT9  2158 TIP3 OH2  OT    -0.834000       15.9994           0
   76749 WT9  2158 TIP3 H1   HT     0.417000        1.0080           0
   76750 WT9  2158 TIP3 H2   HT     0.417000        1.0080           0
   76751 WT9  2163 TIP3 OH2  OT    -0.834000       15.9994           0
   76752 WT9  2163 TIP3 H1   HT     0.417000        1.0080           0
   76753 WT9  2163 TIP3 H2   HT     0.417000        1.0080           0
   76754 WT9  2171 TIP3 OH2  OT    -0.834000       15.9994           0
   76755 WT9  2171 TIP3 H1   HT     0.417000        1.0080           0
   76756 WT9  2171 TIP3 H2   HT     0.417000        1.0080           0
   76757 WT9  2183 TIP3 OH2  OT    -0.834000       15.9994           0
   76758 WT9  2183 TIP3 H1   HT     0.417000        1.0080           0
   76759 WT9  2183 TIP3 H2   HT     0.417000        1.0080           0
   76760 WT9  2231 TIP3 OH2  OT    -0.834000       15.9994           0
   76761 WT9  2231 TIP3 H1   HT     0.417000        1.0080           0
   76762 WT9  2231 TIP3 H2   HT     0.417000        1.0080           0
   76763 WT9  2236 TIP3 OH2  OT    -0.834000       15.9994           0
   76764 WT9  2236 TIP3 H1   HT     0.417000        1.0080           0
   76765 WT9  2236 TIP3 H2   HT     0.417000        1.0080           0
   76766 WT9  2282 TIP3 OH2  OT    -0.834000       15.9994           0
   76767 WT9  2282 TIP3 H1   HT     0.417000        1.0080           0
   76768 WT9  2282 TIP3 H2   HT     0.417000        1.0080           0
   76769 WT9  2283 TIP3 OH2  OT    -0.834000       15.9994           0
   76770 WT9  2283 TIP3 H1   HT     0.417000        1.0080           0
   76771 WT9  2283 TIP3 H2   HT     0.417000        1.0080           0
   76772 WT9  2288 TIP3 OH2  OT    -0.834000       15.9994           0
   76773 WT9  2288 TIP3 H1   HT     0.417000        1.0080           0
   76774 WT9  2288 TIP3 H2   HT     0.417000        1.0080           0
   76775 WT9  2290 TIP3 OH2  OT    -0.834000       15.9994           0
   76776 WT9  2290 TIP3 H1   HT     0.417000        1.0080           0
   76777 WT9  2290 TIP3 H2   HT     0.417000        1.0080           0
   76778 WT9  2317 TIP3 OH2  OT    -0.834000       15.9994           0
   76779 WT9  2317 TIP3 H1   HT     0.417000        1.0080           0
   76780 WT9  2317 TIP3 H2   HT     0.417000        1.0080           0
   76781 WT9  2324 TIP3 OH2  OT    -0.834000       15.9994           0
   76782 WT9  2324 TIP3 H1   HT     0.417000        1.0080           0
   76783 WT9  2324 TIP3 H2   HT     0.417000        1.0080           0
   76784 WT9  2327 TIP3 OH2  OT    -0.834000       15.9994           0
   76785 WT9  2327 TIP3 H1   HT     0.417000        1.0080           0
   76786 WT9  2327 TIP3 H2   HT     0.417000        1.0080           0
   76787 WT9  2357 TIP3 OH2  OT    -0.834000       15.9994           0
   76788 WT9  2357 TIP3 H1   HT     0.417000        1.0080           0
   76789 WT9  2357 TIP3 H2   HT     0.417000        1.0080           0
   76790 WT9  2358 TIP3 OH2  OT    -0.834000       15.9994           0
   76791 WT9  2358 TIP3 H1   HT     0.417000        1.0080           0
   76792 WT9  2358 TIP3 H2   HT     0.417000        1.0080           0
   76793 WT9  2395 TIP3 OH2  OT    -0.834000       15.9994           0
   76794 WT9  2395 TIP3 H1   HT     0.417000        1.0080           0
   76795 WT9  2395 TIP3 H2   HT     0.417000        1.0080           0
   76796 WT9  2405 TIP3 OH2  OT    -0.834000       15.9994           0
   76797 WT9  2405 TIP3 H1   HT     0.417000        1.0080           0
   76798 WT9  2405 TIP3 H2   HT     0.417000        1.0080           0
   76799 WT9  2430 TIP3 OH2  OT    -0.834000       15.9994           0
   76800 WT9  2430 TIP3 H1   HT     0.417000        1.0080           0
   76801 WT9  2430 TIP3 H2   HT     0.417000        1.0080           0
   76802 WT9  2468 TIP3 OH2  OT    -0.834000       15.9994           0
   76803 WT9  2468 TIP3 H1   HT     0.417000        1.0080           0
   76804 WT9  2468 TIP3 H2   HT     0.417000        1.0080           0
   76805 WT9  2500 TIP3 OH2  OT    -0.834000       15.9994           0
   76806 WT9  2500 TIP3 H1   HT     0.417000        1.0080           0
   76807 WT9  2500 TIP3 H2   HT     0.417000        1.0080           0
   76808 WT9  2521 TIP3 OH2  OT    -0.834000       15.9994           0
   76809 WT9  2521 TIP3 H1   HT     0.417000        1.0080           0
   76810 WT9  2521 TIP3 H2   HT     0.417000        1.0080           0
   76811 WT9  2524 TIP3 OH2  OT    -0.834000       15.9994           0
   76812 WT9  2524 TIP3 H1   HT     0.417000        1.0080           0
   76813 WT9  2524 TIP3 H2   HT     0.417000        1.0080           0
   76814 WT9  2525 TIP3 OH2  OT    -0.834000       15.9994           0
   76815 WT9  2525 TIP3 H1   HT     0.417000        1.0080           0
   76816 WT9  2525 TIP3 H2   HT     0.417000        1.0080           0
   76817 WT9  2568 TIP3 OH2  OT    -0.834000       15.9994           0
   76818 WT9  2568 TIP3 H1   HT     0.417000        1.0080           0
   76819 WT9  2568 TIP3 H2   HT     0.417000        1.0080           0
   76820 WT9  2570 TIP3 OH2  OT    -0.834000       15.9994           0
   76821 WT9  2570 TIP3 H1   HT     0.417000        1.0080           0
   76822 WT9  2570 TIP3 H2   HT     0.417000        1.0080           0
   76823 WT9  2589 TIP3 OH2  OT    -0.834000       15.9994           0
   76824 WT9  2589 TIP3 H1   HT     0.417000        1.0080           0
   76825 WT9  2589 TIP3 H2   HT     0.417000        1.0080           0
   76826 WT9  2644 TIP3 OH2  OT    -0.834000       15.9994           0
   76827 WT9  2644 TIP3 H1   HT     0.417000        1.0080           0
   76828 WT9  2644 TIP3 H2   HT     0.417000        1.0080           0
   76829 WT9  2656 TIP3 OH2  OT    -0.834000       15.9994           0
   76830 WT9  2656 TIP3 H1   HT     0.417000        1.0080           0
   76831 WT9  2656 TIP3 H2   HT     0.417000        1.0080           0
   76832 WT9  2714 TIP3 OH2  OT    -0.834000       15.9994           0
   76833 WT9  2714 TIP3 H1   HT     0.417000        1.0080           0
   76834 WT9  2714 TIP3 H2   HT     0.417000        1.0080           0
   76835 WT9  2759 TIP3 OH2  OT    -0.834000       15.9994           0
   76836 WT9  2759 TIP3 H1   HT     0.417000        1.0080           0
   76837 WT9  2759 TIP3 H2   HT     0.417000        1.0080           0
   76838 WT9  2767 TIP3 OH2  OT    -0.834000       15.9994           0
   76839 WT9  2767 TIP3 H1   HT     0.417000        1.0080           0
   76840 WT9  2767 TIP3 H2   HT     0.417000        1.0080           0
   76841 WT9  2780 TIP3 OH2  OT    -0.834000       15.9994           0
   76842 WT9  2780 TIP3 H1   HT     0.417000        1.0080           0
   76843 WT9  2780 TIP3 H2   HT     0.417000        1.0080           0
   76844 WT9  2781 TIP3 OH2  OT    -0.834000       15.9994           0
   76845 WT9  2781 TIP3 H1   HT     0.417000        1.0080           0
   76846 WT9  2781 TIP3 H2   HT     0.417000        1.0080           0
   76847 WT9  2802 TIP3 OH2  OT    -0.834000       15.9994           0
   76848 WT9  2802 TIP3 H1   HT     0.417000        1.0080           0
   76849 WT9  2802 TIP3 H2   HT     0.417000        1.0080           0
   76850 WT9  2901 TIP3 OH2  OT    -0.834000       15.9994           0
   76851 WT9  2901 TIP3 H1   HT     0.417000        1.0080           0
   76852 WT9  2901 TIP3 H2   HT     0.417000        1.0080           0
   76853 WT9  2903 TIP3 OH2  OT    -0.834000       15.9994           0
   76854 WT9  2903 TIP3 H1   HT     0.417000        1.0080           0
   76855 WT9  2903 TIP3 H2   HT     0.417000        1.0080           0
   76856 WT9  2906 TIP3 OH2  OT    -0.834000       15.9994           0
   76857 WT9  2906 TIP3 H1   HT     0.417000        1.0080           0
   76858 WT9  2906 TIP3 H2   HT     0.417000        1.0080           0
   76859 WT9  3029 TIP3 OH2  OT    -0.834000       15.9994           0
   76860 WT9  3029 TIP3 H1   HT     0.417000        1.0080           0
   76861 WT9  3029 TIP3 H2   HT     0.417000        1.0080           0
   76862 WT9  3184 TIP3 OH2  OT    -0.834000       15.9994           0
   76863 WT9  3184 TIP3 H1   HT     0.417000        1.0080           0
   76864 WT9  3184 TIP3 H2   HT     0.417000        1.0080           0
   76865 WT9  3223 TIP3 OH2  OT    -0.834000       15.9994           0
   76866 WT9  3223 TIP3 H1   HT     0.417000        1.0080           0
   76867 WT9  3223 TIP3 H2   HT     0.417000        1.0080           0
   76868 WT9  3287 TIP3 OH2  OT    -0.834000       15.9994           0
   76869 WT9  3287 TIP3 H1   HT     0.417000        1.0080           0
   76870 WT9  3287 TIP3 H2   HT     0.417000        1.0080           0
   76871 WT9  3665 TIP3 OH2  OT    -0.834000       15.9994           0
   76872 WT9  3665 TIP3 H1   HT     0.417000        1.0080           0
   76873 WT9  3665 TIP3 H2   HT     0.417000        1.0080           0
   76874 WT9  3687 TIP3 OH2  OT    -0.834000       15.9994           0
   76875 WT9  3687 TIP3 H1   HT     0.417000        1.0080           0
   76876 WT9  3687 TIP3 H2   HT     0.417000        1.0080           0
   76877 WT9  4971 TIP3 OH2  OT    -0.834000       15.9994           0
   76878 WT9  4971 TIP3 H1   HT     0.417000        1.0080           0
   76879 WT9  4971 TIP3 H2   HT     0.417000        1.0080           0
   76880 WT9  5421 TIP3 OH2  OT    -0.834000       15.9994           0
   76881 WT9  5421 TIP3 H1   HT     0.417000        1.0080           0
   76882 WT9  5421 TIP3 H2   HT     0.417000        1.0080           0
   76883 WT9  6240 TIP3 OH2  OT    -0.834000       15.9994           0
   76884 WT9  6240 TIP3 H1   HT     0.417000        1.0080           0
   76885 WT9  6240 TIP3 H2   HT     0.417000        1.0080           0
   76886 WT9  6350 TIP3 OH2  OT    -0.834000       15.9994           0
   76887 WT9  6350 TIP3 H1   HT     0.417000        1.0080           0
   76888 WT9  6350 TIP3 H2   HT     0.417000        1.0080           0
   76889 WT9  6479 TIP3 OH2  OT    -0.834000       15.9994           0
   76890 WT9  6479 TIP3 H1   HT     0.417000        1.0080           0
   76891 WT9  6479 TIP3 H2   HT     0.417000        1.0080           0
   76892 WT9  6628 TIP3 OH2  OT    -0.834000       15.9994           0
   76893 WT9  6628 TIP3 H1   HT     0.417000        1.0080           0
   76894 WT9  6628 TIP3 H2   HT     0.417000        1.0080           0
   76895 WT9  6650 TIP3 OH2  OT    -0.834000       15.9994           0
   76896 WT9  6650 TIP3 H1   HT     0.417000        1.0080           0
   76897 WT9  6650 TIP3 H2   HT     0.417000        1.0080           0
   76898 WT9  6671 TIP3 OH2  OT    -0.834000       15.9994           0
   76899 WT9  6671 TIP3 H1   HT     0.417000        1.0080           0
   76900 WT9  6671 TIP3 H2   HT     0.417000        1.0080           0
   76901 WT9  6751 TIP3 OH2  OT    -0.834000       15.9994           0
   76902 WT9  6751 TIP3 H1   HT     0.417000        1.0080           0
   76903 WT9  6751 TIP3 H2   HT     0.417000        1.0080           0
   76904 WT9  6773 TIP3 OH2  OT    -0.834000       15.9994           0
   76905 WT9  6773 TIP3 H1   HT     0.417000        1.0080           0
   76906 WT9  6773 TIP3 H2   HT     0.417000        1.0080           0
   76907 WT9  6980 TIP3 OH2  OT    -0.834000       15.9994           0
   76908 WT9  6980 TIP3 H1   HT     0.417000        1.0080           0
   76909 WT9  6980 TIP3 H2   HT     0.417000        1.0080           0
   76910 WT9  7027 TIP3 OH2  OT    -0.834000       15.9994           0
   76911 WT9  7027 TIP3 H1   HT     0.417000        1.0080           0
   76912 WT9  7027 TIP3 H2   HT     0.417000        1.0080           0
   76913 WT9  7133 TIP3 OH2  OT    -0.834000       15.9994           0
   76914 WT9  7133 TIP3 H1   HT     0.417000        1.0080           0
   76915 WT9  7133 TIP3 H2   HT     0.417000        1.0080           0
   76916 WT9  7295 TIP3 OH2  OT    -0.834000       15.9994           0
   76917 WT9  7295 TIP3 H1   HT     0.417000        1.0080           0
   76918 WT9  7295 TIP3 H2   HT     0.417000        1.0080           0
   76919 WT9  7510 TIP3 OH2  OT    -0.834000       15.9994           0
   76920 WT9  7510 TIP3 H1   HT     0.417000        1.0080           0
   76921 WT9  7510 TIP3 H2   HT     0.417000        1.0080           0
   76922 WT9  7532 TIP3 OH2  OT    -0.834000       15.9994           0
   76923 WT9  7532 TIP3 H1   HT     0.417000        1.0080           0
   76924 WT9  7532 TIP3 H2   HT     0.417000        1.0080           0
   76925 WT9  7557 TIP3 OH2  OT    -0.834000       15.9994           0
   76926 WT9  7557 TIP3 H1   HT     0.417000        1.0080           0
   76927 WT9  7557 TIP3 H2   HT     0.417000        1.0080           0
   76928 WT9  7568 TIP3 OH2  OT    -0.834000       15.9994           0
   76929 WT9  7568 TIP3 H1   HT     0.417000        1.0080           0
   76930 WT9  7568 TIP3 H2   HT     0.417000        1.0080           0
   76931 WT9  7576 TIP3 OH2  OT    -0.834000       15.9994           0
   76932 WT9  7576 TIP3 H1   HT     0.417000        1.0080           0
   76933 WT9  7576 TIP3 H2   HT     0.417000        1.0080           0
   76934 WT9  7583 TIP3 OH2  OT    -0.834000       15.9994           0
   76935 WT9  7583 TIP3 H1   HT     0.417000        1.0080           0
   76936 WT9  7583 TIP3 H2   HT     0.417000        1.0080           0
   76937 WT9  7592 TIP3 OH2  OT    -0.834000       15.9994           0
   76938 WT9  7592 TIP3 H1   HT     0.417000        1.0080           0
   76939 WT9  7592 TIP3 H2   HT     0.417000        1.0080           0
   76940 WT9  7603 TIP3 OH2  OT    -0.834000       15.9994           0
   76941 WT9  7603 TIP3 H1   HT     0.417000        1.0080           0
   76942 WT9  7603 TIP3 H2   HT     0.417000        1.0080           0
   76943 WT9  7607 TIP3 OH2  OT    -0.834000       15.9994           0
   76944 WT9  7607 TIP3 H1   HT     0.417000        1.0080           0
   76945 WT9  7607 TIP3 H2   HT     0.417000        1.0080           0
   76946 WT9  7630 TIP3 OH2  OT    -0.834000       15.9994           0
   76947 WT9  7630 TIP3 H1   HT     0.417000        1.0080           0
   76948 WT9  7630 TIP3 H2   HT     0.417000        1.0080           0
   76949 WT9  7631 TIP3 OH2  OT    -0.834000       15.9994           0
   76950 WT9  7631 TIP3 H1   HT     0.417000        1.0080           0
   76951 WT9  7631 TIP3 H2   HT     0.417000        1.0080           0
   76952 WT9  7634 TIP3 OH2  OT    -0.834000       15.9994           0
   76953 WT9  7634 TIP3 H1   HT     0.417000        1.0080           0
   76954 WT9  7634 TIP3 H2   HT     0.417000        1.0080           0
   76955 WT9  7647 TIP3 OH2  OT    -0.834000       15.9994           0
   76956 WT9  7647 TIP3 H1   HT     0.417000        1.0080           0
   76957 WT9  7647 TIP3 H2   HT     0.417000        1.0080           0
   76958 WT9  7650 TIP3 OH2  OT    -0.834000       15.9994           0
   76959 WT9  7650 TIP3 H1   HT     0.417000        1.0080           0
   76960 WT9  7650 TIP3 H2   HT     0.417000        1.0080           0
   76961 WT9  7661 TIP3 OH2  OT    -0.834000       15.9994           0
   76962 WT9  7661 TIP3 H1   HT     0.417000        1.0080           0
   76963 WT9  7661 TIP3 H2   HT     0.417000        1.0080           0
   76964 WT9  7707 TIP3 OH2  OT    -0.834000       15.9994           0
   76965 WT9  7707 TIP3 H1   HT     0.417000        1.0080           0
   76966 WT9  7707 TIP3 H2   HT     0.417000        1.0080           0
   76967 WT9  7715 TIP3 OH2  OT    -0.834000       15.9994           0
   76968 WT9  7715 TIP3 H1   HT     0.417000        1.0080           0
   76969 WT9  7715 TIP3 H2   HT     0.417000        1.0080           0
   76970 WT9  7739 TIP3 OH2  OT    -0.834000       15.9994           0
   76971 WT9  7739 TIP3 H1   HT     0.417000        1.0080           0
   76972 WT9  7739 TIP3 H2   HT     0.417000        1.0080           0
   76973 WT9  7748 TIP3 OH2  OT    -0.834000       15.9994           0
   76974 WT9  7748 TIP3 H1   HT     0.417000        1.0080           0
   76975 WT9  7748 TIP3 H2   HT     0.417000        1.0080           0
   76976 WT9  7784 TIP3 OH2  OT    -0.834000       15.9994           0
   76977 WT9  7784 TIP3 H1   HT     0.417000        1.0080           0
   76978 WT9  7784 TIP3 H2   HT     0.417000        1.0080           0
   76979 WT9  7846 TIP3 OH2  OT    -0.834000       15.9994           0
   76980 WT9  7846 TIP3 H1   HT     0.417000        1.0080           0
   76981 WT9  7846 TIP3 H2   HT     0.417000        1.0080           0
   76982 WT9  7925 TIP3 OH2  OT    -0.834000       15.9994           0
   76983 WT9  7925 TIP3 H1   HT     0.417000        1.0080           0
   76984 WT9  7925 TIP3 H2   HT     0.417000        1.0080           0
   76985 WT9  7944 TIP3 OH2  OT    -0.834000       15.9994           0
   76986 WT9  7944 TIP3 H1   HT     0.417000        1.0080           0
   76987 WT9  7944 TIP3 H2   HT     0.417000        1.0080           0
   76988 WT9  7951 TIP3 OH2  OT    -0.834000       15.9994           0
   76989 WT9  7951 TIP3 H1   HT     0.417000        1.0080           0
   76990 WT9  7951 TIP3 H2   HT     0.417000        1.0080           0
   76991 WT9  7959 TIP3 OH2  OT    -0.834000       15.9994           0
   76992 WT9  7959 TIP3 H1   HT     0.417000        1.0080           0
   76993 WT9  7959 TIP3 H2   HT     0.417000        1.0080           0
   76994 WT9  7979 TIP3 OH2  OT    -0.834000       15.9994           0
   76995 WT9  7979 TIP3 H1   HT     0.417000        1.0080           0
   76996 WT9  7979 TIP3 H2   HT     0.417000        1.0080           0
   76997 WT9  7985 TIP3 OH2  OT    -0.834000       15.9994           0
   76998 WT9  7985 TIP3 H1   HT     0.417000        1.0080           0
   76999 WT9  7985 TIP3 H2   HT     0.417000        1.0080           0
   77000 WT9  8000 TIP3 OH2  OT    -0.834000       15.9994           0
   77001 WT9  8000 TIP3 H1   HT     0.417000        1.0080           0
   77002 WT9  8000 TIP3 H2   HT     0.417000        1.0080           0
   77003 WT9  8014 TIP3 OH2  OT    -0.834000       15.9994           0
   77004 WT9  8014 TIP3 H1   HT     0.417000        1.0080           0
   77005 WT9  8014 TIP3 H2   HT     0.417000        1.0080           0
   77006 WT9  8023 TIP3 OH2  OT    -0.834000       15.9994           0
   77007 WT9  8023 TIP3 H1   HT     0.417000        1.0080           0
   77008 WT9  8023 TIP3 H2   HT     0.417000        1.0080           0
   77009 WT9  8024 TIP3 OH2  OT    -0.834000       15.9994           0
   77010 WT9  8024 TIP3 H1   HT     0.417000        1.0080           0
   77011 WT9  8024 TIP3 H2   HT     0.417000        1.0080           0
   77012 WT9  8031 TIP3 OH2  OT    -0.834000       15.9994           0
   77013 WT9  8031 TIP3 H1   HT     0.417000        1.0080           0
   77014 WT9  8031 TIP3 H2   HT     0.417000        1.0080           0
   77015 WT9  8034 TIP3 OH2  OT    -0.834000       15.9994           0
   77016 WT9  8034 TIP3 H1   HT     0.417000        1.0080           0
   77017 WT9  8034 TIP3 H2   HT     0.417000        1.0080           0
   77018 WT9  8046 TIP3 OH2  OT    -0.834000       15.9994           0
   77019 WT9  8046 TIP3 H1   HT     0.417000        1.0080           0
   77020 WT9  8046 TIP3 H2   HT     0.417000        1.0080           0
   77021 WT9  8067 TIP3 OH2  OT    -0.834000       15.9994           0
   77022 WT9  8067 TIP3 H1   HT     0.417000        1.0080           0
   77023 WT9  8067 TIP3 H2   HT     0.417000        1.0080           0
   77024 WT9  8068 TIP3 OH2  OT    -0.834000       15.9994           0
   77025 WT9  8068 TIP3 H1   HT     0.417000        1.0080           0
   77026 WT9  8068 TIP3 H2   HT     0.417000        1.0080           0
   77027 WT9  8133 TIP3 OH2  OT    -0.834000       15.9994           0
   77028 WT9  8133 TIP3 H1   HT     0.417000        1.0080           0
   77029 WT9  8133 TIP3 H2   HT     0.417000        1.0080           0
   77030 WT9  8136 TIP3 OH2  OT    -0.834000       15.9994           0
   77031 WT9  8136 TIP3 H1   HT     0.417000        1.0080           0
   77032 WT9  8136 TIP3 H2   HT     0.417000        1.0080           0
   77033 WT9  8140 TIP3 OH2  OT    -0.834000       15.9994           0
   77034 WT9  8140 TIP3 H1   HT     0.417000        1.0080           0
   77035 WT9  8140 TIP3 H2   HT     0.417000        1.0080           0
   77036 WT9  8161 TIP3 OH2  OT    -0.834000       15.9994           0
   77037 WT9  8161 TIP3 H1   HT     0.417000        1.0080           0
   77038 WT9  8161 TIP3 H2   HT     0.417000        1.0080           0
   77039 WT9  8173 TIP3 OH2  OT    -0.834000       15.9994           0
   77040 WT9  8173 TIP3 H1   HT     0.417000        1.0080           0
   77041 WT9  8173 TIP3 H2   HT     0.417000        1.0080           0
   77042 WT9  8174 TIP3 OH2  OT    -0.834000       15.9994           0
   77043 WT9  8174 TIP3 H1   HT     0.417000        1.0080           0
   77044 WT9  8174 TIP3 H2   HT     0.417000        1.0080           0
   77045 WT9  8176 TIP3 OH2  OT    -0.834000       15.9994           0
   77046 WT9  8176 TIP3 H1   HT     0.417000        1.0080           0
   77047 WT9  8176 TIP3 H2   HT     0.417000        1.0080           0
   77048 WT9  8193 TIP3 OH2  OT    -0.834000       15.9994           0
   77049 WT9  8193 TIP3 H1   HT     0.417000        1.0080           0
   77050 WT9  8193 TIP3 H2   HT     0.417000        1.0080           0
   77051 WT9  8229 TIP3 OH2  OT    -0.834000       15.9994           0
   77052 WT9  8229 TIP3 H1   HT     0.417000        1.0080           0
   77053 WT9  8229 TIP3 H2   HT     0.417000        1.0080           0
   77054 WT9  8260 TIP3 OH2  OT    -0.834000       15.9994           0
   77055 WT9  8260 TIP3 H1   HT     0.417000        1.0080           0
   77056 WT9  8260 TIP3 H2   HT     0.417000        1.0080           0
   77057 WT9  8263 TIP3 OH2  OT    -0.834000       15.9994           0
   77058 WT9  8263 TIP3 H1   HT     0.417000        1.0080           0
   77059 WT9  8263 TIP3 H2   HT     0.417000        1.0080           0
   77060 WT9  8264 TIP3 OH2  OT    -0.834000       15.9994           0
   77061 WT9  8264 TIP3 H1   HT     0.417000        1.0080           0
   77062 WT9  8264 TIP3 H2   HT     0.417000        1.0080           0
   77063 WT9  8265 TIP3 OH2  OT    -0.834000       15.9994           0
   77064 WT9  8265 TIP3 H1   HT     0.417000        1.0080           0
   77065 WT9  8265 TIP3 H2   HT     0.417000        1.0080           0
   77066 WT9  8278 TIP3 OH2  OT    -0.834000       15.9994           0
   77067 WT9  8278 TIP3 H1   HT     0.417000        1.0080           0
   77068 WT9  8278 TIP3 H2   HT     0.417000        1.0080           0
   77069 WT9  8290 TIP3 OH2  OT    -0.834000       15.9994           0
   77070 WT9  8290 TIP3 H1   HT     0.417000        1.0080           0
   77071 WT9  8290 TIP3 H2   HT     0.417000        1.0080           0
   77072 WT9  8308 TIP3 OH2  OT    -0.834000       15.9994           0
   77073 WT9  8308 TIP3 H1   HT     0.417000        1.0080           0
   77074 WT9  8308 TIP3 H2   HT     0.417000        1.0080           0
   77075 WT9  8328 TIP3 OH2  OT    -0.834000       15.9994           0
   77076 WT9  8328 TIP3 H1   HT     0.417000        1.0080           0
   77077 WT9  8328 TIP3 H2   HT     0.417000        1.0080           0
   77078 WT9  8330 TIP3 OH2  OT    -0.834000       15.9994           0
   77079 WT9  8330 TIP3 H1   HT     0.417000        1.0080           0
   77080 WT9  8330 TIP3 H2   HT     0.417000        1.0080           0
   77081 WT9  8351 TIP3 OH2  OT    -0.834000       15.9994           0
   77082 WT9  8351 TIP3 H1   HT     0.417000        1.0080           0
   77083 WT9  8351 TIP3 H2   HT     0.417000        1.0080           0
   77084 WT9  8352 TIP3 OH2  OT    -0.834000       15.9994           0
   77085 WT9  8352 TIP3 H1   HT     0.417000        1.0080           0
   77086 WT9  8352 TIP3 H2   HT     0.417000        1.0080           0
   77087 WT9  8368 TIP3 OH2  OT    -0.834000       15.9994           0
   77088 WT9  8368 TIP3 H1   HT     0.417000        1.0080           0
   77089 WT9  8368 TIP3 H2   HT     0.417000        1.0080           0
   77090 WT9  8383 TIP3 OH2  OT    -0.834000       15.9994           0
   77091 WT9  8383 TIP3 H1   HT     0.417000        1.0080           0
   77092 WT9  8383 TIP3 H2   HT     0.417000        1.0080           0
   77093 WT9  8387 TIP3 OH2  OT    -0.834000       15.9994           0
   77094 WT9  8387 TIP3 H1   HT     0.417000        1.0080           0
   77095 WT9  8387 TIP3 H2   HT     0.417000        1.0080           0
   77096 WT9  8393 TIP3 OH2  OT    -0.834000       15.9994           0
   77097 WT9  8393 TIP3 H1   HT     0.417000        1.0080           0
   77098 WT9  8393 TIP3 H2   HT     0.417000        1.0080           0
   77099 WT9  8403 TIP3 OH2  OT    -0.834000       15.9994           0
   77100 WT9  8403 TIP3 H1   HT     0.417000        1.0080           0
   77101 WT9  8403 TIP3 H2   HT     0.417000        1.0080           0
   77102 WT9  8408 TIP3 OH2  OT    -0.834000       15.9994           0
   77103 WT9  8408 TIP3 H1   HT     0.417000        1.0080           0
   77104 WT9  8408 TIP3 H2   HT     0.417000        1.0080           0
   77105 WT9  8414 TIP3 OH2  OT    -0.834000       15.9994           0
   77106 WT9  8414 TIP3 H1   HT     0.417000        1.0080           0
   77107 WT9  8414 TIP3 H2   HT     0.417000        1.0080           0
   77108 WT9  8415 TIP3 OH2  OT    -0.834000       15.9994           0
   77109 WT9  8415 TIP3 H1   HT     0.417000        1.0080           0
   77110 WT9  8415 TIP3 H2   HT     0.417000        1.0080           0
   77111 WT9  8425 TIP3 OH2  OT    -0.834000       15.9994           0
   77112 WT9  8425 TIP3 H1   HT     0.417000        1.0080           0
   77113 WT9  8425 TIP3 H2   HT     0.417000        1.0080           0
   77114 WT9  8448 TIP3 OH2  OT    -0.834000       15.9994           0
   77115 WT9  8448 TIP3 H1   HT     0.417000        1.0080           0
   77116 WT9  8448 TIP3 H2   HT     0.417000        1.0080           0
   77117 WT9  8452 TIP3 OH2  OT    -0.834000       15.9994           0
   77118 WT9  8452 TIP3 H1   HT     0.417000        1.0080           0
   77119 WT9  8452 TIP3 H2   HT     0.417000        1.0080           0
   77120 WT9  8466 TIP3 OH2  OT    -0.834000       15.9994           0
   77121 WT9  8466 TIP3 H1   HT     0.417000        1.0080           0
   77122 WT9  8466 TIP3 H2   HT     0.417000        1.0080           0
   77123 WT9  8468 TIP3 OH2  OT    -0.834000       15.9994           0
   77124 WT9  8468 TIP3 H1   HT     0.417000        1.0080           0
   77125 WT9  8468 TIP3 H2   HT     0.417000        1.0080           0
   77126 WT9  8488 TIP3 OH2  OT    -0.834000       15.9994           0
   77127 WT9  8488 TIP3 H1   HT     0.417000        1.0080           0
   77128 WT9  8488 TIP3 H2   HT     0.417000        1.0080           0
   77129 WT9  8492 TIP3 OH2  OT    -0.834000       15.9994           0
   77130 WT9  8492 TIP3 H1   HT     0.417000        1.0080           0
   77131 WT9  8492 TIP3 H2   HT     0.417000        1.0080           0
   77132 WT9  8520 TIP3 OH2  OT    -0.834000       15.9994           0
   77133 WT9  8520 TIP3 H1   HT     0.417000        1.0080           0
   77134 WT9  8520 TIP3 H2   HT     0.417000        1.0080           0
   77135 WT9  8534 TIP3 OH2  OT    -0.834000       15.9994           0
   77136 WT9  8534 TIP3 H1   HT     0.417000        1.0080           0
   77137 WT9  8534 TIP3 H2   HT     0.417000        1.0080           0
   77138 WT9  8536 TIP3 OH2  OT    -0.834000       15.9994           0
   77139 WT9  8536 TIP3 H1   HT     0.417000        1.0080           0
   77140 WT9  8536 TIP3 H2   HT     0.417000        1.0080           0
   77141 WT9  8537 TIP3 OH2  OT    -0.834000       15.9994           0
   77142 WT9  8537 TIP3 H1   HT     0.417000        1.0080           0
   77143 WT9  8537 TIP3 H2   HT     0.417000        1.0080           0
   77144 WT9  8549 TIP3 OH2  OT    -0.834000       15.9994           0
   77145 WT9  8549 TIP3 H1   HT     0.417000        1.0080           0
   77146 WT9  8549 TIP3 H2   HT     0.417000        1.0080           0
   77147 WT9  8555 TIP3 OH2  OT    -0.834000       15.9994           0
   77148 WT9  8555 TIP3 H1   HT     0.417000        1.0080           0
   77149 WT9  8555 TIP3 H2   HT     0.417000        1.0080           0
   77150 WT9  8556 TIP3 OH2  OT    -0.834000       15.9994           0
   77151 WT9  8556 TIP3 H1   HT     0.417000        1.0080           0
   77152 WT9  8556 TIP3 H2   HT     0.417000        1.0080           0
   77153 WT9  8558 TIP3 OH2  OT    -0.834000       15.9994           0
   77154 WT9  8558 TIP3 H1   HT     0.417000        1.0080           0
   77155 WT9  8558 TIP3 H2   HT     0.417000        1.0080           0
   77156 WT9  8560 TIP3 OH2  OT    -0.834000       15.9994           0
   77157 WT9  8560 TIP3 H1   HT     0.417000        1.0080           0
   77158 WT9  8560 TIP3 H2   HT     0.417000        1.0080           0
   77159 WT9  8566 TIP3 OH2  OT    -0.834000       15.9994           0
   77160 WT9  8566 TIP3 H1   HT     0.417000        1.0080           0
   77161 WT9  8566 TIP3 H2   HT     0.417000        1.0080           0
   77162 WT9  8579 TIP3 OH2  OT    -0.834000       15.9994           0
   77163 WT9  8579 TIP3 H1   HT     0.417000        1.0080           0
   77164 WT9  8579 TIP3 H2   HT     0.417000        1.0080           0
   77165 WT9  8600 TIP3 OH2  OT    -0.834000       15.9994           0
   77166 WT9  8600 TIP3 H1   HT     0.417000        1.0080           0
   77167 WT9  8600 TIP3 H2   HT     0.417000        1.0080           0
   77168 WT9  8607 TIP3 OH2  OT    -0.834000       15.9994           0
   77169 WT9  8607 TIP3 H1   HT     0.417000        1.0080           0
   77170 WT9  8607 TIP3 H2   HT     0.417000        1.0080           0
   77171 WT9  8622 TIP3 OH2  OT    -0.834000       15.9994           0
   77172 WT9  8622 TIP3 H1   HT     0.417000        1.0080           0
   77173 WT9  8622 TIP3 H2   HT     0.417000        1.0080           0
   77174 WT9  8642 TIP3 OH2  OT    -0.834000       15.9994           0
   77175 WT9  8642 TIP3 H1   HT     0.417000        1.0080           0
   77176 WT9  8642 TIP3 H2   HT     0.417000        1.0080           0
   77177 WT9  8645 TIP3 OH2  OT    -0.834000       15.9994           0
   77178 WT9  8645 TIP3 H1   HT     0.417000        1.0080           0
   77179 WT9  8645 TIP3 H2   HT     0.417000        1.0080           0
   77180 WT9  8653 TIP3 OH2  OT    -0.834000       15.9994           0
   77181 WT9  8653 TIP3 H1   HT     0.417000        1.0080           0
   77182 WT9  8653 TIP3 H2   HT     0.417000        1.0080           0
   77183 WT9  8658 TIP3 OH2  OT    -0.834000       15.9994           0
   77184 WT9  8658 TIP3 H1   HT     0.417000        1.0080           0
   77185 WT9  8658 TIP3 H2   HT     0.417000        1.0080           0
   77186 WT9  8661 TIP3 OH2  OT    -0.834000       15.9994           0
   77187 WT9  8661 TIP3 H1   HT     0.417000        1.0080           0
   77188 WT9  8661 TIP3 H2   HT     0.417000        1.0080           0
   77189 WT9  8662 TIP3 OH2  OT    -0.834000       15.9994           0
   77190 WT9  8662 TIP3 H1   HT     0.417000        1.0080           0
   77191 WT9  8662 TIP3 H2   HT     0.417000        1.0080           0
   77192 WT9  8675 TIP3 OH2  OT    -0.834000       15.9994           0
   77193 WT9  8675 TIP3 H1   HT     0.417000        1.0080           0
   77194 WT9  8675 TIP3 H2   HT     0.417000        1.0080           0
   77195 WT9  8679 TIP3 OH2  OT    -0.834000       15.9994           0
   77196 WT9  8679 TIP3 H1   HT     0.417000        1.0080           0
   77197 WT9  8679 TIP3 H2   HT     0.417000        1.0080           0
   77198 WT9  8680 TIP3 OH2  OT    -0.834000       15.9994           0
   77199 WT9  8680 TIP3 H1   HT     0.417000        1.0080           0
   77200 WT9  8680 TIP3 H2   HT     0.417000        1.0080           0
   77201 WT9  8683 TIP3 OH2  OT    -0.834000       15.9994           0
   77202 WT9  8683 TIP3 H1   HT     0.417000        1.0080           0
   77203 WT9  8683 TIP3 H2   HT     0.417000        1.0080           0
   77204 WT9  8687 TIP3 OH2  OT    -0.834000       15.9994           0
   77205 WT9  8687 TIP3 H1   HT     0.417000        1.0080           0
   77206 WT9  8687 TIP3 H2   HT     0.417000        1.0080           0
   77207 WT9  8688 TIP3 OH2  OT    -0.834000       15.9994           0
   77208 WT9  8688 TIP3 H1   HT     0.417000        1.0080           0
   77209 WT9  8688 TIP3 H2   HT     0.417000        1.0080           0
   77210 WT9  8690 TIP3 OH2  OT    -0.834000       15.9994           0
   77211 WT9  8690 TIP3 H1   HT     0.417000        1.0080           0
   77212 WT9  8690 TIP3 H2   HT     0.417000        1.0080           0
   77213 WT9  8691 TIP3 OH2  OT    -0.834000       15.9994           0
   77214 WT9  8691 TIP3 H1   HT     0.417000        1.0080           0
   77215 WT9  8691 TIP3 H2   HT     0.417000        1.0080           0
   77216 WT9  8695 TIP3 OH2  OT    -0.834000       15.9994           0
   77217 WT9  8695 TIP3 H1   HT     0.417000        1.0080           0
   77218 WT9  8695 TIP3 H2   HT     0.417000        1.0080           0
   77219 WT9  8699 TIP3 OH2  OT    -0.834000       15.9994           0
   77220 WT9  8699 TIP3 H1   HT     0.417000        1.0080           0
   77221 WT9  8699 TIP3 H2   HT     0.417000        1.0080           0
   77222 WT9  8721 TIP3 OH2  OT    -0.834000       15.9994           0
   77223 WT9  8721 TIP3 H1   HT     0.417000        1.0080           0
   77224 WT9  8721 TIP3 H2   HT     0.417000        1.0080           0
   77225 WT9  8722 TIP3 OH2  OT    -0.834000       15.9994           0
   77226 WT9  8722 TIP3 H1   HT     0.417000        1.0080           0
   77227 WT9  8722 TIP3 H2   HT     0.417000        1.0080           0
   77228 WT9  8723 TIP3 OH2  OT    -0.834000       15.9994           0
   77229 WT9  8723 TIP3 H1   HT     0.417000        1.0080           0
   77230 WT9  8723 TIP3 H2   HT     0.417000        1.0080           0
   77231 WT9  8748 TIP3 OH2  OT    -0.834000       15.9994           0
   77232 WT9  8748 TIP3 H1   HT     0.417000        1.0080           0
   77233 WT9  8748 TIP3 H2   HT     0.417000        1.0080           0
   77234 WT9  8774 TIP3 OH2  OT    -0.834000       15.9994           0
   77235 WT9  8774 TIP3 H1   HT     0.417000        1.0080           0
   77236 WT9  8774 TIP3 H2   HT     0.417000        1.0080           0
   77237 WT9  8780 TIP3 OH2  OT    -0.834000       15.9994           0
   77238 WT9  8780 TIP3 H1   HT     0.417000        1.0080           0
   77239 WT9  8780 TIP3 H2   HT     0.417000        1.0080           0
   77240 WT9  8791 TIP3 OH2  OT    -0.834000       15.9994           0
   77241 WT9  8791 TIP3 H1   HT     0.417000        1.0080           0
   77242 WT9  8791 TIP3 H2   HT     0.417000        1.0080           0
   77243 WT9  8794 TIP3 OH2  OT    -0.834000       15.9994           0
   77244 WT9  8794 TIP3 H1   HT     0.417000        1.0080           0
   77245 WT9  8794 TIP3 H2   HT     0.417000        1.0080           0
   77246 WT9  8800 TIP3 OH2  OT    -0.834000       15.9994           0
   77247 WT9  8800 TIP3 H1   HT     0.417000        1.0080           0
   77248 WT9  8800 TIP3 H2   HT     0.417000        1.0080           0
   77249 WT9  8809 TIP3 OH2  OT    -0.834000       15.9994           0
   77250 WT9  8809 TIP3 H1   HT     0.417000        1.0080           0
   77251 WT9  8809 TIP3 H2   HT     0.417000        1.0080           0
   77252 WT9  8813 TIP3 OH2  OT    -0.834000       15.9994           0
   77253 WT9  8813 TIP3 H1   HT     0.417000        1.0080           0
   77254 WT9  8813 TIP3 H2   HT     0.417000        1.0080           0
   77255 WT9  8829 TIP3 OH2  OT    -0.834000       15.9994           0
   77256 WT9  8829 TIP3 H1   HT     0.417000        1.0080           0
   77257 WT9  8829 TIP3 H2   HT     0.417000        1.0080           0
   77258 WT9  8833 TIP3 OH2  OT    -0.834000       15.9994           0
   77259 WT9  8833 TIP3 H1   HT     0.417000        1.0080           0
   77260 WT9  8833 TIP3 H2   HT     0.417000        1.0080           0
   77261 WT9  8836 TIP3 OH2  OT    -0.834000       15.9994           0
   77262 WT9  8836 TIP3 H1   HT     0.417000        1.0080           0
   77263 WT9  8836 TIP3 H2   HT     0.417000        1.0080           0
   77264 WT9  8851 TIP3 OH2  OT    -0.834000       15.9994           0
   77265 WT9  8851 TIP3 H1   HT     0.417000        1.0080           0
   77266 WT9  8851 TIP3 H2   HT     0.417000        1.0080           0
   77267 WT9  8869 TIP3 OH2  OT    -0.834000       15.9994           0
   77268 WT9  8869 TIP3 H1   HT     0.417000        1.0080           0
   77269 WT9  8869 TIP3 H2   HT     0.417000        1.0080           0
   77270 WT9  8870 TIP3 OH2  OT    -0.834000       15.9994           0
   77271 WT9  8870 TIP3 H1   HT     0.417000        1.0080           0
   77272 WT9  8870 TIP3 H2   HT     0.417000        1.0080           0
   77273 WT9  8872 TIP3 OH2  OT    -0.834000       15.9994           0
   77274 WT9  8872 TIP3 H1   HT     0.417000        1.0080           0
   77275 WT9  8872 TIP3 H2   HT     0.417000        1.0080           0
   77276 WT9  8877 TIP3 OH2  OT    -0.834000       15.9994           0
   77277 WT9  8877 TIP3 H1   HT     0.417000        1.0080           0
   77278 WT9  8877 TIP3 H2   HT     0.417000        1.0080           0
   77279 WT9  8890 TIP3 OH2  OT    -0.834000       15.9994           0
   77280 WT9  8890 TIP3 H1   HT     0.417000        1.0080           0
   77281 WT9  8890 TIP3 H2   HT     0.417000        1.0080           0
   77282 WT9  8893 TIP3 OH2  OT    -0.834000       15.9994           0
   77283 WT9  8893 TIP3 H1   HT     0.417000        1.0080           0
   77284 WT9  8893 TIP3 H2   HT     0.417000        1.0080           0
   77285 WT9  8894 TIP3 OH2  OT    -0.834000       15.9994           0
   77286 WT9  8894 TIP3 H1   HT     0.417000        1.0080           0
   77287 WT9  8894 TIP3 H2   HT     0.417000        1.0080           0
   77288 WT9  8895 TIP3 OH2  OT    -0.834000       15.9994           0
   77289 WT9  8895 TIP3 H1   HT     0.417000        1.0080           0
   77290 WT9  8895 TIP3 H2   HT     0.417000        1.0080           0
   77291 WT9  8927 TIP3 OH2  OT    -0.834000       15.9994           0
   77292 WT9  8927 TIP3 H1   HT     0.417000        1.0080           0
   77293 WT9  8927 TIP3 H2   HT     0.417000        1.0080           0
   77294 WT9  8928 TIP3 OH2  OT    -0.834000       15.9994           0
   77295 WT9  8928 TIP3 H1   HT     0.417000        1.0080           0
   77296 WT9  8928 TIP3 H2   HT     0.417000        1.0080           0
   77297 WT9  8935 TIP3 OH2  OT    -0.834000       15.9994           0
   77298 WT9  8935 TIP3 H1   HT     0.417000        1.0080           0
   77299 WT9  8935 TIP3 H2   HT     0.417000        1.0080           0
   77300 WT9  8937 TIP3 OH2  OT    -0.834000       15.9994           0
   77301 WT9  8937 TIP3 H1   HT     0.417000        1.0080           0
   77302 WT9  8937 TIP3 H2   HT     0.417000        1.0080           0
   77303 WT9  8938 TIP3 OH2  OT    -0.834000       15.9994           0
   77304 WT9  8938 TIP3 H1   HT     0.417000        1.0080           0
   77305 WT9  8938 TIP3 H2   HT     0.417000        1.0080           0
   77306 WT9  8939 TIP3 OH2  OT    -0.834000       15.9994           0
   77307 WT9  8939 TIP3 H1   HT     0.417000        1.0080           0
   77308 WT9  8939 TIP3 H2   HT     0.417000        1.0080           0
   77309 WT9  8960 TIP3 OH2  OT    -0.834000       15.9994           0
   77310 WT9  8960 TIP3 H1   HT     0.417000        1.0080           0
   77311 WT9  8960 TIP3 H2   HT     0.417000        1.0080           0
   77312 WT9  8972 TIP3 OH2  OT    -0.834000       15.9994           0
   77313 WT9  8972 TIP3 H1   HT     0.417000        1.0080           0
   77314 WT9  8972 TIP3 H2   HT     0.417000        1.0080           0
   77315 WT9  8973 TIP3 OH2  OT    -0.834000       15.9994           0
   77316 WT9  8973 TIP3 H1   HT     0.417000        1.0080           0
   77317 WT9  8973 TIP3 H2   HT     0.417000        1.0080           0
   77318 WT9  8977 TIP3 OH2  OT    -0.834000       15.9994           0
   77319 WT9  8977 TIP3 H1   HT     0.417000        1.0080           0
   77320 WT9  8977 TIP3 H2   HT     0.417000        1.0080           0
   77321 WT9  8988 TIP3 OH2  OT    -0.834000       15.9994           0
   77322 WT9  8988 TIP3 H1   HT     0.417000        1.0080           0
   77323 WT9  8988 TIP3 H2   HT     0.417000        1.0080           0
   77324 WT9  9017 TIP3 OH2  OT    -0.834000       15.9994           0
   77325 WT9  9017 TIP3 H1   HT     0.417000        1.0080           0
   77326 WT9  9017 TIP3 H2   HT     0.417000        1.0080           0
   77327 WT9  9035 TIP3 OH2  OT    -0.834000       15.9994           0
   77328 WT9  9035 TIP3 H1   HT     0.417000        1.0080           0
   77329 WT9  9035 TIP3 H2   HT     0.417000        1.0080           0
   77330 WT9  9047 TIP3 OH2  OT    -0.834000       15.9994           0
   77331 WT9  9047 TIP3 H1   HT     0.417000        1.0080           0
   77332 WT9  9047 TIP3 H2   HT     0.417000        1.0080           0
   77333 WT9  9049 TIP3 OH2  OT    -0.834000       15.9994           0
   77334 WT9  9049 TIP3 H1   HT     0.417000        1.0080           0
   77335 WT9  9049 TIP3 H2   HT     0.417000        1.0080           0
   77336 WT9  9055 TIP3 OH2  OT    -0.834000       15.9994           0
   77337 WT9  9055 TIP3 H1   HT     0.417000        1.0080           0
   77338 WT9  9055 TIP3 H2   HT     0.417000        1.0080           0
   77339 WT9  9064 TIP3 OH2  OT    -0.834000       15.9994           0
   77340 WT9  9064 TIP3 H1   HT     0.417000        1.0080           0
   77341 WT9  9064 TIP3 H2   HT     0.417000        1.0080           0
   77342 WT9  9065 TIP3 OH2  OT    -0.834000       15.9994           0
   77343 WT9  9065 TIP3 H1   HT     0.417000        1.0080           0
   77344 WT9  9065 TIP3 H2   HT     0.417000        1.0080           0
   77345 WT9  9073 TIP3 OH2  OT    -0.834000       15.9994           0
   77346 WT9  9073 TIP3 H1   HT     0.417000        1.0080           0
   77347 WT9  9073 TIP3 H2   HT     0.417000        1.0080           0
   77348 WT9  9077 TIP3 OH2  OT    -0.834000       15.9994           0
   77349 WT9  9077 TIP3 H1   HT     0.417000        1.0080           0
   77350 WT9  9077 TIP3 H2   HT     0.417000        1.0080           0
   77351 WT9  9085 TIP3 OH2  OT    -0.834000       15.9994           0
   77352 WT9  9085 TIP3 H1   HT     0.417000        1.0080           0
   77353 WT9  9085 TIP3 H2   HT     0.417000        1.0080           0
   77354 WT9  9097 TIP3 OH2  OT    -0.834000       15.9994           0
   77355 WT9  9097 TIP3 H1   HT     0.417000        1.0080           0
   77356 WT9  9097 TIP3 H2   HT     0.417000        1.0080           0
   77357 WT9  9102 TIP3 OH2  OT    -0.834000       15.9994           0
   77358 WT9  9102 TIP3 H1   HT     0.417000        1.0080           0
   77359 WT9  9102 TIP3 H2   HT     0.417000        1.0080           0
   77360 WT9  9116 TIP3 OH2  OT    -0.834000       15.9994           0
   77361 WT9  9116 TIP3 H1   HT     0.417000        1.0080           0
   77362 WT9  9116 TIP3 H2   HT     0.417000        1.0080           0
   77363 WT9  9124 TIP3 OH2  OT    -0.834000       15.9994           0
   77364 WT9  9124 TIP3 H1   HT     0.417000        1.0080           0
   77365 WT9  9124 TIP3 H2   HT     0.417000        1.0080           0
   77366 WT9  9125 TIP3 OH2  OT    -0.834000       15.9994           0
   77367 WT9  9125 TIP3 H1   HT     0.417000        1.0080           0
   77368 WT9  9125 TIP3 H2   HT     0.417000        1.0080           0
   77369 WT9  9143 TIP3 OH2  OT    -0.834000       15.9994           0
   77370 WT9  9143 TIP3 H1   HT     0.417000        1.0080           0
   77371 WT9  9143 TIP3 H2   HT     0.417000        1.0080           0
   77372 WT9  9144 TIP3 OH2  OT    -0.834000       15.9994           0
   77373 WT9  9144 TIP3 H1   HT     0.417000        1.0080           0
   77374 WT9  9144 TIP3 H2   HT     0.417000        1.0080           0
   77375 WT9  9157 TIP3 OH2  OT    -0.834000       15.9994           0
   77376 WT9  9157 TIP3 H1   HT     0.417000        1.0080           0
   77377 WT9  9157 TIP3 H2   HT     0.417000        1.0080           0
   77378 WT9  9158 TIP3 OH2  OT    -0.834000       15.9994           0
   77379 WT9  9158 TIP3 H1   HT     0.417000        1.0080           0
   77380 WT9  9158 TIP3 H2   HT     0.417000        1.0080           0
   77381 WT9  9161 TIP3 OH2  OT    -0.834000       15.9994           0
   77382 WT9  9161 TIP3 H1   HT     0.417000        1.0080           0
   77383 WT9  9161 TIP3 H2   HT     0.417000        1.0080           0
   77384 WT9  9162 TIP3 OH2  OT    -0.834000       15.9994           0
   77385 WT9  9162 TIP3 H1   HT     0.417000        1.0080           0
   77386 WT9  9162 TIP3 H2   HT     0.417000        1.0080           0
   77387 WT9  9171 TIP3 OH2  OT    -0.834000       15.9994           0
   77388 WT9  9171 TIP3 H1   HT     0.417000        1.0080           0
   77389 WT9  9171 TIP3 H2   HT     0.417000        1.0080           0
   77390 WT9  9182 TIP3 OH2  OT    -0.834000       15.9994           0
   77391 WT9  9182 TIP3 H1   HT     0.417000        1.0080           0
   77392 WT9  9182 TIP3 H2   HT     0.417000        1.0080           0
   77393 WT9  9183 TIP3 OH2  OT    -0.834000       15.9994           0
   77394 WT9  9183 TIP3 H1   HT     0.417000        1.0080           0
   77395 WT9  9183 TIP3 H2   HT     0.417000        1.0080           0
   77396 WT9  9184 TIP3 OH2  OT    -0.834000       15.9994           0
   77397 WT9  9184 TIP3 H1   HT     0.417000        1.0080           0
   77398 WT9  9184 TIP3 H2   HT     0.417000        1.0080           0
   77399 WT9  9188 TIP3 OH2  OT    -0.834000       15.9994           0
   77400 WT9  9188 TIP3 H1   HT     0.417000        1.0080           0
   77401 WT9  9188 TIP3 H2   HT     0.417000        1.0080           0
   77402 WT9  9198 TIP3 OH2  OT    -0.834000       15.9994           0
   77403 WT9  9198 TIP3 H1   HT     0.417000        1.0080           0
   77404 WT9  9198 TIP3 H2   HT     0.417000        1.0080           0
   77405 WT9  9211 TIP3 OH2  OT    -0.834000       15.9994           0
   77406 WT9  9211 TIP3 H1   HT     0.417000        1.0080           0
   77407 WT9  9211 TIP3 H2   HT     0.417000        1.0080           0
   77408 WT9  9212 TIP3 OH2  OT    -0.834000       15.9994           0
   77409 WT9  9212 TIP3 H1   HT     0.417000        1.0080           0
   77410 WT9  9212 TIP3 H2   HT     0.417000        1.0080           0
   77411 WT9  9223 TIP3 OH2  OT    -0.834000       15.9994           0
   77412 WT9  9223 TIP3 H1   HT     0.417000        1.0080           0
   77413 WT9  9223 TIP3 H2   HT     0.417000        1.0080           0
   77414 WT9  9225 TIP3 OH2  OT    -0.834000       15.9994           0
   77415 WT9  9225 TIP3 H1   HT     0.417000        1.0080           0
   77416 WT9  9225 TIP3 H2   HT     0.417000        1.0080           0
   77417 WT9  9227 TIP3 OH2  OT    -0.834000       15.9994           0
   77418 WT9  9227 TIP3 H1   HT     0.417000        1.0080           0
   77419 WT9  9227 TIP3 H2   HT     0.417000        1.0080           0
   77420 WT9  9228 TIP3 OH2  OT    -0.834000       15.9994           0
   77421 WT9  9228 TIP3 H1   HT     0.417000        1.0080           0
   77422 WT9  9228 TIP3 H2   HT     0.417000        1.0080           0
   77423 WT9  9250 TIP3 OH2  OT    -0.834000       15.9994           0
   77424 WT9  9250 TIP3 H1   HT     0.417000        1.0080           0
   77425 WT9  9250 TIP3 H2   HT     0.417000        1.0080           0
   77426 WT9  9254 TIP3 OH2  OT    -0.834000       15.9994           0
   77427 WT9  9254 TIP3 H1   HT     0.417000        1.0080           0
   77428 WT9  9254 TIP3 H2   HT     0.417000        1.0080           0
   77429 WT9  9256 TIP3 OH2  OT    -0.834000       15.9994           0
   77430 WT9  9256 TIP3 H1   HT     0.417000        1.0080           0
   77431 WT9  9256 TIP3 H2   HT     0.417000        1.0080           0
   77432 WT9  9259 TIP3 OH2  OT    -0.834000       15.9994           0
   77433 WT9  9259 TIP3 H1   HT     0.417000        1.0080           0
   77434 WT9  9259 TIP3 H2   HT     0.417000        1.0080           0
   77435 WT10 8    TIP3 OH2  OT    -0.834000       15.9994           0
   77436 WT10 8    TIP3 H1   HT     0.417000        1.0080           0
   77437 WT10 8    TIP3 H2   HT     0.417000        1.0080           0
   77438 WT10 37   TIP3 OH2  OT    -0.834000       15.9994           0
   77439 WT10 37   TIP3 H1   HT     0.417000        1.0080           0
   77440 WT10 37   TIP3 H2   HT     0.417000        1.0080           0
   77441 WT10 67   TIP3 OH2  OT    -0.834000       15.9994           0
   77442 WT10 67   TIP3 H1   HT     0.417000        1.0080           0
   77443 WT10 67   TIP3 H2   HT     0.417000        1.0080           0
   77444 WT10 94   TIP3 OH2  OT    -0.834000       15.9994           0
   77445 WT10 94   TIP3 H1   HT     0.417000        1.0080           0
   77446 WT10 94   TIP3 H2   HT     0.417000        1.0080           0
   77447 WT10 175  TIP3 OH2  OT    -0.834000       15.9994           0
   77448 WT10 175  TIP3 H1   HT     0.417000        1.0080           0
   77449 WT10 175  TIP3 H2   HT     0.417000        1.0080           0
   77450 WT10 400  TIP3 OH2  OT    -0.834000       15.9994           0
   77451 WT10 400  TIP3 H1   HT     0.417000        1.0080           0
   77452 WT10 400  TIP3 H2   HT     0.417000        1.0080           0
   77453 WT10 462  TIP3 OH2  OT    -0.834000       15.9994           0
   77454 WT10 462  TIP3 H1   HT     0.417000        1.0080           0
   77455 WT10 462  TIP3 H2   HT     0.417000        1.0080           0
   77456 WT10 486  TIP3 OH2  OT    -0.834000       15.9994           0
   77457 WT10 486  TIP3 H1   HT     0.417000        1.0080           0
   77458 WT10 486  TIP3 H2   HT     0.417000        1.0080           0
   77459 WT10 490  TIP3 OH2  OT    -0.834000       15.9994           0
   77460 WT10 490  TIP3 H1   HT     0.417000        1.0080           0
   77461 WT10 490  TIP3 H2   HT     0.417000        1.0080           0
   77462 WT10 501  TIP3 OH2  OT    -0.834000       15.9994           0
   77463 WT10 501  TIP3 H1   HT     0.417000        1.0080           0
   77464 WT10 501  TIP3 H2   HT     0.417000        1.0080           0
   77465 WT10 506  TIP3 OH2  OT    -0.834000       15.9994           0
   77466 WT10 506  TIP3 H1   HT     0.417000        1.0080           0
   77467 WT10 506  TIP3 H2   HT     0.417000        1.0080           0
   77468 WT10 509  TIP3 OH2  OT    -0.834000       15.9994           0
   77469 WT10 509  TIP3 H1   HT     0.417000        1.0080           0
   77470 WT10 509  TIP3 H2   HT     0.417000        1.0080           0
   77471 WT10 516  TIP3 OH2  OT    -0.834000       15.9994           0
   77472 WT10 516  TIP3 H1   HT     0.417000        1.0080           0
   77473 WT10 516  TIP3 H2   HT     0.417000        1.0080           0
   77474 WT10 520  TIP3 OH2  OT    -0.834000       15.9994           0
   77475 WT10 520  TIP3 H1   HT     0.417000        1.0080           0
   77476 WT10 520  TIP3 H2   HT     0.417000        1.0080           0
   77477 WT10 550  TIP3 OH2  OT    -0.834000       15.9994           0
   77478 WT10 550  TIP3 H1   HT     0.417000        1.0080           0
   77479 WT10 550  TIP3 H2   HT     0.417000        1.0080           0
   77480 WT10 821  TIP3 OH2  OT    -0.834000       15.9994           0
   77481 WT10 821  TIP3 H1   HT     0.417000        1.0080           0
   77482 WT10 821  TIP3 H2   HT     0.417000        1.0080           0
   77483 WT10 822  TIP3 OH2  OT    -0.834000       15.9994           0
   77484 WT10 822  TIP3 H1   HT     0.417000        1.0080           0
   77485 WT10 822  TIP3 H2   HT     0.417000        1.0080           0
   77486 WT10 849  TIP3 OH2  OT    -0.834000       15.9994           0
   77487 WT10 849  TIP3 H1   HT     0.417000        1.0080           0
   77488 WT10 849  TIP3 H2   HT     0.417000        1.0080           0
   77489 WT10 852  TIP3 OH2  OT    -0.834000       15.9994           0
   77490 WT10 852  TIP3 H1   HT     0.417000        1.0080           0
   77491 WT10 852  TIP3 H2   HT     0.417000        1.0080           0
   77492 WT10 854  TIP3 OH2  OT    -0.834000       15.9994           0
   77493 WT10 854  TIP3 H1   HT     0.417000        1.0080           0
   77494 WT10 854  TIP3 H2   HT     0.417000        1.0080           0
   77495 WT10 889  TIP3 OH2  OT    -0.834000       15.9994           0
   77496 WT10 889  TIP3 H1   HT     0.417000        1.0080           0
   77497 WT10 889  TIP3 H2   HT     0.417000        1.0080           0
   77498 WT10 919  TIP3 OH2  OT    -0.834000       15.9994           0
   77499 WT10 919  TIP3 H1   HT     0.417000        1.0080           0
   77500 WT10 919  TIP3 H2   HT     0.417000        1.0080           0
   77501 WT10 928  TIP3 OH2  OT    -0.834000       15.9994           0
   77502 WT10 928  TIP3 H1   HT     0.417000        1.0080           0
   77503 WT10 928  TIP3 H2   HT     0.417000        1.0080           0
   77504 WT10 936  TIP3 OH2  OT    -0.834000       15.9994           0
   77505 WT10 936  TIP3 H1   HT     0.417000        1.0080           0
   77506 WT10 936  TIP3 H2   HT     0.417000        1.0080           0
   77507 WT10 940  TIP3 OH2  OT    -0.834000       15.9994           0
   77508 WT10 940  TIP3 H1   HT     0.417000        1.0080           0
   77509 WT10 940  TIP3 H2   HT     0.417000        1.0080           0
   77510 WT10 949  TIP3 OH2  OT    -0.834000       15.9994           0
   77511 WT10 949  TIP3 H1   HT     0.417000        1.0080           0
   77512 WT10 949  TIP3 H2   HT     0.417000        1.0080           0
   77513 WT10 958  TIP3 OH2  OT    -0.834000       15.9994           0
   77514 WT10 958  TIP3 H1   HT     0.417000        1.0080           0
   77515 WT10 958  TIP3 H2   HT     0.417000        1.0080           0
   77516 WT10 981  TIP3 OH2  OT    -0.834000       15.9994           0
   77517 WT10 981  TIP3 H1   HT     0.417000        1.0080           0
   77518 WT10 981  TIP3 H2   HT     0.417000        1.0080           0
   77519 WT10 993  TIP3 OH2  OT    -0.834000       15.9994           0
   77520 WT10 993  TIP3 H1   HT     0.417000        1.0080           0
   77521 WT10 993  TIP3 H2   HT     0.417000        1.0080           0
   77522 WT10 1298 TIP3 OH2  OT    -0.834000       15.9994           0
   77523 WT10 1298 TIP3 H1   HT     0.417000        1.0080           0
   77524 WT10 1298 TIP3 H2   HT     0.417000        1.0080           0
   77525 WT10 1301 TIP3 OH2  OT    -0.834000       15.9994           0
   77526 WT10 1301 TIP3 H1   HT     0.417000        1.0080           0
   77527 WT10 1301 TIP3 H2   HT     0.417000        1.0080           0
   77528 WT10 1328 TIP3 OH2  OT    -0.834000       15.9994           0
   77529 WT10 1328 TIP3 H1   HT     0.417000        1.0080           0
   77530 WT10 1328 TIP3 H2   HT     0.417000        1.0080           0
   77531 WT10 1382 TIP3 OH2  OT    -0.834000       15.9994           0
   77532 WT10 1382 TIP3 H1   HT     0.417000        1.0080           0
   77533 WT10 1382 TIP3 H2   HT     0.417000        1.0080           0
   77534 WT10 1440 TIP3 OH2  OT    -0.834000       15.9994           0
   77535 WT10 1440 TIP3 H1   HT     0.417000        1.0080           0
   77536 WT10 1440 TIP3 H2   HT     0.417000        1.0080           0
   77537 WT10 1718 TIP3 OH2  OT    -0.834000       15.9994           0
   77538 WT10 1718 TIP3 H1   HT     0.417000        1.0080           0
   77539 WT10 1718 TIP3 H2   HT     0.417000        1.0080           0
   77540 WT10 1725 TIP3 OH2  OT    -0.834000       15.9994           0
   77541 WT10 1725 TIP3 H1   HT     0.417000        1.0080           0
   77542 WT10 1725 TIP3 H2   HT     0.417000        1.0080           0
   77543 WT10 1733 TIP3 OH2  OT    -0.834000       15.9994           0
   77544 WT10 1733 TIP3 H1   HT     0.417000        1.0080           0
   77545 WT10 1733 TIP3 H2   HT     0.417000        1.0080           0
   77546 WT10 1756 TIP3 OH2  OT    -0.834000       15.9994           0
   77547 WT10 1756 TIP3 H1   HT     0.417000        1.0080           0
   77548 WT10 1756 TIP3 H2   HT     0.417000        1.0080           0
   77549 WT10 1764 TIP3 OH2  OT    -0.834000       15.9994           0
   77550 WT10 1764 TIP3 H1   HT     0.417000        1.0080           0
   77551 WT10 1764 TIP3 H2   HT     0.417000        1.0080           0
   77552 WT10 1775 TIP3 OH2  OT    -0.834000       15.9994           0
   77553 WT10 1775 TIP3 H1   HT     0.417000        1.0080           0
   77554 WT10 1775 TIP3 H2   HT     0.417000        1.0080           0
   77555 WT10 1778 TIP3 OH2  OT    -0.834000       15.9994           0
   77556 WT10 1778 TIP3 H1   HT     0.417000        1.0080           0
   77557 WT10 1778 TIP3 H2   HT     0.417000        1.0080           0
   77558 WT10 1782 TIP3 OH2  OT    -0.834000       15.9994           0
   77559 WT10 1782 TIP3 H1   HT     0.417000        1.0080           0
   77560 WT10 1782 TIP3 H2   HT     0.417000        1.0080           0
   77561 WT10 2231 TIP3 OH2  OT    -0.834000       15.9994           0
   77562 WT10 2231 TIP3 H1   HT     0.417000        1.0080           0
   77563 WT10 2231 TIP3 H2   HT     0.417000        1.0080           0
   77564 WT10 2268 TIP3 OH2  OT    -0.834000       15.9994           0
   77565 WT10 2268 TIP3 H1   HT     0.417000        1.0080           0
   77566 WT10 2268 TIP3 H2   HT     0.417000        1.0080           0
   77567 WT10 2289 TIP3 OH2  OT    -0.834000       15.9994           0
   77568 WT10 2289 TIP3 H1   HT     0.417000        1.0080           0
   77569 WT10 2289 TIP3 H2   HT     0.417000        1.0080           0
   77570 WT10 2629 TIP3 OH2  OT    -0.834000       15.9994           0
   77571 WT10 2629 TIP3 H1   HT     0.417000        1.0080           0
   77572 WT10 2629 TIP3 H2   HT     0.417000        1.0080           0
   77573 WT10 2705 TIP3 OH2  OT    -0.834000       15.9994           0
   77574 WT10 2705 TIP3 H1   HT     0.417000        1.0080           0
   77575 WT10 2705 TIP3 H2   HT     0.417000        1.0080           0
   77576 WT10 3521 TIP3 OH2  OT    -0.834000       15.9994           0
   77577 WT10 3521 TIP3 H1   HT     0.417000        1.0080           0
   77578 WT10 3521 TIP3 H2   HT     0.417000        1.0080           0
   77579 WT10 6240 TIP3 OH2  OT    -0.834000       15.9994           0
   77580 WT10 6240 TIP3 H1   HT     0.417000        1.0080           0
   77581 WT10 6240 TIP3 H2   HT     0.417000        1.0080           0
   77582 WT10 6650 TIP3 OH2  OT    -0.834000       15.9994           0
   77583 WT10 6650 TIP3 H1   HT     0.417000        1.0080           0
   77584 WT10 6650 TIP3 H2   HT     0.417000        1.0080           0
   77585 WT10 7027 TIP3 OH2  OT    -0.834000       15.9994           0
   77586 WT10 7027 TIP3 H1   HT     0.417000        1.0080           0
   77587 WT10 7027 TIP3 H2   HT     0.417000        1.0080           0
   77588 WT10 7707 TIP3 OH2  OT    -0.834000       15.9994           0
   77589 WT10 7707 TIP3 H1   HT     0.417000        1.0080           0
   77590 WT10 7707 TIP3 H2   HT     0.417000        1.0080           0
   77591 WT10 7876 TIP3 OH2  OT    -0.834000       15.9994           0
   77592 WT10 7876 TIP3 H1   HT     0.417000        1.0080           0
   77593 WT10 7876 TIP3 H2   HT     0.417000        1.0080           0
   77594 WT10 7951 TIP3 OH2  OT    -0.834000       15.9994           0
   77595 WT10 7951 TIP3 H1   HT     0.417000        1.0080           0
   77596 WT10 7951 TIP3 H2   HT     0.417000        1.0080           0
   77597 WT10 7961 TIP3 OH2  OT    -0.834000       15.9994           0
   77598 WT10 7961 TIP3 H1   HT     0.417000        1.0080           0
   77599 WT10 7961 TIP3 H2   HT     0.417000        1.0080           0
   77600 WT10 8009 TIP3 OH2  OT    -0.834000       15.9994           0
   77601 WT10 8009 TIP3 H1   HT     0.417000        1.0080           0
   77602 WT10 8009 TIP3 H2   HT     0.417000        1.0080           0
   77603 WT10 8034 TIP3 OH2  OT    -0.834000       15.9994           0
   77604 WT10 8034 TIP3 H1   HT     0.417000        1.0080           0
   77605 WT10 8034 TIP3 H2   HT     0.417000        1.0080           0
   77606 WT10 8270 TIP3 OH2  OT    -0.834000       15.9994           0
   77607 WT10 8270 TIP3 H1   HT     0.417000        1.0080           0
   77608 WT10 8270 TIP3 H2   HT     0.417000        1.0080           0
   77609 WT10 8290 TIP3 OH2  OT    -0.834000       15.9994           0
   77610 WT10 8290 TIP3 H1   HT     0.417000        1.0080           0
   77611 WT10 8290 TIP3 H2   HT     0.417000        1.0080           0
   77612 WT10 8309 TIP3 OH2  OT    -0.834000       15.9994           0
   77613 WT10 8309 TIP3 H1   HT     0.417000        1.0080           0
   77614 WT10 8309 TIP3 H2   HT     0.417000        1.0080           0
   77615 WT10 8408 TIP3 OH2  OT    -0.834000       15.9994           0
   77616 WT10 8408 TIP3 H1   HT     0.417000        1.0080           0
   77617 WT10 8408 TIP3 H2   HT     0.417000        1.0080           0
   77618 WT10 8425 TIP3 OH2  OT    -0.834000       15.9994           0
   77619 WT10 8425 TIP3 H1   HT     0.417000        1.0080           0
   77620 WT10 8425 TIP3 H2   HT     0.417000        1.0080           0
   77621 WT10 8452 TIP3 OH2  OT    -0.834000       15.9994           0
   77622 WT10 8452 TIP3 H1   HT     0.417000        1.0080           0
   77623 WT10 8452 TIP3 H2   HT     0.417000        1.0080           0
   77624 WT10 8824 TIP3 OH2  OT    -0.834000       15.9994           0
   77625 WT10 8824 TIP3 H1   HT     0.417000        1.0080           0
   77626 WT10 8824 TIP3 H2   HT     0.417000        1.0080           0
   77627 WT10 8833 TIP3 OH2  OT    -0.834000       15.9994           0
   77628 WT10 8833 TIP3 H1   HT     0.417000        1.0080           0
   77629 WT10 8833 TIP3 H2   HT     0.417000        1.0080           0
   77630 WT10 8838 TIP3 OH2  OT    -0.834000       15.9994           0
   77631 WT10 8838 TIP3 H1   HT     0.417000        1.0080           0
   77632 WT10 8838 TIP3 H2   HT     0.417000        1.0080           0
   77633 WT10 8864 TIP3 OH2  OT    -0.834000       15.9994           0
   77634 WT10 8864 TIP3 H1   HT     0.417000        1.0080           0
   77635 WT10 8864 TIP3 H2   HT     0.417000        1.0080           0
   77636 WT10 8869 TIP3 OH2  OT    -0.834000       15.9994           0
   77637 WT10 8869 TIP3 H1   HT     0.417000        1.0080           0
   77638 WT10 8869 TIP3 H2   HT     0.417000        1.0080           0
   77639 WT10 8942 TIP3 OH2  OT    -0.834000       15.9994           0
   77640 WT10 8942 TIP3 H1   HT     0.417000        1.0080           0
   77641 WT10 8942 TIP3 H2   HT     0.417000        1.0080           0
   77642 WT10 9212 TIP3 OH2  OT    -0.834000       15.9994           0
   77643 WT10 9212 TIP3 H1   HT     0.417000        1.0080           0
   77644 WT10 9212 TIP3 H2   HT     0.417000        1.0080           0
   77645 WT11 8    TIP3 OH2  OT    -0.834000       15.9994           0
   77646 WT11 8    TIP3 H1   HT     0.417000        1.0080           0
   77647 WT11 8    TIP3 H2   HT     0.417000        1.0080           0
   77648 WT11 19   TIP3 OH2  OT    -0.834000       15.9994           0
   77649 WT11 19   TIP3 H1   HT     0.417000        1.0080           0
   77650 WT11 19   TIP3 H2   HT     0.417000        1.0080           0
   77651 WT11 37   TIP3 OH2  OT    -0.834000       15.9994           0
   77652 WT11 37   TIP3 H1   HT     0.417000        1.0080           0
   77653 WT11 37   TIP3 H2   HT     0.417000        1.0080           0
   77654 WT11 67   TIP3 OH2  OT    -0.834000       15.9994           0
   77655 WT11 67   TIP3 H1   HT     0.417000        1.0080           0
   77656 WT11 67   TIP3 H2   HT     0.417000        1.0080           0
   77657 WT11 94   TIP3 OH2  OT    -0.834000       15.9994           0
   77658 WT11 94   TIP3 H1   HT     0.417000        1.0080           0
   77659 WT11 94   TIP3 H2   HT     0.417000        1.0080           0
   77660 WT11 175  TIP3 OH2  OT    -0.834000       15.9994           0
   77661 WT11 175  TIP3 H1   HT     0.417000        1.0080           0
   77662 WT11 175  TIP3 H2   HT     0.417000        1.0080           0
   77663 WT11 400  TIP3 OH2  OT    -0.834000       15.9994           0
   77664 WT11 400  TIP3 H1   HT     0.417000        1.0080           0
   77665 WT11 400  TIP3 H2   HT     0.417000        1.0080           0
   77666 WT11 449  TIP3 OH2  OT    -0.834000       15.9994           0
   77667 WT11 449  TIP3 H1   HT     0.417000        1.0080           0
   77668 WT11 449  TIP3 H2   HT     0.417000        1.0080           0
   77669 WT11 462  TIP3 OH2  OT    -0.834000       15.9994           0
   77670 WT11 462  TIP3 H1   HT     0.417000        1.0080           0
   77671 WT11 462  TIP3 H2   HT     0.417000        1.0080           0
   77672 WT11 486  TIP3 OH2  OT    -0.834000       15.9994           0
   77673 WT11 486  TIP3 H1   HT     0.417000        1.0080           0
   77674 WT11 486  TIP3 H2   HT     0.417000        1.0080           0
   77675 WT11 501  TIP3 OH2  OT    -0.834000       15.9994           0
   77676 WT11 501  TIP3 H1   HT     0.417000        1.0080           0
   77677 WT11 501  TIP3 H2   HT     0.417000        1.0080           0
   77678 WT11 509  TIP3 OH2  OT    -0.834000       15.9994           0
   77679 WT11 509  TIP3 H1   HT     0.417000        1.0080           0
   77680 WT11 509  TIP3 H2   HT     0.417000        1.0080           0
   77681 WT11 516  TIP3 OH2  OT    -0.834000       15.9994           0
   77682 WT11 516  TIP3 H1   HT     0.417000        1.0080           0
   77683 WT11 516  TIP3 H2   HT     0.417000        1.0080           0
   77684 WT11 520  TIP3 OH2  OT    -0.834000       15.9994           0
   77685 WT11 520  TIP3 H1   HT     0.417000        1.0080           0
   77686 WT11 520  TIP3 H2   HT     0.417000        1.0080           0
   77687 WT11 821  TIP3 OH2  OT    -0.834000       15.9994           0
   77688 WT11 821  TIP3 H1   HT     0.417000        1.0080           0
   77689 WT11 821  TIP3 H2   HT     0.417000        1.0080           0
   77690 WT11 822  TIP3 OH2  OT    -0.834000       15.9994           0
   77691 WT11 822  TIP3 H1   HT     0.417000        1.0080           0
   77692 WT11 822  TIP3 H2   HT     0.417000        1.0080           0
   77693 WT11 849  TIP3 OH2  OT    -0.834000       15.9994           0
   77694 WT11 849  TIP3 H1   HT     0.417000        1.0080           0
   77695 WT11 849  TIP3 H2   HT     0.417000        1.0080           0
   77696 WT11 852  TIP3 OH2  OT    -0.834000       15.9994           0
   77697 WT11 852  TIP3 H1   HT     0.417000        1.0080           0
   77698 WT11 852  TIP3 H2   HT     0.417000        1.0080           0
   77699 WT11 854  TIP3 OH2  OT    -0.834000       15.9994           0
   77700 WT11 854  TIP3 H1   HT     0.417000        1.0080           0
   77701 WT11 854  TIP3 H2   HT     0.417000        1.0080           0
   77702 WT11 889  TIP3 OH2  OT    -0.834000       15.9994           0
   77703 WT11 889  TIP3 H1   HT     0.417000        1.0080           0
   77704 WT11 889  TIP3 H2   HT     0.417000        1.0080           0
   77705 WT11 892  TIP3 OH2  OT    -0.834000       15.9994           0
   77706 WT11 892  TIP3 H1   HT     0.417000        1.0080           0
   77707 WT11 892  TIP3 H2   HT     0.417000        1.0080           0
   77708 WT11 919  TIP3 OH2  OT    -0.834000       15.9994           0
   77709 WT11 919  TIP3 H1   HT     0.417000        1.0080           0
   77710 WT11 919  TIP3 H2   HT     0.417000        1.0080           0
   77711 WT11 928  TIP3 OH2  OT    -0.834000       15.9994           0
   77712 WT11 928  TIP3 H1   HT     0.417000        1.0080           0
   77713 WT11 928  TIP3 H2   HT     0.417000        1.0080           0
   77714 WT11 936  TIP3 OH2  OT    -0.834000       15.9994           0
   77715 WT11 936  TIP3 H1   HT     0.417000        1.0080           0
   77716 WT11 936  TIP3 H2   HT     0.417000        1.0080           0
   77717 WT11 940  TIP3 OH2  OT    -0.834000       15.9994           0
   77718 WT11 940  TIP3 H1   HT     0.417000        1.0080           0
   77719 WT11 940  TIP3 H2   HT     0.417000        1.0080           0
   77720 WT11 949  TIP3 OH2  OT    -0.834000       15.9994           0
   77721 WT11 949  TIP3 H1   HT     0.417000        1.0080           0
   77722 WT11 949  TIP3 H2   HT     0.417000        1.0080           0
   77723 WT11 958  TIP3 OH2  OT    -0.834000       15.9994           0
   77724 WT11 958  TIP3 H1   HT     0.417000        1.0080           0
   77725 WT11 958  TIP3 H2   HT     0.417000        1.0080           0
   77726 WT11 981  TIP3 OH2  OT    -0.834000       15.9994           0
   77727 WT11 981  TIP3 H1   HT     0.417000        1.0080           0
   77728 WT11 981  TIP3 H2   HT     0.417000        1.0080           0
   77729 WT11 993  TIP3 OH2  OT    -0.834000       15.9994           0
   77730 WT11 993  TIP3 H1   HT     0.417000        1.0080           0
   77731 WT11 993  TIP3 H2   HT     0.417000        1.0080           0
   77732 WT11 1298 TIP3 OH2  OT    -0.834000       15.9994           0
   77733 WT11 1298 TIP3 H1   HT     0.417000        1.0080           0
   77734 WT11 1298 TIP3 H2   HT     0.417000        1.0080           0
   77735 WT11 1301 TIP3 OH2  OT    -0.834000       15.9994           0
   77736 WT11 1301 TIP3 H1   HT     0.417000        1.0080           0
   77737 WT11 1301 TIP3 H2   HT     0.417000        1.0080           0
   77738 WT11 1370 TIP3 OH2  OT    -0.834000       15.9994           0
   77739 WT11 1370 TIP3 H1   HT     0.417000        1.0080           0
   77740 WT11 1370 TIP3 H2   HT     0.417000        1.0080           0
   77741 WT11 1372 TIP3 OH2  OT    -0.834000       15.9994           0
   77742 WT11 1372 TIP3 H1   HT     0.417000        1.0080           0
   77743 WT11 1372 TIP3 H2   HT     0.417000        1.0080           0
   77744 WT11 1382 TIP3 OH2  OT    -0.834000       15.9994           0
   77745 WT11 1382 TIP3 H1   HT     0.417000        1.0080           0
   77746 WT11 1382 TIP3 H2   HT     0.417000        1.0080           0
   77747 WT11 1440 TIP3 OH2  OT    -0.834000       15.9994           0
   77748 WT11 1440 TIP3 H1   HT     0.417000        1.0080           0
   77749 WT11 1440 TIP3 H2   HT     0.417000        1.0080           0
   77750 WT11 1718 TIP3 OH2  OT    -0.834000       15.9994           0
   77751 WT11 1718 TIP3 H1   HT     0.417000        1.0080           0
   77752 WT11 1718 TIP3 H2   HT     0.417000        1.0080           0
   77753 WT11 1725 TIP3 OH2  OT    -0.834000       15.9994           0
   77754 WT11 1725 TIP3 H1   HT     0.417000        1.0080           0
   77755 WT11 1725 TIP3 H2   HT     0.417000        1.0080           0
   77756 WT11 1733 TIP3 OH2  OT    -0.834000       15.9994           0
   77757 WT11 1733 TIP3 H1   HT     0.417000        1.0080           0
   77758 WT11 1733 TIP3 H2   HT     0.417000        1.0080           0
   77759 WT11 1756 TIP3 OH2  OT    -0.834000       15.9994           0
   77760 WT11 1756 TIP3 H1   HT     0.417000        1.0080           0
   77761 WT11 1756 TIP3 H2   HT     0.417000        1.0080           0
   77762 WT11 1764 TIP3 OH2  OT    -0.834000       15.9994           0
   77763 WT11 1764 TIP3 H1   HT     0.417000        1.0080           0
   77764 WT11 1764 TIP3 H2   HT     0.417000        1.0080           0
   77765 WT11 1771 TIP3 OH2  OT    -0.834000       15.9994           0
   77766 WT11 1771 TIP3 H1   HT     0.417000        1.0080           0
   77767 WT11 1771 TIP3 H2   HT     0.417000        1.0080           0
   77768 WT11 1775 TIP3 OH2  OT    -0.834000       15.9994           0
   77769 WT11 1775 TIP3 H1   HT     0.417000        1.0080           0
   77770 WT11 1775 TIP3 H2   HT     0.417000        1.0080           0
   77771 WT11 1778 TIP3 OH2  OT    -0.834000       15.9994           0
   77772 WT11 1778 TIP3 H1   HT     0.417000        1.0080           0
   77773 WT11 1778 TIP3 H2   HT     0.417000        1.0080           0
   77774 WT11 1782 TIP3 OH2  OT    -0.834000       15.9994           0
   77775 WT11 1782 TIP3 H1   HT     0.417000        1.0080           0
   77776 WT11 1782 TIP3 H2   HT     0.417000        1.0080           0
   77777 WT11 2231 TIP3 OH2  OT    -0.834000       15.9994           0
   77778 WT11 2231 TIP3 H1   HT     0.417000        1.0080           0
   77779 WT11 2231 TIP3 H2   HT     0.417000        1.0080           0
   77780 WT11 2268 TIP3 OH2  OT    -0.834000       15.9994           0
   77781 WT11 2268 TIP3 H1   HT     0.417000        1.0080           0
   77782 WT11 2268 TIP3 H2   HT     0.417000        1.0080           0
   77783 WT11 3521 TIP3 OH2  OT    -0.834000       15.9994           0
   77784 WT11 3521 TIP3 H1   HT     0.417000        1.0080           0
   77785 WT11 3521 TIP3 H2   HT     0.417000        1.0080           0
   77786 WT11 6240 TIP3 OH2  OT    -0.834000       15.9994           0
   77787 WT11 6240 TIP3 H1   HT     0.417000        1.0080           0
   77788 WT11 6240 TIP3 H2   HT     0.417000        1.0080           0
   77789 WT11 6650 TIP3 OH2  OT    -0.834000       15.9994           0
   77790 WT11 6650 TIP3 H1   HT     0.417000        1.0080           0
   77791 WT11 6650 TIP3 H2   HT     0.417000        1.0080           0
   77792 WT11 7027 TIP3 OH2  OT    -0.834000       15.9994           0
   77793 WT11 7027 TIP3 H1   HT     0.417000        1.0080           0
   77794 WT11 7027 TIP3 H2   HT     0.417000        1.0080           0
   77795 WT11 7214 TIP3 OH2  OT    -0.834000       15.9994           0
   77796 WT11 7214 TIP3 H1   HT     0.417000        1.0080           0
   77797 WT11 7214 TIP3 H2   HT     0.417000        1.0080           0
   77798 WT11 7707 TIP3 OH2  OT    -0.834000       15.9994           0
   77799 WT11 7707 TIP3 H1   HT     0.417000        1.0080           0
   77800 WT11 7707 TIP3 H2   HT     0.417000        1.0080           0
   77801 WT11 7876 TIP3 OH2  OT    -0.834000       15.9994           0
   77802 WT11 7876 TIP3 H1   HT     0.417000        1.0080           0
   77803 WT11 7876 TIP3 H2   HT     0.417000        1.0080           0
   77804 WT11 7951 TIP3 OH2  OT    -0.834000       15.9994           0
   77805 WT11 7951 TIP3 H1   HT     0.417000        1.0080           0
   77806 WT11 7951 TIP3 H2   HT     0.417000        1.0080           0
   77807 WT11 7961 TIP3 OH2  OT    -0.834000       15.9994           0
   77808 WT11 7961 TIP3 H1   HT     0.417000        1.0080           0
   77809 WT11 7961 TIP3 H2   HT     0.417000        1.0080           0
   77810 WT11 7978 TIP3 OH2  OT    -0.834000       15.9994           0
   77811 WT11 7978 TIP3 H1   HT     0.417000        1.0080           0
   77812 WT11 7978 TIP3 H2   HT     0.417000        1.0080           0
   77813 WT11 8009 TIP3 OH2  OT    -0.834000       15.9994           0
   77814 WT11 8009 TIP3 H1   HT     0.417000        1.0080           0
   77815 WT11 8009 TIP3 H2   HT     0.417000        1.0080           0
   77816 WT11 8270 TIP3 OH2  OT    -0.834000       15.9994           0
   77817 WT11 8270 TIP3 H1   HT     0.417000        1.0080           0
   77818 WT11 8270 TIP3 H2   HT     0.417000        1.0080           0
   77819 WT11 8290 TIP3 OH2  OT    -0.834000       15.9994           0
   77820 WT11 8290 TIP3 H1   HT     0.417000        1.0080           0
   77821 WT11 8290 TIP3 H2   HT     0.417000        1.0080           0
   77822 WT11 8309 TIP3 OH2  OT    -0.834000       15.9994           0
   77823 WT11 8309 TIP3 H1   HT     0.417000        1.0080           0
   77824 WT11 8309 TIP3 H2   HT     0.417000        1.0080           0
   77825 WT11 8408 TIP3 OH2  OT    -0.834000       15.9994           0
   77826 WT11 8408 TIP3 H1   HT     0.417000        1.0080           0
   77827 WT11 8408 TIP3 H2   HT     0.417000        1.0080           0
   77828 WT11 8411 TIP3 OH2  OT    -0.834000       15.9994           0
   77829 WT11 8411 TIP3 H1   HT     0.417000        1.0080           0
   77830 WT11 8411 TIP3 H2   HT     0.417000        1.0080           0
   77831 WT11 8425 TIP3 OH2  OT    -0.834000       15.9994           0
   77832 WT11 8425 TIP3 H1   HT     0.417000        1.0080           0
   77833 WT11 8425 TIP3 H2   HT     0.417000        1.0080           0
   77834 WT11 8452 TIP3 OH2  OT    -0.834000       15.9994           0
   77835 WT11 8452 TIP3 H1   HT     0.417000        1.0080           0
   77836 WT11 8452 TIP3 H2   HT     0.417000        1.0080           0
   77837 WT11 8824 TIP3 OH2  OT    -0.834000       15.9994           0
   77838 WT11 8824 TIP3 H1   HT     0.417000        1.0080           0
   77839 WT11 8824 TIP3 H2   HT     0.417000        1.0080           0
   77840 WT11 8833 TIP3 OH2  OT    -0.834000       15.9994           0
   77841 WT11 8833 TIP3 H1   HT     0.417000        1.0080           0
   77842 WT11 8833 TIP3 H2   HT     0.417000        1.0080           0
   77843 WT11 8836 TIP3 OH2  OT    -0.834000       15.9994           0
   77844 WT11 8836 TIP3 H1   HT     0.417000        1.0080           0
   77845 WT11 8836 TIP3 H2   HT     0.417000        1.0080           0
   77846 WT11 8855 TIP3 OH2  OT    -0.834000       15.9994           0
   77847 WT11 8855 TIP3 H1   HT     0.417000        1.0080           0
   77848 WT11 8855 TIP3 H2   HT     0.417000        1.0080           0
   77849 WT11 8869 TIP3 OH2  OT    -0.834000       15.9994           0
   77850 WT11 8869 TIP3 H1   HT     0.417000        1.0080           0
   77851 WT11 8869 TIP3 H2   HT     0.417000        1.0080           0
   77852 WT11 8942 TIP3 OH2  OT    -0.834000       15.9994           0
   77853 WT11 8942 TIP3 H1   HT     0.417000        1.0080           0
   77854 WT11 8942 TIP3 H2   HT     0.417000        1.0080           0
   77855 WT12 8    TIP3 OH2  OT    -0.834000       15.9994           0
   77856 WT12 8    TIP3 H1   HT     0.417000        1.0080           0
   77857 WT12 8    TIP3 H2   HT     0.417000        1.0080           0
   77858 WT12 37   TIP3 OH2  OT    -0.834000       15.9994           0
   77859 WT12 37   TIP3 H1   HT     0.417000        1.0080           0
   77860 WT12 37   TIP3 H2   HT     0.417000        1.0080           0
   77861 WT12 67   TIP3 OH2  OT    -0.834000       15.9994           0
   77862 WT12 67   TIP3 H1   HT     0.417000        1.0080           0
   77863 WT12 67   TIP3 H2   HT     0.417000        1.0080           0
   77864 WT12 94   TIP3 OH2  OT    -0.834000       15.9994           0
   77865 WT12 94   TIP3 H1   HT     0.417000        1.0080           0
   77866 WT12 94   TIP3 H2   HT     0.417000        1.0080           0
   77867 WT12 175  TIP3 OH2  OT    -0.834000       15.9994           0
   77868 WT12 175  TIP3 H1   HT     0.417000        1.0080           0
   77869 WT12 175  TIP3 H2   HT     0.417000        1.0080           0
   77870 WT12 449  TIP3 OH2  OT    -0.834000       15.9994           0
   77871 WT12 449  TIP3 H1   HT     0.417000        1.0080           0
   77872 WT12 449  TIP3 H2   HT     0.417000        1.0080           0
   77873 WT12 486  TIP3 OH2  OT    -0.834000       15.9994           0
   77874 WT12 486  TIP3 H1   HT     0.417000        1.0080           0
   77875 WT12 486  TIP3 H2   HT     0.417000        1.0080           0
   77876 WT12 490  TIP3 OH2  OT    -0.834000       15.9994           0
   77877 WT12 490  TIP3 H1   HT     0.417000        1.0080           0
   77878 WT12 490  TIP3 H2   HT     0.417000        1.0080           0
   77879 WT12 506  TIP3 OH2  OT    -0.834000       15.9994           0
   77880 WT12 506  TIP3 H1   HT     0.417000        1.0080           0
   77881 WT12 506  TIP3 H2   HT     0.417000        1.0080           0
   77882 WT12 509  TIP3 OH2  OT    -0.834000       15.9994           0
   77883 WT12 509  TIP3 H1   HT     0.417000        1.0080           0
   77884 WT12 509  TIP3 H2   HT     0.417000        1.0080           0
   77885 WT12 516  TIP3 OH2  OT    -0.834000       15.9994           0
   77886 WT12 516  TIP3 H1   HT     0.417000        1.0080           0
   77887 WT12 516  TIP3 H2   HT     0.417000        1.0080           0
   77888 WT12 550  TIP3 OH2  OT    -0.834000       15.9994           0
   77889 WT12 550  TIP3 H1   HT     0.417000        1.0080           0
   77890 WT12 550  TIP3 H2   HT     0.417000        1.0080           0
   77891 WT12 822  TIP3 OH2  OT    -0.834000       15.9994           0
   77892 WT12 822  TIP3 H1   HT     0.417000        1.0080           0
   77893 WT12 822  TIP3 H2   HT     0.417000        1.0080           0
   77894 WT12 849  TIP3 OH2  OT    -0.834000       15.9994           0
   77895 WT12 849  TIP3 H1   HT     0.417000        1.0080           0
   77896 WT12 849  TIP3 H2   HT     0.417000        1.0080           0
   77897 WT12 852  TIP3 OH2  OT    -0.834000       15.9994           0
   77898 WT12 852  TIP3 H1   HT     0.417000        1.0080           0
   77899 WT12 852  TIP3 H2   HT     0.417000        1.0080           0
   77900 WT12 854  TIP3 OH2  OT    -0.834000       15.9994           0
   77901 WT12 854  TIP3 H1   HT     0.417000        1.0080           0
   77902 WT12 854  TIP3 H2   HT     0.417000        1.0080           0
   77903 WT12 889  TIP3 OH2  OT    -0.834000       15.9994           0
   77904 WT12 889  TIP3 H1   HT     0.417000        1.0080           0
   77905 WT12 889  TIP3 H2   HT     0.417000        1.0080           0
   77906 WT12 928  TIP3 OH2  OT    -0.834000       15.9994           0
   77907 WT12 928  TIP3 H1   HT     0.417000        1.0080           0
   77908 WT12 928  TIP3 H2   HT     0.417000        1.0080           0
   77909 WT12 936  TIP3 OH2  OT    -0.834000       15.9994           0
   77910 WT12 936  TIP3 H1   HT     0.417000        1.0080           0
   77911 WT12 936  TIP3 H2   HT     0.417000        1.0080           0
   77912 WT12 940  TIP3 OH2  OT    -0.834000       15.9994           0
   77913 WT12 940  TIP3 H1   HT     0.417000        1.0080           0
   77914 WT12 940  TIP3 H2   HT     0.417000        1.0080           0
   77915 WT12 949  TIP3 OH2  OT    -0.834000       15.9994           0
   77916 WT12 949  TIP3 H1   HT     0.417000        1.0080           0
   77917 WT12 949  TIP3 H2   HT     0.417000        1.0080           0
   77918 WT12 993  TIP3 OH2  OT    -0.834000       15.9994           0
   77919 WT12 993  TIP3 H1   HT     0.417000        1.0080           0
   77920 WT12 993  TIP3 H2   HT     0.417000        1.0080           0
   77921 WT12 1298 TIP3 OH2  OT    -0.834000       15.9994           0
   77922 WT12 1298 TIP3 H1   HT     0.417000        1.0080           0
   77923 WT12 1298 TIP3 H2   HT     0.417000        1.0080           0
   77924 WT12 1301 TIP3 OH2  OT    -0.834000       15.9994           0
   77925 WT12 1301 TIP3 H1   HT     0.417000        1.0080           0
   77926 WT12 1301 TIP3 H2   HT     0.417000        1.0080           0
   77927 WT12 1370 TIP3 OH2  OT    -0.834000       15.9994           0
   77928 WT12 1370 TIP3 H1   HT     0.417000        1.0080           0
   77929 WT12 1370 TIP3 H2   HT     0.417000        1.0080           0
   77930 WT12 1372 TIP3 OH2  OT    -0.834000       15.9994           0
   77931 WT12 1372 TIP3 H1   HT     0.417000        1.0080           0
   77932 WT12 1372 TIP3 H2   HT     0.417000        1.0080           0
   77933 WT12 1440 TIP3 OH2  OT    -0.834000       15.9994           0
   77934 WT12 1440 TIP3 H1   HT     0.417000        1.0080           0
   77935 WT12 1440 TIP3 H2   HT     0.417000        1.0080           0
   77936 WT12 1718 TIP3 OH2  OT    -0.834000       15.9994           0
   77937 WT12 1718 TIP3 H1   HT     0.417000        1.0080           0
   77938 WT12 1718 TIP3 H2   HT     0.417000        1.0080           0
   77939 WT12 1725 TIP3 OH2  OT    -0.834000       15.9994           0
   77940 WT12 1725 TIP3 H1   HT     0.417000        1.0080           0
   77941 WT12 1725 TIP3 H2   HT     0.417000        1.0080           0
   77942 WT12 1733 TIP3 OH2  OT    -0.834000       15.9994           0
   77943 WT12 1733 TIP3 H1   HT     0.417000        1.0080           0
   77944 WT12 1733 TIP3 H2   HT     0.417000        1.0080           0
   77945 WT12 1764 TIP3 OH2  OT    -0.834000       15.9994           0
   77946 WT12 1764 TIP3 H1   HT     0.417000        1.0080           0
   77947 WT12 1764 TIP3 H2   HT     0.417000        1.0080           0
   77948 WT12 1771 TIP3 OH2  OT    -0.834000       15.9994           0
   77949 WT12 1771 TIP3 H1   HT     0.417000        1.0080           0
   77950 WT12 1771 TIP3 H2   HT     0.417000        1.0080           0
   77951 WT12 1775 TIP3 OH2  OT    -0.834000       15.9994           0
   77952 WT12 1775 TIP3 H1   HT     0.417000        1.0080           0
   77953 WT12 1775 TIP3 H2   HT     0.417000        1.0080           0
   77954 WT12 1778 TIP3 OH2  OT    -0.834000       15.9994           0
   77955 WT12 1778 TIP3 H1   HT     0.417000        1.0080           0
   77956 WT12 1778 TIP3 H2   HT     0.417000        1.0080           0
   77957 WT12 6240 TIP3 OH2  OT    -0.834000       15.9994           0
   77958 WT12 6240 TIP3 H1   HT     0.417000        1.0080           0
   77959 WT12 6240 TIP3 H2   HT     0.417000        1.0080           0
   77960 WT12 6650 TIP3 OH2  OT    -0.834000       15.9994           0
   77961 WT12 6650 TIP3 H1   HT     0.417000        1.0080           0
   77962 WT12 6650 TIP3 H2   HT     0.417000        1.0080           0
   77963 WT12 7027 TIP3 OH2  OT    -0.834000       15.9994           0
   77964 WT12 7027 TIP3 H1   HT     0.417000        1.0080           0
   77965 WT12 7027 TIP3 H2   HT     0.417000        1.0080           0
   77966 WT12 7214 TIP3 OH2  OT    -0.834000       15.9994           0
   77967 WT12 7214 TIP3 H1   HT     0.417000        1.0080           0
   77968 WT12 7214 TIP3 H2   HT     0.417000        1.0080           0
   77969 WT12 7707 TIP3 OH2  OT    -0.834000       15.9994           0
   77970 WT12 7707 TIP3 H1   HT     0.417000        1.0080           0
   77971 WT12 7707 TIP3 H2   HT     0.417000        1.0080           0
   77972 WT12 7951 TIP3 OH2  OT    -0.834000       15.9994           0
   77973 WT12 7951 TIP3 H1   HT     0.417000        1.0080           0
   77974 WT12 7951 TIP3 H2   HT     0.417000        1.0080           0
   77975 WT12 7961 TIP3 OH2  OT    -0.834000       15.9994           0
   77976 WT12 7961 TIP3 H1   HT     0.417000        1.0080           0
   77977 WT12 7961 TIP3 H2   HT     0.417000        1.0080           0
   77978 WT12 8009 TIP3 OH2  OT    -0.834000       15.9994           0
   77979 WT12 8009 TIP3 H1   HT     0.417000        1.0080           0
   77980 WT12 8009 TIP3 H2   HT     0.417000        1.0080           0
   77981 WT12 8034 TIP3 OH2  OT    -0.834000       15.9994           0
   77982 WT12 8034 TIP3 H1   HT     0.417000        1.0080           0
   77983 WT12 8034 TIP3 H2   HT     0.417000        1.0080           0
   77984 WT12 8290 TIP3 OH2  OT    -0.834000       15.9994           0
   77985 WT12 8290 TIP3 H1   HT     0.417000        1.0080           0
   77986 WT12 8290 TIP3 H2   HT     0.417000        1.0080           0
   77987 WT12 8408 TIP3 OH2  OT    -0.834000       15.9994           0
   77988 WT12 8408 TIP3 H1   HT     0.417000        1.0080           0
   77989 WT12 8408 TIP3 H2   HT     0.417000        1.0080           0
   77990 WT12 8425 TIP3 OH2  OT    -0.834000       15.9994           0
   77991 WT12 8425 TIP3 H1   HT     0.417000        1.0080           0
   77992 WT12 8425 TIP3 H2   HT     0.417000        1.0080           0
   77993 WT12 8452 TIP3 OH2  OT    -0.834000       15.9994           0
   77994 WT12 8452 TIP3 H1   HT     0.417000        1.0080           0
   77995 WT12 8452 TIP3 H2   HT     0.417000        1.0080           0
   77996 WT12 8833 TIP3 OH2  OT    -0.834000       15.9994           0
   77997 WT12 8833 TIP3 H1   HT     0.417000        1.0080           0
   77998 WT12 8833 TIP3 H2   HT     0.417000        1.0080           0
   77999 WT12 8836 TIP3 OH2  OT    -0.834000       15.9994           0
   78000 WT12 8836 TIP3 H1   HT     0.417000        1.0080           0
   78001 WT12 8836 TIP3 H2   HT     0.417000        1.0080           0
   78002 WT12 8869 TIP3 OH2  OT    -0.834000       15.9994           0
   78003 WT12 8869 TIP3 H1   HT     0.417000        1.0080           0
   78004 WT12 8869 TIP3 H2   HT     0.417000        1.0080           0
   78005 WT12 9212 TIP3 OH2  OT    -0.834000       15.9994           0
   78006 WT12 9212 TIP3 H1   HT     0.417000        1.0080           0
   78007 WT12 9212 TIP3 H2   HT     0.417000        1.0080           0
   78008 ION  1    POT  POT  POT    1.000000       39.1020           0
   78009 ION  2    POT  POT  POT    1.000000       39.1020           0
   78010 ION  3    POT  POT  POT    1.000000       39.1020           0
   78011 ION  4    POT  POT  POT    1.000000       39.1020           0
   78012 ION  5    POT  POT  POT    1.000000       39.1020           0
   78013 ION  6    POT  POT  POT    1.000000       39.1020           0
   78014 ION  7    POT  POT  POT    1.000000       39.1020           0
   78015 ION  8    POT  POT  POT    1.000000       39.1020           0
   78016 ION  9    POT  POT  POT    1.000000       39.1020           0
   78017 ION  10   POT  POT  POT    1.000000       39.1020           0
   78018 ION  11   POT  POT  POT    1.000000       39.1020           0
   78019 ION  12   POT  POT  POT    1.000000       39.1020           0
   78020 ION  13   POT  POT  POT    1.000000       39.1020           0
   78021 ION  14   POT  POT  POT    1.000000       39.1020           0
   78022 ION  15   POT  POT  POT    1.000000       39.1020           0
   78023 ION  16   POT  POT  POT    1.000000       39.1020           0
   78024 ION  17   POT  POT  POT    1.000000       39.1020           0
   78025 ION  18   POT  POT  POT    1.000000       39.1020           0
   78026 ION  19   POT  POT  POT    1.000000       39.1020           0
   78027 ION  20   POT  POT  POT    1.000000       39.1020           0
   78028 ION  21   POT  POT  POT    1.000000       39.1020           0
   78029 ION  22   POT  POT  POT    1.000000       39.1020           0
   78030 ION  23   POT  POT  POT    1.000000       39.1020           0
   78031 ION  24   POT  POT  POT    1.000000       39.1020           0
   78032 ION  25   POT  POT  POT    1.000000       39.1020           0
   78033 ION  26   POT  POT  POT    1.000000       39.1020           0
   78034 ION  27   POT  POT  POT    1.000000       39.1020           0
   78035 ION  28   POT  POT  POT    1.000000       39.1020           0
   78036 ION  29   POT  POT  POT    1.000000       39.1020           0
   78037 ION  30   POT  POT  POT    1.000000       39.1020           0
   78038 ION  31   POT  POT  POT    1.000000       39.1020           0
   78039 ION  32   POT  POT  POT    1.000000       39.1020           0
   78040 ION  33   POT  POT  POT    1.000000       39.1020           0
   78041 ION  34   POT  POT  POT    1.000000       39.1020           0
   78042 ION  35   POT  POT  POT    1.000000       39.1020           0
   78043 ION  36   POT  POT  POT    1.000000       39.1020           0
   78044 ION  37   POT  POT  POT    1.000000       39.1020           0
   78045 ION  38   POT  POT  POT    1.000000       39.1020           0
   78046 ION  39   POT  POT  POT    1.000000       39.1020           0
   78047 ION  40   POT  POT  POT    1.000000       39.1020           0
   78048 ION  41   POT  POT  POT    1.000000       39.1020           0
   78049 ION  42   POT  POT  POT    1.000000       39.1020           0
   78050 ION  43   POT  POT  POT    1.000000       39.1020           0
   78051 ION  44   POT  POT  POT    1.000000       39.1020           0
   78052 ION  45   POT  POT  POT    1.000000       39.1020           0
   78053 ION  46   POT  POT  POT    1.000000       39.1020           0
   78054 ION  47   POT  POT  POT    1.000000       39.1020           0
   78055 ION  48   POT  POT  POT    1.000000       39.1020           0
   78056 ION  49   POT  POT  POT    1.000000       39.1020           0
   78057 ION  50   POT  POT  POT    1.000000       39.1020           0
   78058 ION  51   POT  POT  POT    1.000000       39.1020           0
   78059 ION  52   POT  POT  POT    1.000000       39.1020           0
   78060 ION  53   POT  POT  POT    1.000000       39.1020           0
   78061 ION  54   POT  POT  POT    1.000000       39.1020           0
   78062 ION  55   POT  POT  POT    1.000000       39.1020           0
   78063 ION  56   POT  POT  POT    1.000000       39.1020           0
   78064 ION  57   POT  POT  POT    1.000000       39.1020           0
   78065 ION  58   POT  POT  POT    1.000000       39.1020           0
   78066 ION  59   POT  POT  POT    1.000000       39.1020           0
   78067 ION  60   POT  POT  POT    1.000000       39.1020           0
   78068 ION  61   POT  POT  POT    1.000000       39.1020           0
   78069 ION  62   POT  POT  POT    1.000000       39.1020           0
   78070 ION  63   POT  POT  POT    1.000000       39.1020           0
   78071 ION  64   POT  POT  POT    1.000000       39.1020           0
   78072 ION  65   POT  POT  POT    1.000000       39.1020           0
   78073 ION  66   POT  POT  POT    1.000000       39.1020           0
   78074 ION  67   POT  POT  POT    1.000000       39.1020           0
   78075 ION  68   POT  POT  POT    1.000000       39.1020           0
   78076 ION  69   POT  POT  POT    1.000000       39.1020           0
   78077 ION  70   POT  POT  POT    1.000000       39.1020           0
   78078 ION  71   POT  POT  POT    1.000000       39.1020           0
   78079 ION  72   POT  POT  POT    1.000000       39.1020           0
   78080 ION  73   POT  POT  POT    1.000000       39.1020           0
   78081 ION  74   POT  POT  POT    1.000000       39.1020           0
   78082 ION  75   POT  POT  POT    1.000000       39.1020           0
   78083 ION  76   POT  POT  POT    1.000000       39.1020           0
   78084 ION  77   POT  POT  POT    1.000000       39.1020           0
   78085 ION  78   POT  POT  POT    1.000000       39.1020           0
   78086 ION  79   POT  POT  POT    1.000000       39.1020           0
   78087 ION  80   POT  POT  POT    1.000000       39.1020           0
   78088 ION  81   POT  POT  POT    1.000000       39.1020           0
   78089 ION  82   POT  POT  POT    1.000000       39.1020           0
   78090 ION  83   POT  POT  POT    1.000000       39.1020           0
   78091 ION  84   POT  POT  POT    1.000000       39.1020           0
   78092 ION  85   POT  POT  POT    1.000000       39.1020           0
   78093 ION  86   POT  POT  POT    1.000000       39.1020           0
   78094 ION  87   POT  POT  POT    1.000000       39.1020           0
   78095 ION  88   POT  POT  POT    1.000000       39.1020           0
   78096 ION  89   POT  POT  POT    1.000000       39.1020           0
   78097 ION  90   POT  POT  POT    1.000000       39.1020           0
   78098 ION  91   POT  POT  POT    1.000000       39.1020           0
   78099 ION  92   POT  POT  POT    1.000000       39.1020           0
   78100 ION  93   POT  POT  POT    1.000000       39.1020           0
   78101 ION  94   POT  POT  POT    1.000000       39.1020           0
   78102 ION  95   POT  POT  POT    1.000000       39.1020           0
   78103 ION  96   POT  POT  POT    1.000000       39.1020           0
   78104 ION  97   POT  POT  POT    1.000000       39.1020           0
   78105 ION  98   POT  POT  POT    1.000000       39.1020           0
   78106 ION  99   POT  POT  POT    1.000000       39.1020           0
   78107 ION  100  POT  POT  POT    1.000000       39.1020           0
   78108 ION  101  POT  POT  POT    1.000000       39.1020           0
   78109 ION  102  POT  POT  POT    1.000000       39.1020           0
   78110 ION  103  POT  POT  POT    1.000000       39.1020           0
   78111 ION  104  POT  POT  POT    1.000000       39.1020           0
   78112 ION  105  POT  POT  POT    1.000000       39.1020           0
   78113 ION  106  POT  POT  POT    1.000000       39.1020           0
   78114 ION  107  POT  POT  POT    1.000000       39.1020           0
   78115 ION  108  POT  POT  POT    1.000000       39.1020           0
   78116 ION  109  POT  POT  POT    1.000000       39.1020           0
   78117 ION  110  POT  POT  POT    1.000000       39.1020           0
   78118 ION  111  POT  POT  POT    1.000000       39.1020           0
   78119 ION  112  POT  POT  POT    1.000000       39.1020           0
   78120 ION  113  POT  POT  POT    1.000000       39.1020           0
   78121 ION  114  POT  POT  POT    1.000000       39.1020           0
   78122 ION  115  POT  POT  POT    1.000000       39.1020           0
   78123 ION  116  POT  POT  POT    1.000000       39.1020           0
   78124 ION  117  POT  POT  POT    1.000000       39.1020           0
   78125 ION  118  POT  POT  POT    1.000000       39.1020           0
   78126 ION  119  POT  POT  POT    1.000000       39.1020           0
   78127 ION  120  POT  POT  POT    1.000000       39.1020           0
   78128 ION  121  POT  POT  POT    1.000000       39.1020           0
   78129 ION  122  POT  POT  POT    1.000000       39.1020           0
   78130 ION  123  POT  POT  POT    1.000000       39.1020           0
   78131 ION  124  POT  POT  POT    1.000000       39.1020           0
   78132 ION  125  POT  POT  POT    1.000000       39.1020           0
   78133 ION  126  POT  POT  POT    1.000000       39.1020           0
   78134 ION  127  POT  POT  POT    1.000000       39.1020           0
   78135 ION  128  POT  POT  POT    1.000000       39.1020           0
   78136 ION  129  POT  POT  POT    1.000000       39.1020           0
   78137 ION  130  POT  POT  POT    1.000000       39.1020           0
   78138 ION  131  POT  POT  POT    1.000000       39.1020           0
   78139 ION  132  POT  POT  POT    1.000000       39.1020           0
   78140 ION  133  POT  POT  POT    1.000000       39.1020           0
   78141 ION  134  POT  POT  POT    1.000000       39.1020           0
   78142 ION  135  POT  POT  POT    1.000000       39.1020           0
   78143 ION  136  POT  POT  POT    1.000000       39.1020           0
   78144 ION  137  POT  POT  POT    1.000000       39.1020           0
   78145 ION  138  POT  POT  POT    1.000000       39.1020           0
   78146 ION  139  POT  POT  POT    1.000000       39.1020           0
   78147 ION  140  POT  POT  POT    1.000000       39.1020           0
   78148 ION  141  POT  POT  POT    1.000000       39.1020           0
   78149 ION  142  POT  POT  POT    1.000000       39.1020           0
   78150 ION  143  POT  POT  POT    1.000000       39.1020           0
   78151 ION  144  POT  POT  POT    1.000000       39.1020           0
   78152 ION  145  POT  POT  POT    1.000000       39.1020           0
   78153 ION  146  POT  POT  POT    1.000000       39.1020           0
   78154 ION  147  POT  POT  POT    1.000000       39.1020           0
   78155 ION  148  POT  POT  POT    1.000000       39.1020           0
   78156 ION  149  POT  POT  POT    1.000000       39.1020           0
   78157 ION  150  POT  POT  POT    1.000000       39.1020           0
   78158 ION  151  POT  POT  POT    1.000000       39.1020           0
   78159 ION  152  POT  POT  POT    1.000000       39.1020           0
   78160 ION  153  POT  POT  POT    1.000000       39.1020           0
   78161 ION  154  POT  POT  POT    1.000000       39.1020           0
   78162 ION  155  POT  POT  POT    1.000000       39.1020           0
   78163 ION  156  POT  POT  POT    1.000000       39.1020           0
   78164 ION  157  POT  POT  POT    1.000000       39.1020           0
   78165 ION  158  POT  POT  POT    1.000000       39.1020           0
   78166 ION  159  POT  POT  POT    1.000000       39.1020           0
   78167 ION  160  POT  POT  POT    1.000000       39.1020           0
   78168 ION  161  POT  POT  POT    1.000000       39.1020           0
   78169 ION  162  POT  POT  POT    1.000000       39.1020           0
   78170 ION  163  POT  POT  POT    1.000000       39.1020           0
   78171 ION  164  POT  POT  POT    1.000000       39.1020           0
   78172 ION  165  POT  POT  POT    1.000000       39.1020           0
   78173 ION  166  POT  POT  POT    1.000000       39.1020           0
   78174 ION  167  POT  POT  POT    1.000000       39.1020           0
   78175 ION  168  POT  POT  POT    1.000000       39.1020           0
   78176 ION  169  POT  POT  POT    1.000000       39.1020           0
   78177 ION  170  POT  POT  POT    1.000000       39.1020           0
   78178 ION  171  POT  POT  POT    1.000000       39.1020           0
   78179 ION  172  POT  POT  POT    1.000000       39.1020           0
   78180 ION  173  POT  POT  POT    1.000000       39.1020           0
   78181 ION  174  POT  POT  POT    1.000000       39.1020           0
   78182 ION  175  POT  POT  POT    1.000000       39.1020           0
   78183 ION  176  POT  POT  POT    1.000000       39.1020           0
   78184 ION  177  POT  POT  POT    1.000000       39.1020           0
   78185 ION  178  POT  POT  POT    1.000000       39.1020           0
   78186 ION  179  POT  POT  POT    1.000000       39.1020           0
   78187 ION  180  POT  POT  POT    1.000000       39.1020           0
   78188 ION  181  POT  POT  POT    1.000000       39.1020           0
   78189 ION  182  POT  POT  POT    1.000000       39.1020           0
   78190 ION  183  POT  POT  POT    1.000000       39.1020           0
   78191 ION  184  POT  POT  POT    1.000000       39.1020           0
   78192 ION  185  POT  POT  POT    1.000000       39.1020           0
   78193 ION  186  POT  POT  POT    1.000000       39.1020           0
   78194 ION  187  POT  POT  POT    1.000000       39.1020           0
   78195 ION  188  POT  POT  POT    1.000000       39.1020           0
   78196 ION  189  POT  POT  POT    1.000000       39.1020           0
   78197 ION  190  POT  POT  POT    1.000000       39.1020           0
   78198 ION  191  POT  POT  POT    1.000000       39.1020           0
   78199 ION  192  POT  POT  POT    1.000000       39.1020           0
   78200 ION  193  POT  POT  POT    1.000000       39.1020           0
   78201 ION  194  POT  POT  POT    1.000000       39.1020           0
   78202 ION  195  POT  POT  POT    1.000000       39.1020           0
   78203 ION  196  POT  POT  POT    1.000000       39.1020           0
   78204 ION  197  POT  POT  POT    1.000000       39.1020           0
   78205 ION  198  POT  POT  POT    1.000000       39.1020           0
   78206 ION  199  POT  POT  POT    1.000000       39.1020           0
   78207 ION  200  POT  POT  POT    1.000000       39.1020           0
   78208 ION  201  POT  POT  POT    1.000000       39.1020           0
   78209 ION  202  POT  POT  POT    1.000000       39.1020           0
   78210 ION  203  POT  POT  POT    1.000000       39.1020           0
   78211 ION  204  POT  POT  POT    1.000000       39.1020           0
   78212 ION  205  POT  POT  POT    1.000000       39.1020           0
   78213 ION  206  POT  POT  POT    1.000000       39.1020           0
   78214 ION  207  POT  POT  POT    1.000000       39.1020           0
   78215 ION  208  POT  POT  POT    1.000000       39.1020           0
   78216 ION  209  POT  POT  POT    1.000000       39.1020           0
   78217 ION  210  POT  POT  POT    1.000000       39.1020           0
   78218 ION  211  POT  POT  POT    1.000000       39.1020           0
   78219 ION  212  POT  POT  POT    1.000000       39.1020           0
   78220 ION  213  POT  POT  POT    1.000000       39.1020           0
   78221 ION  214  POT  POT  POT    1.000000       39.1020           0
   78222 ION  215  POT  POT  POT    1.000000       39.1020           0
   78223 ION  216  POT  POT  POT    1.000000       39.1020           0
   78224 ION  217  POT  POT  POT    1.000000       39.1020           0
   78225 ION  218  POT  POT  POT    1.000000       39.1020           0
   78226 ION  219  POT  POT  POT    1.000000       39.1020           0
   78227 ION  220  POT  POT  POT    1.000000       39.1020           0
   78228 ION  221  POT  POT  POT    1.000000       39.1020           0
   78229 ION  222  POT  POT  POT    1.000000       39.1020           0
   78230 ION  223  POT  POT  POT    1.000000       39.1020           0
   78231 ION  224  POT  POT  POT    1.000000       39.1020           0
   78232 ION  225  POT  POT  POT    1.000000       39.1020           0
   78233 ION  226  POT  POT  POT    1.000000       39.1020           0
   78234 ION  227  POT  POT  POT    1.000000       39.1020           0
   78235 ION  228  POT  POT  POT    1.000000       39.1020           0
   78236 ION  229  POT  POT  POT    1.000000       39.1020           0
   78237 ION  230  POT  POT  POT    1.000000       39.1020           0
   78238 ION  231  POT  POT  POT    1.000000       39.1020           0
   78239 ION  232  POT  POT  POT    1.000000       39.1020           0
   78240 ION  233  POT  POT  POT    1.000000       39.1020           0
   78241 ION  234  POT  POT  POT    1.000000       39.1020           0
   78242 ION  235  POT  POT  POT    1.000000       39.1020           0
   78243 ION  236  POT  POT  POT    1.000000       39.1020           0
   78244 ION  237  POT  POT  POT    1.000000       39.1020           0
   78245 ION  238  POT  POT  POT    1.000000       39.1020           0
   78246 ION  239  POT  POT  POT    1.000000       39.1020           0
   78247 ION  240  POT  POT  POT    1.000000       39.1020           0
   78248 ION  241  POT  POT  POT    1.000000       39.1020           0
   78249 ION  242  POT  POT  POT    1.000000       39.1020           0
   78250 ION  243  POT  POT  POT    1.000000       39.1020           0
   78251 ION  244  POT  POT  POT    1.000000       39.1020           0
   78252 ION  245  POT  POT  POT    1.000000       39.1020           0
   78253 ION  246  POT  POT  POT    1.000000       39.1020           0
   78254 ION  247  POT  POT  POT    1.000000       39.1020           0
   78255 ION  248  POT  POT  POT    1.000000       39.1020           0
   78256 ION  249  POT  POT  POT    1.000000       39.1020           0
   78257 ION  250  POT  POT  POT    1.000000       39.1020           0
   78258 ION  251  POT  POT  POT    1.000000       39.1020           0
   78259 ION  252  POT  POT  POT    1.000000       39.1020           0
   78260 ION  253  POT  POT  POT    1.000000       39.1020           0
   78261 ION  254  POT  POT  POT    1.000000       39.1020           0
   78262 ION  255  POT  POT  POT    1.000000       39.1020           0
   78263 ION  256  POT  POT  POT    1.000000       39.1020           0
   78264 ION  257  POT  POT  POT    1.000000       39.1020           0
   78265 ION  258  POT  POT  POT    1.000000       39.1020           0
   78266 ION  259  POT  POT  POT    1.000000       39.1020           0
   78267 ION  260  POT  POT  POT    1.000000       39.1020           0
   78268 ION  261  POT  POT  POT    1.000000       39.1020           0
   78269 ION  262  POT  POT  POT    1.000000       39.1020           0
   78270 ION  263  POT  POT  POT    1.000000       39.1020           0
   78271 ION  264  POT  POT  POT    1.000000       39.1020           0
   78272 ION  265  POT  POT  POT    1.000000       39.1020           0
   78273 ION  266  POT  POT  POT    1.000000       39.1020           0
   78274 ION  267  POT  POT  POT    1.000000       39.1020           0
   78275 ION  268  POT  POT  POT    1.000000       39.1020           0
   78276 ION  269  POT  POT  POT    1.000000       39.1020           0
   78277 ION  270  POT  POT  POT    1.000000       39.1020           0
   78278 ION  271  POT  POT  POT    1.000000       39.1020           0
   78279 ION  272  POT  POT  POT    1.000000       39.1020           0
   78280 ION  273  POT  POT  POT    1.000000       39.1020           0
   78281 ION  274  POT  POT  POT    1.000000       39.1020           0
   78282 ION  275  POT  POT  POT    1.000000       39.1020           0
   78283 ION  276  POT  POT  POT    1.000000       39.1020           0
   78284 ION  277  POT  POT  POT    1.000000       39.1020           0
   78285 ION  278  POT  POT  POT    1.000000       39.1020           0
   78286 ION  279  POT  POT  POT    1.000000       39.1020           0
   78287 ION  280  POT  POT  POT    1.000000       39.1020           0
   78288 ION  281  POT  POT  POT    1.000000       39.1020           0
   78289 ION  282  POT  POT  POT    1.000000       39.1020           0
   78290 ION  283  POT  POT  POT    1.000000       39.1020           0
   78291 ION  284  POT  POT  POT    1.000000       39.1020           0
   78292 ION  285  POT  POT  POT    1.000000       39.1020           0
   78293 ION  286  POT  POT  POT    1.000000       39.1020           0
   78294 ION  287  POT  POT  POT    1.000000       39.1020           0
   78295 ION  288  POT  POT  POT    1.000000       39.1020           0
   78296 ION  289  POT  POT  POT    1.000000       39.1020           0
   78297 ION  290  POT  POT  POT    1.000000       39.1020           0
   78298 ION  291  POT  POT  POT    1.000000       39.1020           0
   78299 ION  292  POT  POT  POT    1.000000       39.1020           0
   78300 ION  293  POT  POT  POT    1.000000       39.1020           0
   78301 ION  294  POT  POT  POT    1.000000       39.1020           0
   78302 ION  295  POT  POT  POT    1.000000       39.1020           0
   78303 ION  296  POT  POT  POT    1.000000       39.1020           0
   78304 ION  297  POT  POT  POT    1.000000       39.1020           0
   78305 ION  298  POT  POT  POT    1.000000       39.1020           0
   78306 ION  299  POT  POT  POT    1.000000       39.1020           0
   78307 ION  300  POT  POT  POT    1.000000       39.1020           0
   78308 ION  301  POT  POT  POT    1.000000       39.1020           0
   78309 ION  302  POT  POT  POT    1.000000       39.1020           0
   78310 ION  303  POT  POT  POT    1.000000       39.1020           0
   78311 ION  304  POT  POT  POT    1.000000       39.1020           0
   78312 ION  305  POT  POT  POT    1.000000       39.1020           0
   78313 ION  306  POT  POT  POT    1.000000       39.1020           0
   78314 ION  307  POT  POT  POT    1.000000       39.1020           0
   78315 ION  308  POT  POT  POT    1.000000       39.1020           0
   78316 ION  309  POT  POT  POT    1.000000       39.1020           0
   78317 ION  310  POT  POT  POT    1.000000       39.1020           0
   78318 ION  311  POT  POT  POT    1.000000       39.1020           0
   78319 ION  312  POT  POT  POT    1.000000       39.1020           0
   78320 ION  313  POT  POT  POT    1.000000       39.1020           0
   78321 ION  314  POT  POT  POT    1.000000       39.1020           0
   78322 ION  315  POT  POT  POT    1.000000       39.1020           0
   78323 ION  316  POT  POT  POT    1.000000       39.1020           0
   78324 ION  317  POT  POT  POT    1.000000       39.1020           0
   78325 ION  318  POT  POT  POT    1.000000       39.1020           0
   78326 ION  319  POT  POT  POT    1.000000       39.1020           0
   78327 ION  320  POT  POT  POT    1.000000       39.1020           0
   78328 ION  321  POT  POT  POT    1.000000       39.1020           0
   78329 ION  322  POT  POT  POT    1.000000       39.1020           0
   78330 ION  323  POT  POT  POT    1.000000       39.1020           0
   78331 ION  324  POT  POT  POT    1.000000       39.1020           0
   78332 ION  325  POT  POT  POT    1.000000       39.1020           0
   78333 ION  326  POT  POT  POT    1.000000       39.1020           0
   78334 ION  327  POT  POT  POT    1.000000       39.1020           0
   78335 ION  328  POT  POT  POT    1.000000       39.1020           0
   78336 ION  329  POT  POT  POT    1.000000       39.1020           0
   78337 ION  330  POT  POT  POT    1.000000       39.1020           0
   78338 ION  331  POT  POT  POT    1.000000       39.1020           0
   78339 ION  332  POT  POT  POT    1.000000       39.1020           0
   78340 ION  333  POT  POT  POT    1.000000       39.1020           0
   78341 ION  334  POT  POT  POT    1.000000       39.1020           0
   78342 ION  335  POT  POT  POT    1.000000       39.1020           0
   78343 ION  336  POT  POT  POT    1.000000       39.1020           0
   78344 ION  337  POT  POT  POT    1.000000       39.1020           0
   78345 ION  338  POT  POT  POT    1.000000       39.1020           0
   78346 ION  339  POT  POT  POT    1.000000       39.1020           0
   78347 ION  340  POT  POT  POT    1.000000       39.1020           0
   78348 ION  341  POT  POT  POT    1.000000       39.1020           0
   78349 ION  342  POT  POT  POT    1.000000       39.1020           0
   78350 ION  343  POT  POT  POT    1.000000       39.1020           0
   78351 ION  344  POT  POT  POT    1.000000       39.1020           0
   78352 ION  345  POT  POT  POT    1.000000       39.1020           0
   78353 ION  346  POT  POT  POT    1.000000       39.1020           0
   78354 ION  347  POT  POT  POT    1.000000       39.1020           0
   78355 ION  348  POT  POT  POT    1.000000       39.1020           0
   78356 ION  349  POT  POT  POT    1.000000       39.1020           0
   78357 ION  350  POT  POT  POT    1.000000       39.1020           0
   78358 ION  351  POT  POT  POT    1.000000       39.1020           0
   78359 ION  352  POT  POT  POT    1.000000       39.1020           0
   78360 ION  353  POT  POT  POT    1.000000       39.1020           0
   78361 ION  354  POT  POT  POT    1.000000       39.1020           0
   78362 ION  355  POT  POT  POT    1.000000       39.1020           0
   78363 ION  356  POT  POT  POT    1.000000       39.1020           0
   78364 ION  357  POT  POT  POT    1.000000       39.1020           0
   78365 ION  358  POT  POT  POT    1.000000       39.1020           0
   78366 ION  359  POT  POT  POT    1.000000       39.1020           0
   78367 ION  360  POT  POT  POT    1.000000       39.1020           0
   78368 ION  361  POT  POT  POT    1.000000       39.1020           0
   78369 ION  362  POT  POT  POT    1.000000       39.1020           0
   78370 ION  363  POT  POT  POT    1.000000       39.1020           0
   78371 ION  364  POT  POT  POT    1.000000       39.1020           0
   78372 ION  365  POT  POT  POT    1.000000       39.1020           0
   78373 ION  366  POT  POT  POT    1.000000       39.1020           0
   78374 ION  367  POT  POT  POT    1.000000       39.1020           0
   78375 ION  368  POT  POT  POT    1.000000       39.1020           0
   78376 ION  369  POT  POT  POT    1.000000       39.1020           0
   78377 ION  370  POT  POT  POT    1.000000       39.1020           0
   78378 ION  371  POT  POT  POT    1.000000       39.1020           0
   78379 ION  372  POT  POT  POT    1.000000       39.1020           0
   78380 ION  373  POT  POT  POT    1.000000       39.1020           0
   78381 ION  374  POT  POT  POT    1.000000       39.1020           0
   78382 ION  375  POT  POT  POT    1.000000       39.1020           0
   78383 ION  376  POT  POT  POT    1.000000       39.1020           0
   78384 ION  377  POT  POT  POT    1.000000       39.1020           0
   78385 ION  378  POT  POT  POT    1.000000       39.1020           0
   78386 ION  379  POT  POT  POT    1.000000       39.1020           0
   78387 ION  380  POT  POT  POT    1.000000       39.1020           0
   78388 ION  381  POT  POT  POT    1.000000       39.1020           0
   78389 ION  382  POT  POT  POT    1.000000       39.1020           0
   78390 ION  383  POT  POT  POT    1.000000       39.1020           0
   78391 ION  384  POT  POT  POT    1.000000       39.1020           0
   78392 ION  385  POT  POT  POT    1.000000       39.1020           0
   78393 ION  386  POT  POT  POT    1.000000       39.1020           0
   78394 ION  387  POT  POT  POT    1.000000       39.1020           0
   78395 ION  388  POT  POT  POT    1.000000       39.1020           0
   78396 ION  389  POT  POT  POT    1.000000       39.1020           0
   78397 ION  390  POT  POT  POT    1.000000       39.1020           0
   78398 ION  391  POT  POT  POT    1.000000       39.1020           0
   78399 ION  392  POT  POT  POT    1.000000       39.1020           0
   78400 ION  393  POT  POT  POT    1.000000       39.1020           0
   78401 ION  394  POT  POT  POT    1.000000       39.1020           0
   78402 ION  395  POT  POT  POT    1.000000       39.1020           0
   78403 ION  396  POT  POT  POT    1.000000       39.1020           0
   78404 ION  397  POT  POT  POT    1.000000       39.1020           0
   78405 ION  398  POT  POT  POT    1.000000       39.1020           0
   78406 ION  399  POT  POT  POT    1.000000       39.1020           0
   78407 ION  400  POT  POT  POT    1.000000       39.1020           0
   78408 ION  401  POT  POT  POT    1.000000       39.1020           0
   78409 ION  402  POT  POT  POT    1.000000       39.1020           0
   78410 ION  403  POT  POT  POT    1.000000       39.1020           0
   78411 ION  404  POT  POT  POT    1.000000       39.1020           0
   78412 ION  405  POT  POT  POT    1.000000       39.1020           0
   78413 ION  406  POT  POT  POT    1.000000       39.1020           0
   78414 ION  407  POT  POT  POT    1.000000       39.1020           0
   78415 ION  408  POT  POT  POT    1.000000       39.1020           0
   78416 ION  409  POT  POT  POT    1.000000       39.1020           0
   78417 ION  410  POT  POT  POT    1.000000       39.1020           0
   78418 ION  411  POT  POT  POT    1.000000       39.1020           0
   78419 ION  412  POT  POT  POT    1.000000       39.1020           0
   78420 ION  413  POT  POT  POT    1.000000       39.1020           0
   78421 ION  414  POT  POT  POT    1.000000       39.1020           0
   78422 ION  415  POT  POT  POT    1.000000       39.1020           0
   78423 ION  416  POT  POT  POT    1.000000       39.1020           0
   78424 ION  417  POT  POT  POT    1.000000       39.1020           0
   78425 ION  418  POT  POT  POT    1.000000       39.1020           0
   78426 ION  419  POT  POT  POT    1.000000       39.1020           0
   78427 ION  420  POT  POT  POT    1.000000       39.1020           0
   78428 ION  421  POT  POT  POT    1.000000       39.1020           0
   78429 ION  422  POT  POT  POT    1.000000       39.1020           0
   78430 ION  423  POT  POT  POT    1.000000       39.1020           0
   78431 ION  424  POT  POT  POT    1.000000       39.1020           0
   78432 ION  425  POT  POT  POT    1.000000       39.1020           0
   78433 ION  426  POT  POT  POT    1.000000       39.1020           0
   78434 ION  427  POT  POT  POT    1.000000       39.1020           0
   78435 ION  428  POT  POT  POT    1.000000       39.1020           0
   78436 ION  429  POT  POT  POT    1.000000       39.1020           0
   78437 ION  430  POT  POT  POT    1.000000       39.1020           0
   78438 ION  431  POT  POT  POT    1.000000       39.1020           0
   78439 ION  432  POT  POT  POT    1.000000       39.1020           0
   78440 ION  433  POT  POT  POT    1.000000       39.1020           0
   78441 ION  434  POT  POT  POT    1.000000       39.1020           0
   78442 ION  435  POT  POT  POT    1.000000       39.1020           0
   78443 ION  436  POT  POT  POT    1.000000       39.1020           0
   78444 ION  437  POT  POT  POT    1.000000       39.1020           0
   78445 ION  438  POT  POT  POT    1.000000       39.1020           0
   78446 ION  439  POT  POT  POT    1.000000       39.1020           0
   78447 ION  440  POT  POT  POT    1.000000       39.1020           0
   78448 ION  441  POT  POT  POT    1.000000       39.1020           0
   78449 ION  442  POT  POT  POT    1.000000       39.1020           0
   78450 ION  443  POT  POT  POT    1.000000       39.1020           0
   78451 ION  444  POT  POT  POT    1.000000       39.1020           0
   78452 ION  445  POT  POT  POT    1.000000       39.1020           0
   78453 ION  446  POT  POT  POT    1.000000       39.1020           0
   78454 ION  447  POT  POT  POT    1.000000       39.1020           0
   78455 ION  448  POT  POT  POT    1.000000       39.1020           0
   78456 ION  449  POT  POT  POT    1.000000       39.1020           0
   78457 ION  450  POT  POT  POT    1.000000       39.1020           0
   78458 ION  451  POT  POT  POT    1.000000       39.1020           0
   78459 ION  452  POT  POT  POT    1.000000       39.1020           0
   78460 ION  453  POT  POT  POT    1.000000       39.1020           0
   78461 ION  454  POT  POT  POT    1.000000       39.1020           0
   78462 ION  455  POT  POT  POT    1.000000       39.1020           0
   78463 ION  456  POT  POT  POT    1.000000       39.1020           0
   78464 ION  457  POT  POT  POT    1.000000       39.1020           0
   78465 ION  458  POT  POT  POT    1.000000       39.1020           0
   78466 ION  459  POT  POT  POT    1.000000       39.1020           0
   78467 ION  460  POT  POT  POT    1.000000       39.1020           0
   78468 ION  461  POT  POT  POT    1.000000       39.1020           0
   78469 ION  462  POT  POT  POT    1.000000       39.1020           0
   78470 ION  463  POT  POT  POT    1.000000       39.1020           0
   78471 ION  464  POT  POT  POT    1.000000       39.1020           0
   78472 ION  465  POT  POT  POT    1.000000       39.1020           0
   78473 ION  466  POT  POT  POT    1.000000       39.1020           0
   78474 ION  467  POT  POT  POT    1.000000       39.1020           0
   78475 ION  468  POT  POT  POT    1.000000       39.1020           0
   78476 ION  469  POT  POT  POT    1.000000       39.1020           0
   78477 ION  470  POT  POT  POT    1.000000       39.1020           0
   78478 ION  471  POT  POT  POT    1.000000       39.1020           0
   78479 ION  472  POT  POT  POT    1.000000       39.1020           0
   78480 ION  473  POT  POT  POT    1.000000       39.1020           0
   78481 ION  474  POT  POT  POT    1.000000       39.1020           0
   78482 ION  475  POT  POT  POT    1.000000       39.1020           0
   78483 ION  476  POT  POT  POT    1.000000       39.1020           0
   78484 ION  477  POT  POT  POT    1.000000       39.1020           0
   78485 ION  478  POT  POT  POT    1.000000       39.1020           0
   78486 ION  479  POT  POT  POT    1.000000       39.1020           0
   78487 ION  480  POT  POT  POT    1.000000       39.1020           0
   78488 ION  481  POT  POT  POT    1.000000       39.1020           0
   78489 ION  482  POT  POT  POT    1.000000       39.1020           0
   78490 ION  483  POT  POT  POT    1.000000       39.1020           0
   78491 ION  484  POT  POT  POT    1.000000       39.1020           0
   78492 ION  485  POT  POT  POT    1.000000       39.1020           0
   78493 ION  486  POT  POT  POT    1.000000       39.1020           0
   78494 ION  487  POT  POT  POT    1.000000       39.1020           0
   78495 ION  488  POT  POT  POT    1.000000       39.1020           0
   78496 ION  489  POT  POT  POT    1.000000       39.1020           0
   78497 ION  490  POT  POT  POT    1.000000       39.1020           0
   78498 ION  491  POT  POT  POT    1.000000       39.1020           0
   78499 ION  492  POT  POT  POT    1.000000       39.1020           0
   78500 ION  493  POT  POT  POT    1.000000       39.1020           0
   78501 ION  494  POT  POT  POT    1.000000       39.1020           0
   78502 ION  495  POT  POT  POT    1.000000       39.1020           0
   78503 ION  496  POT  POT  POT    1.000000       39.1020           0
   78504 ION  497  POT  POT  POT    1.000000       39.1020           0
   78505 ION  498  POT  POT  POT    1.000000       39.1020           0
   78506 ION  499  POT  POT  POT    1.000000       39.1020           0
   78507 ION  500  POT  POT  POT    1.000000       39.1020           0
   78508 ION  501  POT  POT  POT    1.000000       39.1020           0
   78509 ION  502  POT  POT  POT    1.000000       39.1020           0
   78510 ION  503  POT  POT  POT    1.000000       39.1020           0
   78511 ION  504  POT  POT  POT    1.000000       39.1020           0
   78512 ION  505  POT  POT  POT    1.000000       39.1020           0
   78513 ION  506  POT  POT  POT    1.000000       39.1020           0
   78514 ION  507  POT  POT  POT    1.000000       39.1020           0
   78515 ION  508  POT  POT  POT    1.000000       39.1020           0
   78516 ION  509  POT  POT  POT    1.000000       39.1020           0
   78517 ION  510  POT  POT  POT    1.000000       39.1020           0
   78518 ION  511  POT  POT  POT    1.000000       39.1020           0
   78519 ION  512  POT  POT  POT    1.000000       39.1020           0
   78520 ION  513  POT  POT  POT    1.000000       39.1020           0
   78521 ION  514  POT  POT  POT    1.000000       39.1020           0
   78522 ION  515  POT  POT  POT    1.000000       39.1020           0
   78523 ION  516  POT  POT  POT    1.000000       39.1020           0
   78524 ION  517  POT  POT  POT    1.000000       39.1020           0
   78525 ION  518  POT  POT  POT    1.000000       39.1020           0
   78526 ION  519  POT  POT  POT    1.000000       39.1020           0
   78527 ION  520  POT  POT  POT    1.000000       39.1020           0
   78528 ION  521  POT  POT  POT    1.000000       39.1020           0
   78529 ION  522  POT  POT  POT    1.000000       39.1020           0
   78530 ION  523  POT  POT  POT    1.000000       39.1020           0
   78531 ION  524  POT  POT  POT    1.000000       39.1020           0
   78532 ION  525  POT  POT  POT    1.000000       39.1020           0
   78533 ION  526  POT  POT  POT    1.000000       39.1020           0
   78534 ION  527  POT  POT  POT    1.000000       39.1020           0
   78535 ION  528  POT  POT  POT    1.000000       39.1020           0
   78536 ION  529  POT  POT  POT    1.000000       39.1020           0
   78537 ION  530  POT  POT  POT    1.000000       39.1020           0
   78538 ION  531  POT  POT  POT    1.000000       39.1020           0
   78539 ION  532  POT  POT  POT    1.000000       39.1020           0
   78540 ION  533  POT  POT  POT    1.000000       39.1020           0
   78541 ION  534  POT  POT  POT    1.000000       39.1020           0
   78542 ION  535  POT  POT  POT    1.000000       39.1020           0
   78543 ION  536  POT  POT  POT    1.000000       39.1020           0
   78544 ION  537  POT  POT  POT    1.000000       39.1020           0
   78545 ION  538  POT  POT  POT    1.000000       39.1020           0
   78546 ION  539  POT  POT  POT    1.000000       39.1020           0
   78547 ION  540  POT  POT  POT    1.000000       39.1020           0
   78548 ION  541  POT  POT  POT    1.000000       39.1020           0
   78549 ION  542  POT  POT  POT    1.000000       39.1020           0
   78550 ION  543  POT  POT  POT    1.000000       39.1020           0
   78551 ION  544  POT  POT  POT    1.000000       39.1020           0
   78552 ION  545  POT  POT  POT    1.000000       39.1020           0
   78553 ION  546  POT  POT  POT    1.000000       39.1020           0
   78554 ION  547  POT  POT  POT    1.000000       39.1020           0
   78555 ION  548  POT  POT  POT    1.000000       39.1020           0
   78556 ION  549  POT  POT  POT    1.000000       39.1020           0
   78557 ION  550  POT  POT  POT    1.000000       39.1020           0
   78558 ION  551  POT  POT  POT    1.000000       39.1020           0
   78559 ION  552  POT  POT  POT    1.000000       39.1020           0
   78560 ION  553  POT  POT  POT    1.000000       39.1020           0
   78561 ION  554  POT  POT  POT    1.000000       39.1020           0
   78562 ION  555  POT  POT  POT    1.000000       39.1020           0
   78563 ION  556  POT  POT  POT    1.000000       39.1020           0
   78564 ION  557  POT  POT  POT    1.000000       39.1020           0
   78565 ION  558  POT  POT  POT    1.000000       39.1020           0
   78566 ION  559  POT  POT  POT    1.000000       39.1020           0
   78567 ION  560  POT  POT  POT    1.000000       39.1020           0
   78568 ION  561  POT  POT  POT    1.000000       39.1020           0
   78569 ION  562  POT  POT  POT    1.000000       39.1020           0
   78570 ION  563  POT  POT  POT    1.000000       39.1020           0
   78571 ION  564  POT  POT  POT    1.000000       39.1020           0
   78572 ION  565  POT  POT  POT    1.000000       39.1020           0
   78573 ION  566  POT  POT  POT    1.000000       39.1020           0
   78574 ION  567  POT  POT  POT    1.000000       39.1020           0
   78575 ION  568  POT  POT  POT    1.000000       39.1020           0
   78576 ION  569  POT  POT  POT    1.000000       39.1020           0
   78577 ION  570  POT  POT  POT    1.000000       39.1020           0
   78578 ION  571  POT  POT  POT    1.000000       39.1020           0
   78579 ION  572  POT  POT  POT    1.000000       39.1020           0
   78580 ION  573  POT  POT  POT    1.000000       39.1020           0
   78581 ION  574  POT  POT  POT    1.000000       39.1020           0
   78582 ION  575  POT  POT  POT    1.000000       39.1020           0
   78583 ION  576  POT  POT  POT    1.000000       39.1020           0
   78584 ION  577  POT  POT  POT    1.000000       39.1020           0
   78585 ION  578  POT  POT  POT    1.000000       39.1020           0
   78586 ION  579  POT  POT  POT    1.000000       39.1020           0
   78587 ION  580  POT  POT  POT    1.000000       39.1020           0
   78588 ION  581  POT  POT  POT    1.000000       39.1020           0
   78589 ION  582  POT  POT  POT    1.000000       39.1020           0
   78590 ION  583  POT  POT  POT    1.000000       39.1020           0
   78591 ION  584  POT  POT  POT    1.000000       39.1020           0
   78592 ION  585  POT  POT  POT    1.000000       39.1020           0
   78593 ION  586  POT  POT  POT    1.000000       39.1020           0
   78594 ION  587  POT  POT  POT    1.000000       39.1020           0
   78595 ION  588  POT  POT  POT    1.000000       39.1020           0
   78596 ION  589  POT  POT  POT    1.000000       39.1020           0
   78597 ION  590  POT  POT  POT    1.000000       39.1020           0
   78598 ION  591  POT  POT  POT    1.000000       39.1020           0
   78599 ION  592  POT  POT  POT    1.000000       39.1020           0
   78600 ION  593  POT  POT  POT    1.000000       39.1020           0
   78601 ION  594  POT  POT  POT    1.000000       39.1020           0
   78602 ION  595  POT  POT  POT    1.000000       39.1020           0
   78603 ION  596  POT  POT  POT    1.000000       39.1020           0
   78604 ION  597  POT  POT  POT    1.000000       39.1020           0
   78605 ION  598  POT  POT  POT    1.000000       39.1020           0
   78606 ION  599  POT  POT  POT    1.000000       39.1020           0
   78607 ION  600  POT  POT  POT    1.000000       39.1020           0
   78608 ION  601  POT  POT  POT    1.000000       39.1020           0
   78609 ION  602  POT  POT  POT    1.000000       39.1020           0
   78610 ION  603  POT  POT  POT    1.000000       39.1020           0
   78611 ION  604  POT  POT  POT    1.000000       39.1020           0
   78612 ION  605  POT  POT  POT    1.000000       39.1020           0
   78613 ION  606  POT  POT  POT    1.000000       39.1020           0
   78614 ION  607  POT  POT  POT    1.000000       39.1020           0
   78615 ION  608  POT  POT  POT    1.000000       39.1020           0
   78616 ION  609  POT  POT  POT    1.000000       39.1020           0
   78617 ION  610  POT  POT  POT    1.000000       39.1020           0
   78618 ION  611  POT  POT  POT    1.000000       39.1020           0
   78619 ION  612  POT  POT  POT    1.000000       39.1020           0
   78620 ION  613  POT  POT  POT    1.000000       39.1020           0
   78621 ION  614  POT  POT  POT    1.000000       39.1020           0
   78622 ION  615  POT  POT  POT    1.000000       39.1020           0
   78623 ION  616  POT  POT  POT    1.000000       39.1020           0
   78624 ION  617  POT  POT  POT    1.000000       39.1020           0
   78625 ION  618  POT  POT  POT    1.000000       39.1020           0
   78626 ION  619  POT  POT  POT    1.000000       39.1020           0
   78627 ION  620  POT  POT  POT    1.000000       39.1020           0
   78628 ION  621  POT  POT  POT    1.000000       39.1020           0
   78629 ION  622  POT  POT  POT    1.000000       39.1020           0
   78630 ION  623  POT  POT  POT    1.000000       39.1020           0
   78631 ION  624  POT  POT  POT    1.000000       39.1020           0
   78632 ION  625  POT  POT  POT    1.000000       39.1020           0
   78633 ION  626  POT  POT  POT    1.000000       39.1020           0
   78634 ION  627  POT  POT  POT    1.000000       39.1020           0
   78635 ION  628  POT  POT  POT    1.000000       39.1020           0
   78636 ION  629  POT  POT  POT    1.000000       39.1020           0
   78637 ION  630  POT  POT  POT    1.000000       39.1020           0
   78638 ION  631  POT  POT  POT    1.000000       39.1020           0
   78639 ION  632  POT  POT  POT    1.000000       39.1020           0
   78640 ION  633  POT  POT  POT    1.000000       39.1020           0
   78641 ION  634  POT  POT  POT    1.000000       39.1020           0
   78642 ION  635  POT  POT  POT    1.000000       39.1020           0
   78643 ION  636  POT  POT  POT    1.000000       39.1020           0
   78644 ION  637  POT  POT  POT    1.000000       39.1020           0
   78645 ION  638  POT  POT  POT    1.000000       39.1020           0
   78646 ION  639  POT  POT  POT    1.000000       39.1020           0
   78647 ION  640  POT  POT  POT    1.000000       39.1020           0
   78648 ION  641  POT  POT  POT    1.000000       39.1020           0
   78649 ION  642  POT  POT  POT    1.000000       39.1020           0
   78650 ION  643  POT  POT  POT    1.000000       39.1020           0
   78651 ION  644  POT  POT  POT    1.000000       39.1020           0
   78652 ION  645  POT  POT  POT    1.000000       39.1020           0
   78653 ION  646  POT  POT  POT    1.000000       39.1020           0
   78654 ION  647  POT  POT  POT    1.000000       39.1020           0
   78655 ION  648  POT  POT  POT    1.000000       39.1020           0
   78656 ION  649  POT  POT  POT    1.000000       39.1020           0
   78657 ION  650  POT  POT  POT    1.000000       39.1020           0
   78658 ION  651  POT  POT  POT    1.000000       39.1020           0
   78659 ION  652  POT  POT  POT    1.000000       39.1020           0
   78660 ION  653  POT  POT  POT    1.000000       39.1020           0
   78661 ION  654  POT  POT  POT    1.000000       39.1020           0
   78662 ION  655  POT  POT  POT    1.000000       39.1020           0
   78663 ION  656  POT  POT  POT    1.000000       39.1020           0
   78664 ION  657  POT  POT  POT    1.000000       39.1020           0
   78665 ION  658  POT  POT  POT    1.000000       39.1020           0
   78666 ION  659  POT  POT  POT    1.000000       39.1020           0
   78667 ION  660  POT  POT  POT    1.000000       39.1020           0
   78668 ION  661  POT  POT  POT    1.000000       39.1020           0
   78669 ION  662  POT  POT  POT    1.000000       39.1020           0
   78670 ION  663  POT  POT  POT    1.000000       39.1020           0
   78671 ION  664  POT  POT  POT    1.000000       39.1020           0
   78672 ION  665  POT  POT  POT    1.000000       39.1020           0
   78673 ION  666  POT  POT  POT    1.000000       39.1020           0
   78674 ION  667  POT  POT  POT    1.000000       39.1020           0
   78675 ION  668  POT  POT  POT    1.000000       39.1020           0
   78676 ION  669  POT  POT  POT    1.000000       39.1020           0
   78677 ION  670  POT  POT  POT    1.000000       39.1020           0
   78678 ION  671  POT  POT  POT    1.000000       39.1020           0
   78679 ION  672  POT  POT  POT    1.000000       39.1020           0
   78680 ION  673  POT  POT  POT    1.000000       39.1020           0
   78681 ION  674  POT  POT  POT    1.000000       39.1020           0
   78682 ION  675  POT  POT  POT    1.000000       39.1020           0
   78683 ION  676  POT  POT  POT    1.000000       39.1020           0
   78684 ION  677  POT  POT  POT    1.000000       39.1020           0
   78685 ION  678  POT  POT  POT    1.000000       39.1020           0
   78686 ION  679  POT  POT  POT    1.000000       39.1020           0
   78687 ION  680  POT  POT  POT    1.000000       39.1020           0
   78688 ION  681  POT  POT  POT    1.000000       39.1020           0
   78689 ION  682  POT  POT  POT    1.000000       39.1020           0
   78690 ION  683  POT  POT  POT    1.000000       39.1020           0
   78691 ION  684  POT  POT  POT    1.000000       39.1020           0
   78692 ION  685  POT  POT  POT    1.000000       39.1020           0
   78693 ION  686  POT  POT  POT    1.000000       39.1020           0
   78694 ION  687  POT  POT  POT    1.000000       39.1020           0
   78695 ION  688  POT  POT  POT    1.000000       39.1020           0
   78696 ION  689  POT  POT  POT    1.000000       39.1020           0
   78697 ION  690  POT  POT  POT    1.000000       39.1020           0
   78698 ION  691  POT  POT  POT    1.000000       39.1020           0
   78699 ION  692  POT  POT  POT    1.000000       39.1020           0
   78700 ION  693  POT  POT  POT    1.000000       39.1020           0
   78701 ION  694  POT  POT  POT    1.000000       39.1020           0
   78702 ION  695  POT  POT  POT    1.000000       39.1020           0
   78703 ION  696  POT  POT  POT    1.000000       39.1020           0
   78704 ION  697  POT  POT  POT    1.000000       39.1020           0
   78705 ION  698  POT  POT  POT    1.000000       39.1020           0
   78706 ION  699  POT  POT  POT    1.000000       39.1020           0
   78707 ION  700  POT  POT  POT    1.000000       39.1020           0
   78708 ION  701  POT  POT  POT    1.000000       39.1020           0
   78709 ION  702  POT  POT  POT    1.000000       39.1020           0
   78710 ION  703  POT  POT  POT    1.000000       39.1020           0
   78711 ION  704  POT  POT  POT    1.000000       39.1020           0
   78712 ION  705  POT  POT  POT    1.000000       39.1020           0
   78713 ION  706  POT  POT  POT    1.000000       39.1020           0
   78714 ION  707  POT  POT  POT    1.000000       39.1020           0
   78715 ION  708  POT  POT  POT    1.000000       39.1020           0
   78716 ION  709  POT  POT  POT    1.000000       39.1020           0
   78717 ION  710  POT  POT  POT    1.000000       39.1020           0
   78718 ION  711  POT  POT  POT    1.000000       39.1020           0
   78719 ION  712  POT  POT  POT    1.000000       39.1020           0
   78720 ION  713  POT  POT  POT    1.000000       39.1020           0
   78721 ION  714  POT  POT  POT    1.000000       39.1020           0
   78722 ION  715  POT  POT  POT    1.000000       39.1020           0
   78723 ION  716  POT  POT  POT    1.000000       39.1020           0
   78724 ION  717  POT  POT  POT    1.000000       39.1020           0
   78725 ION  718  POT  POT  POT    1.000000       39.1020           0
   78726 ION  719  POT  POT  POT    1.000000       39.1020           0
   78727 ION  720  POT  POT  POT    1.000000       39.1020           0
   78728 ION  721  POT  POT  POT    1.000000       39.1020           0
   78729 ION  722  POT  POT  POT    1.000000       39.1020           0
   78730 ION  723  POT  POT  POT    1.000000       39.1020           0
   78731 ION  724  POT  POT  POT    1.000000       39.1020           0
   78732 ION  725  POT  POT  POT    1.000000       39.1020           0
   78733 ION  726  POT  POT  POT    1.000000       39.1020           0
   78734 ION  727  POT  POT  POT    1.000000       39.1020           0
   78735 ION  728  POT  POT  POT    1.000000       39.1020           0
   78736 ION  729  POT  POT  POT    1.000000       39.1020           0
   78737 ION  730  POT  POT  POT    1.000000       39.1020           0
   78738 ION  731  POT  POT  POT    1.000000       39.1020           0
   78739 ION  732  POT  POT  POT    1.000000       39.1020           0
   78740 ION  733  POT  POT  POT    1.000000       39.1020           0
   78741 ION  734  POT  POT  POT    1.000000       39.1020           0
   78742 ION  735  POT  POT  POT    1.000000       39.1020           0
   78743 ION  736  POT  POT  POT    1.000000       39.1020           0
   78744 ION  737  POT  POT  POT    1.000000       39.1020           0
   78745 ION  738  POT  POT  POT    1.000000       39.1020           0
   78746 ION  739  POT  POT  POT    1.000000       39.1020           0
   78747 ION  740  POT  POT  POT    1.000000       39.1020           0
   78748 ION  741  POT  POT  POT    1.000000       39.1020           0
   78749 ION  742  POT  POT  POT    1.000000       39.1020           0
   78750 ION  743  POT  POT  POT    1.000000       39.1020           0
   78751 ION  744  POT  POT  POT    1.000000       39.1020           0
   78752 ION  745  POT  POT  POT    1.000000       39.1020           0
   78753 ION  746  POT  POT  POT    1.000000       39.1020           0
   78754 ION  747  POT  POT  POT    1.000000       39.1020           0
   78755 ION  748  POT  POT  POT    1.000000       39.1020           0
   78756 ION  749  POT  POT  POT    1.000000       39.1020           0
   78757 ION  750  POT  POT  POT    1.000000       39.1020           0
   78758 ION  751  POT  POT  POT    1.000000       39.1020           0
   78759 ION  752  POT  POT  POT    1.000000       39.1020           0
   78760 ION  753  POT  POT  POT    1.000000       39.1020           0
   78761 ION  754  POT  POT  POT    1.000000       39.1020           0
   78762 ION  755  POT  POT  POT    1.000000       39.1020           0
   78763 ION  756  POT  POT  POT    1.000000       39.1020           0
   78764 ION  757  POT  POT  POT    1.000000       39.1020           0
   78765 ION  758  POT  POT  POT    1.000000       39.1020           0
   78766 ION  759  POT  POT  POT    1.000000       39.1020           0
   78767 ION  760  POT  POT  POT    1.000000       39.1020           0
   78768 ION  761  POT  POT  POT    1.000000       39.1020           0
   78769 ION  762  POT  POT  POT    1.000000       39.1020           0
   78770 ION  763  POT  POT  POT    1.000000       39.1020           0
   78771 ION  764  POT  POT  POT    1.000000       39.1020           0
   78772 ION  765  POT  POT  POT    1.000000       39.1020           0
   78773 ION  766  POT  POT  POT    1.000000       39.1020           0
   78774 ION  767  POT  POT  POT    1.000000       39.1020           0
   78775 ION  768  POT  POT  POT    1.000000       39.1020           0
   78776 ION  769  POT  POT  POT    1.000000       39.1020           0
   78777 ION  770  POT  POT  POT    1.000000       39.1020           0
   78778 ION  771  POT  POT  POT    1.000000       39.1020           0
   78779 ION  772  POT  POT  POT    1.000000       39.1020           0
   78780 ION  773  POT  POT  POT    1.000000       39.1020           0
   78781 ION  774  POT  POT  POT    1.000000       39.1020           0
   78782 ION  775  POT  POT  POT    1.000000       39.1020           0
   78783 ION  776  POT  POT  POT    1.000000       39.1020           0
   78784 ION  777  POT  POT  POT    1.000000       39.1020           0
   78785 ION  778  POT  POT  POT    1.000000       39.1020           0
   78786 ION  779  POT  POT  POT    1.000000       39.1020           0
   78787 ION  780  POT  POT  POT    1.000000       39.1020           0
   78788 ION  781  POT  POT  POT    1.000000       39.1020           0
   78789 ION  782  POT  POT  POT    1.000000       39.1020           0
   78790 ION  783  POT  POT  POT    1.000000       39.1020           0
   78791 ION  784  POT  POT  POT    1.000000       39.1020           0
   78792 ION  785  POT  POT  POT    1.000000       39.1020           0
   78793 ION  786  POT  POT  POT    1.000000       39.1020           0
   78794 ION  787  POT  POT  POT    1.000000       39.1020           0
   78795 ION  788  POT  POT  POT    1.000000       39.1020           0
   78796 ION  789  POT  POT  POT    1.000000       39.1020           0
   78797 ION  790  POT  POT  POT    1.000000       39.1020           0
   78798 ION  791  POT  POT  POT    1.000000       39.1020           0
   78799 ION  792  POT  POT  POT    1.000000       39.1020           0
   78800 ION  793  POT  POT  POT    1.000000       39.1020           0
   78801 ION  794  POT  POT  POT    1.000000       39.1020           0
   78802 ION  795  POT  POT  POT    1.000000       39.1020           0
   78803 ION  796  POT  POT  POT    1.000000       39.1020           0
   78804 ION  797  POT  POT  POT    1.000000       39.1020           0
   78805 ION  798  POT  POT  POT    1.000000       39.1020           0
   78806 ION  799  POT  POT  POT    1.000000       39.1020           0
   78807 ION  800  POT  POT  POT    1.000000       39.1020           0
   78808 ION  801  POT  POT  POT    1.000000       39.1020           0
   78809 ION  802  POT  POT  POT    1.000000       39.1020           0
   78810 ION  803  POT  POT  POT    1.000000       39.1020           0
   78811 ION  804  POT  POT  POT    1.000000       39.1020           0
   78812 ION  805  POT  POT  POT    1.000000       39.1020           0
   78813 ION  806  POT  POT  POT    1.000000       39.1020           0
   78814 ION  807  POT  POT  POT    1.000000       39.1020           0
   78815 ION  808  POT  POT  POT    1.000000       39.1020           0
   78816 ION  809  POT  POT  POT    1.000000       39.1020           0
   78817 ION  810  POT  POT  POT    1.000000       39.1020           0
   78818 ION  811  POT  POT  POT    1.000000       39.1020           0
   78819 ION  812  POT  POT  POT    1.000000       39.1020           0
   78820 ION  813  POT  POT  POT    1.000000       39.1020           0
   78821 ION  814  POT  POT  POT    1.000000       39.1020           0
   78822 ION  815  POT  POT  POT    1.000000       39.1020           0
   78823 ION  816  POT  POT  POT    1.000000       39.1020           0
   78824 ION  817  POT  POT  POT    1.000000       39.1020           0
   78825 ION  818  POT  POT  POT    1.000000       39.1020           0
   78826 ION  819  POT  POT  POT    1.000000       39.1020           0
   78827 ION  820  POT  POT  POT    1.000000       39.1020           0
   78828 ION  821  POT  POT  POT    1.000000       39.1020           0
   78829 ION  822  POT  POT  POT    1.000000       39.1020           0
   78830 ION  823  POT  POT  POT    1.000000       39.1020           0
   78831 ION  824  POT  POT  POT    1.000000       39.1020           0
   78832 ION  825  POT  POT  POT    1.000000       39.1020           0
   78833 ION  826  POT  POT  POT    1.000000       39.1020           0
   78834 ION  827  POT  POT  POT    1.000000       39.1020           0
   78835 ION  828  POT  POT  POT    1.000000       39.1020           0
   78836 ION  829  POT  POT  POT    1.000000       39.1020           0
   78837 ION  830  POT  POT  POT    1.000000       39.1020           0
   78838 ION  831  POT  POT  POT    1.000000       39.1020           0
   78839 ION  832  POT  POT  POT    1.000000       39.1020           0
   78840 ION  833  POT  POT  POT    1.000000       39.1020           0
   78841 ION  834  POT  POT  POT    1.000000       39.1020           0
   78842 ION  835  POT  POT  POT    1.000000       39.1020           0
   78843 ION  836  POT  POT  POT    1.000000       39.1020           0
   78844 ION  837  POT  POT  POT    1.000000       39.1020           0
   78845 ION  838  POT  POT  POT    1.000000       39.1020           0
   78846 ION  839  POT  POT  POT    1.000000       39.1020           0
   78847 ION  840  POT  POT  POT    1.000000       39.1020           0
   78848 ION  841  POT  POT  POT    1.000000       39.1020           0
   78849 ION  842  POT  POT  POT    1.000000       39.1020           0
   78850 ION  843  POT  POT  POT    1.000000       39.1020           0
   78851 ION  844  POT  POT  POT    1.000000       39.1020           0
   78852 ION  845  POT  POT  POT    1.000000       39.1020           0
   78853 ION  846  POT  POT  POT    1.000000       39.1020           0
   78854 ION  847  POT  POT  POT    1.000000       39.1020           0
   78855 ION  848  POT  POT  POT    1.000000       39.1020           0
   78856 ION  849  POT  POT  POT    1.000000       39.1020           0
   78857 ION  850  POT  POT  POT    1.000000       39.1020           0
   78858 ION  851  POT  POT  POT    1.000000       39.1020           0
   78859 ION  852  POT  POT  POT    1.000000       39.1020           0
   78860 ION  853  POT  POT  POT    1.000000       39.1020           0
   78861 ION  854  POT  POT  POT    1.000000       39.1020           0
   78862 ION  855  POT  POT  POT    1.000000       39.1020           0
   78863 ION  856  POT  POT  POT    1.000000       39.1020           0
   78864 ION  857  POT  POT  POT    1.000000       39.1020           0
   78865 ION  858  POT  POT  POT    1.000000       39.1020           0
   78866 ION  859  POT  POT  POT    1.000000       39.1020           0
   78867 ION  860  POT  POT  POT    1.000000       39.1020           0
   78868 ION  861  POT  POT  POT    1.000000       39.1020           0
   78869 ION  862  POT  POT  POT    1.000000       39.1020           0
   78870 ION  863  POT  POT  POT    1.000000       39.1020           0
   78871 ION  864  POT  POT  POT    1.000000       39.1020           0
   78872 ION  865  POT  POT  POT    1.000000       39.1020           0
   78873 ION  866  POT  POT  POT    1.000000       39.1020           0
   78874 ION  867  POT  POT  POT    1.000000       39.1020           0
   78875 ION  868  POT  POT  POT    1.000000       39.1020           0
   78876 ION  869  POT  POT  POT    1.000000       39.1020           0
   78877 ION  870  POT  POT  POT    1.000000       39.1020           0
   78878 ION  871  POT  POT  POT    1.000000       39.1020           0
   78879 ION  872  POT  POT  POT    1.000000       39.1020           0
   78880 ION  873  POT  POT  POT    1.000000       39.1020           0
   78881 ION  874  POT  POT  POT    1.000000       39.1020           0
   78882 ION  875  POT  POT  POT    1.000000       39.1020           0
   78883 ION  876  POT  POT  POT    1.000000       39.1020           0
   78884 ION  877  POT  POT  POT    1.000000       39.1020           0
   78885 ION  878  POT  POT  POT    1.000000       39.1020           0
   78886 ION  879  POT  POT  POT    1.000000       39.1020           0
   78887 ION  880  POT  POT  POT    1.000000       39.1020           0
   78888 ION  881  POT  POT  POT    1.000000       39.1020           0
   78889 ION  882  POT  POT  POT    1.000000       39.1020           0
   78890 ION  883  POT  POT  POT    1.000000       39.1020           0
   78891 ION  884  POT  POT  POT    1.000000       39.1020           0
   78892 ION  885  POT  POT  POT    1.000000       39.1020           0
   78893 ION  886  POT  POT  POT    1.000000       39.1020           0
   78894 ION  887  POT  POT  POT    1.000000       39.1020           0
   78895 ION  888  POT  POT  POT    1.000000       39.1020           0
   78896 ION  889  POT  POT  POT    1.000000       39.1020           0
   78897 ION  890  POT  POT  POT    1.000000       39.1020           0
   78898 ION  891  POT  POT  POT    1.000000       39.1020           0
   78899 ION  892  POT  POT  POT    1.000000       39.1020           0
   78900 ION  893  POT  POT  POT    1.000000       39.1020           0
   78901 ION  894  POT  POT  POT    1.000000       39.1020           0
   78902 ION  895  POT  POT  POT    1.000000       39.1020           0
   78903 ION  896  POT  POT  POT    1.000000       39.1020           0
   78904 ION  897  POT  POT  POT    1.000000       39.1020           0
   78905 ION  898  POT  POT  POT    1.000000       39.1020           0
   78906 ION  899  POT  POT  POT    1.000000       39.1020           0
   78907 ION  900  POT  POT  POT    1.000000       39.1020           0
   78908 ION  901  POT  POT  POT    1.000000       39.1020           0
   78909 ION  902  POT  POT  POT    1.000000       39.1020           0
   78910 ION  903  POT  POT  POT    1.000000       39.1020           0
   78911 ION  904  POT  POT  POT    1.000000       39.1020           0
   78912 ION  905  POT  POT  POT    1.000000       39.1020           0
   78913 ION  906  POT  POT  POT    1.000000       39.1020           0
   78914 ION  907  POT  POT  POT    1.000000       39.1020           0
   78915 ION  908  POT  POT  POT    1.000000       39.1020           0
   78916 ION  909  POT  POT  POT    1.000000       39.1020           0
   78917 ION  910  POT  POT  POT    1.000000       39.1020           0
   78918 ION  911  POT  POT  POT    1.000000       39.1020           0
   78919 ION  912  POT  POT  POT    1.000000       39.1020           0
   78920 ION  913  POT  POT  POT    1.000000       39.1020           0
   78921 ION  914  POT  POT  POT    1.000000       39.1020           0
   78922 ION  915  POT  POT  POT    1.000000       39.1020           0
   78923 ION  916  POT  POT  POT    1.000000       39.1020           0
   78924 ION  917  POT  POT  POT    1.000000       39.1020           0
   78925 ION  918  POT  POT  POT    1.000000       39.1020           0
   78926 ION  919  POT  POT  POT    1.000000       39.1020           0
   78927 ION  920  POT  POT  POT    1.000000       39.1020           0
   78928 ION  921  POT  POT  POT    1.000000       39.1020           0
   78929 ION  922  POT  POT  POT    1.000000       39.1020           0
   78930 ION  923  POT  POT  POT    1.000000       39.1020           0
   78931 ION  924  POT  POT  POT    1.000000       39.1020           0
   78932 ION  925  POT  POT  POT    1.000000       39.1020           0
   78933 ION  926  POT  POT  POT    1.000000       39.1020           0
   78934 ION  927  POT  POT  POT    1.000000       39.1020           0
   78935 ION  928  POT  POT  POT    1.000000       39.1020           0
   78936 ION  929  POT  POT  POT    1.000000       39.1020           0
   78937 ION  930  POT  POT  POT    1.000000       39.1020           0
   78938 ION  931  POT  POT  POT    1.000000       39.1020           0
   78939 ION  932  POT  POT  POT    1.000000       39.1020           0
   78940 ION  933  POT  POT  POT    1.000000       39.1020           0
   78941 ION  934  POT  POT  POT    1.000000       39.1020           0
   78942 ION  935  POT  POT  POT    1.000000       39.1020           0
   78943 ION  936  POT  POT  POT    1.000000       39.1020           0
   78944 ION  937  POT  POT  POT    1.000000       39.1020           0
   78945 ION  938  POT  POT  POT    1.000000       39.1020           0
   78946 ION  939  POT  POT  POT    1.000000       39.1020           0
   78947 ION  940  POT  POT  POT    1.000000       39.1020           0
   78948 ION  941  POT  POT  POT    1.000000       39.1020           0
   78949 ION  942  POT  POT  POT    1.000000       39.1020           0
   78950 ION  943  POT  POT  POT    1.000000       39.1020           0
   78951 ION  944  POT  POT  POT    1.000000       39.1020           0
   78952 ION  945  POT  POT  POT    1.000000       39.1020           0
   78953 ION  946  POT  POT  POT    1.000000       39.1020           0
   78954 ION  947  POT  POT  POT    1.000000       39.1020           0
   78955 ION  948  POT  POT  POT    1.000000       39.1020           0
   78956 ION  949  POT  POT  POT    1.000000       39.1020           0
   78957 ION  950  POT  POT  POT    1.000000       39.1020           0
   78958 ION  951  POT  POT  POT    1.000000       39.1020           0
   78959 ION  952  POT  POT  POT    1.000000       39.1020           0
   78960 ION  953  POT  POT  POT    1.000000       39.1020           0
   78961 ION  954  POT  POT  POT    1.000000       39.1020           0
   78962 ION  955  POT  POT  POT    1.000000       39.1020           0
   78963 ION  956  POT  POT  POT    1.000000       39.1020           0
   78964 ION  957  POT  POT  POT    1.000000       39.1020           0
   78965 ION  958  POT  POT  POT    1.000000       39.1020           0
   78966 ION  959  POT  POT  POT    1.000000       39.1020           0
   78967 ION  960  POT  POT  POT    1.000000       39.1020           0
   78968 ION  961  POT  POT  POT    1.000000       39.1020           0
   78969 ION  962  POT  POT  POT    1.000000       39.1020           0
   78970 ION  963  POT  POT  POT    1.000000       39.1020           0
   78971 ION  964  POT  POT  POT    1.000000       39.1020           0
   78972 ION  965  POT  POT  POT    1.000000       39.1020           0
   78973 ION  966  POT  POT  POT    1.000000       39.1020           0
   78974 ION  967  POT  POT  POT    1.000000       39.1020           0
   78975 ION  968  POT  POT  POT    1.000000       39.1020           0
   78976 ION  969  POT  POT  POT    1.000000       39.1020           0
   78977 ION  970  POT  POT  POT    1.000000       39.1020           0
   78978 ION  971  POT  POT  POT    1.000000       39.1020           0
   78979 ION  972  POT  POT  POT    1.000000       39.1020           0
   78980 ION  973  POT  POT  POT    1.000000       39.1020           0
   78981 ION  974  POT  POT  POT    1.000000       39.1020           0
   78982 ION  975  POT  POT  POT    1.000000       39.1020           0
   78983 ION  976  POT  POT  POT    1.000000       39.1020           0
   78984 ION  977  POT  POT  POT    1.000000       39.1020           0
   78985 ION  978  POT  POT  POT    1.000000       39.1020           0
   78986 ION  979  POT  POT  POT    1.000000       39.1020           0
   78987 ION  980  POT  POT  POT    1.000000       39.1020           0
   78988 ION  981  POT  POT  POT    1.000000       39.1020           0
   78989 ION  982  POT  POT  POT    1.000000       39.1020           0
   78990 ION  983  POT  POT  POT    1.000000       39.1020           0
   78991 ION  984  POT  POT  POT    1.000000       39.1020           0
   78992 ION  985  POT  POT  POT    1.000000       39.1020           0
   78993 ION  986  POT  POT  POT    1.000000       39.1020           0
   78994 ION  987  POT  POT  POT    1.000000       39.1020           0
   78995 ION  988  POT  POT  POT    1.000000       39.1020           0
   78996 ION  989  POT  POT  POT    1.000000       39.1020           0
   78997 ION  990  POT  POT  POT    1.000000       39.1020           0
   78998 ION  991  POT  POT  POT    1.000000       39.1020           0
   78999 ION  992  POT  POT  POT    1.000000       39.1020           0
   79000 ION  993  POT  POT  POT    1.000000       39.1020           0
   79001 ION  994  POT  POT  POT    1.000000       39.1020           0
   79002 ION  995  POT  POT  POT    1.000000       39.1020           0
   79003 ION  996  POT  POT  POT    1.000000       39.1020           0
   79004 ION  997  POT  POT  POT    1.000000       39.1020           0
   79005 ION  998  POT  POT  POT    1.000000       39.1020           0
   79006 ION  999  POT  POT  POT    1.000000       39.1020           0
   79007 ION  1000 POT  POT  POT    1.000000       39.1020           0
   79008 ION  1001 POT  POT  POT    1.000000       39.1020           0
   79009 ION  1002 POT  POT  POT    1.000000       39.1020           0
   79010 ION  1003 POT  POT  POT    1.000000       39.1020           0
   79011 ION  1004 POT  POT  POT    1.000000       39.1020           0
   79012 ION  1005 POT  POT  POT    1.000000       39.1020           0
   79013 ION  1006 POT  POT  POT    1.000000       39.1020           0
   79014 ION  1007 POT  POT  POT    1.000000       39.1020           0
   79015 ION  1008 POT  POT  POT    1.000000       39.1020           0
   79016 ION  1009 POT  POT  POT    1.000000       39.1020           0
   79017 ION  1010 POT  POT  POT    1.000000       39.1020           0
   79018 ION  1011 POT  POT  POT    1.000000       39.1020           0
   79019 ION  1012 POT  POT  POT    1.000000       39.1020           0
   79020 ION  1013 POT  POT  POT    1.000000       39.1020           0
   79021 ION  1014 POT  POT  POT    1.000000       39.1020           0
   79022 ION  1015 POT  POT  POT    1.000000       39.1020           0
   79023 ION  1016 POT  POT  POT    1.000000       39.1020           0
   79024 ION  1017 POT  POT  POT    1.000000       39.1020           0
   79025 ION  1018 POT  POT  POT    1.000000       39.1020           0
   79026 ION  1019 POT  POT  POT    1.000000       39.1020           0
   79027 ION  1020 POT  POT  POT    1.000000       39.1020           0
   79028 ION  1021 POT  POT  POT    1.000000       39.1020           0
   79029 ION  1022 POT  POT  POT    1.000000       39.1020           0
   79030 ION  1023 POT  POT  POT    1.000000       39.1020           0
   79031 ION  1024 POT  POT  POT    1.000000       39.1020           0
   79032 ION  1025 POT  POT  POT    1.000000       39.1020           0
   79033 ION  1026 POT  POT  POT    1.000000       39.1020           0
   79034 ION  1027 POT  POT  POT    1.000000       39.1020           0
   79035 ION  1028 POT  POT  POT    1.000000       39.1020           0
   79036 ION  1029 POT  POT  POT    1.000000       39.1020           0
   79037 ION  1030 POT  POT  POT    1.000000       39.1020           0
   79038 ION  1031 POT  POT  POT    1.000000       39.1020           0
   79039 ION  1032 POT  POT  POT    1.000000       39.1020           0
   79040 ION  1033 POT  POT  POT    1.000000       39.1020           0
   79041 ION  1034 POT  POT  POT    1.000000       39.1020           0
   79042 ION  1035 POT  POT  POT    1.000000       39.1020           0
   79043 ION  1036 POT  POT  POT    1.000000       39.1020           0
   79044 ION  1037 POT  POT  POT    1.000000       39.1020           0
   79045 ION  1038 POT  POT  POT    1.000000       39.1020           0
   79046 ION  1039 POT  POT  POT    1.000000       39.1020           0
   79047 ION  1040 POT  POT  POT    1.000000       39.1020           0
   79048 ION  1041 POT  POT  POT    1.000000       39.1020           0
   79049 ION  1042 POT  POT  POT    1.000000       39.1020           0
   79050 ION  1043 POT  POT  POT    1.000000       39.1020           0
   79051 ION  1044 POT  POT  POT    1.000000       39.1020           0
   79052 ION  1045 POT  POT  POT    1.000000       39.1020           0
   79053 ION  1046 POT  POT  POT    1.000000       39.1020           0
   79054 ION  1047 POT  POT  POT    1.000000       39.1020           0
   79055 ION  1048 POT  POT  POT    1.000000       39.1020           0
   79056 ION  1049 POT  POT  POT    1.000000       39.1020           0
   79057 ION  1050 POT  POT  POT    1.000000       39.1020           0
   79058 ION  1051 POT  POT  POT    1.000000       39.1020           0
   79059 ION  1052 POT  POT  POT    1.000000       39.1020           0
   79060 ION  1053 POT  POT  POT    1.000000       39.1020           0
   79061 ION  1054 POT  POT  POT    1.000000       39.1020           0
   79062 ION  1055 POT  POT  POT    1.000000       39.1020           0
   79063 ION  1056 POT  POT  POT    1.000000       39.1020           0
   79064 ION  1057 POT  POT  POT    1.000000       39.1020           0
   79065 ION  1058 POT  POT  POT    1.000000       39.1020           0
   79066 ION  1059 POT  POT  POT    1.000000       39.1020           0
   79067 ION  1060 POT  POT  POT    1.000000       39.1020           0
   79068 ION  1061 POT  POT  POT    1.000000       39.1020           0
   79069 ION  1062 POT  POT  POT    1.000000       39.1020           0
   79070 ION  1063 POT  POT  POT    1.000000       39.1020           0
   79071 ION  1064 POT  POT  POT    1.000000       39.1020           0
   79072 ION  1065 POT  POT  POT    1.000000       39.1020           0
   79073 ION  1066 POT  POT  POT    1.000000       39.1020           0
   79074 ION  1067 POT  POT  POT    1.000000       39.1020           0
   79075 ION  1068 POT  POT  POT    1.000000       39.1020           0
   79076 ION  1069 POT  POT  POT    1.000000       39.1020           0
   79077 ION  1070 POT  POT  POT    1.000000       39.1020           0
   79078 ION  1071 POT  POT  POT    1.000000       39.1020           0
   79079 ION  1072 POT  POT  POT    1.000000       39.1020           0
   79080 ION  1073 POT  POT  POT    1.000000       39.1020           0
   79081 ION  1074 POT  POT  POT    1.000000       39.1020           0
   79082 ION  1075 POT  POT  POT    1.000000       39.1020           0
   79083 ION  1076 POT  POT  POT    1.000000       39.1020           0
   79084 ION  1077 POT  POT  POT    1.000000       39.1020           0
   79085 ION  1078 POT  POT  POT    1.000000       39.1020           0
   79086 ION  1079 POT  POT  POT    1.000000       39.1020           0
   79087 ION  1080 POT  POT  POT    1.000000       39.1020           0
   79088 ION  1081 POT  POT  POT    1.000000       39.1020           0
   79089 ION  1082 POT  POT  POT    1.000000       39.1020           0
   79090 ION  1083 POT  POT  POT    1.000000       39.1020           0
   79091 ION  1084 POT  POT  POT    1.000000       39.1020           0
   79092 ION  1085 POT  POT  POT    1.000000       39.1020           0
   79093 ION  1086 POT  POT  POT    1.000000       39.1020           0
   79094 ION  1087 POT  POT  POT    1.000000       39.1020           0
   79095 ION  1088 POT  POT  POT    1.000000       39.1020           0
   79096 ION  1089 POT  POT  POT    1.000000       39.1020           0
   79097 ION  1090 POT  POT  POT    1.000000       39.1020           0
   79098 ION  1091 POT  POT  POT    1.000000       39.1020           0
   79099 ION  1092 POT  POT  POT    1.000000       39.1020           0
   79100 ION  1093 POT  POT  POT    1.000000       39.1020           0
   79101 ION  1094 POT  POT  POT    1.000000       39.1020           0
   79102 ION  1095 POT  POT  POT    1.000000       39.1020           0
   79103 ION  1096 POT  POT  POT    1.000000       39.1020           0
   79104 ION  1097 POT  POT  POT    1.000000       39.1020           0
   79105 ION  1098 POT  POT  POT    1.000000       39.1020           0
   79106 ION  1099 POT  POT  POT    1.000000       39.1020           0
   79107 ION  1100 POT  POT  POT    1.000000       39.1020           0
   79108 ION  1101 POT  POT  POT    1.000000       39.1020           0
   79109 ION  1102 POT  POT  POT    1.000000       39.1020           0
   79110 ION  1103 POT  POT  POT    1.000000       39.1020           0
   79111 ION  1104 POT  POT  POT    1.000000       39.1020           0
   79112 ION  1105 POT  POT  POT    1.000000       39.1020           0
   79113 ION  1106 POT  POT  POT    1.000000       39.1020           0
   79114 ION  1107 POT  POT  POT    1.000000       39.1020           0
   79115 ION  1108 POT  POT  POT    1.000000       39.1020           0
   79116 ION  1109 POT  POT  POT    1.000000       39.1020           0
   79117 ION  1110 POT  POT  POT    1.000000       39.1020           0
   79118 ION  1111 POT  POT  POT    1.000000       39.1020           0
   79119 ION  1112 POT  POT  POT    1.000000       39.1020           0
   79120 ION  1113 POT  POT  POT    1.000000       39.1020           0
   79121 ION  1114 POT  POT  POT    1.000000       39.1020           0
   79122 ION  1115 POT  POT  POT    1.000000       39.1020           0
   79123 ION  1116 POT  POT  POT    1.000000       39.1020           0
   79124 ION  1117 POT  POT  POT    1.000000       39.1020           0
   79125 ION  1118 POT  POT  POT    1.000000       39.1020           0
   79126 ION  1119 POT  POT  POT    1.000000       39.1020           0
   79127 ION  1120 POT  POT  POT    1.000000       39.1020           0
   79128 ION  1121 POT  POT  POT    1.000000       39.1020           0
   79129 ION  1122 POT  POT  POT    1.000000       39.1020           0
   79130 ION  1123 POT  POT  POT    1.000000       39.1020           0
   79131 ION  1124 POT  POT  POT    1.000000       39.1020           0
   79132 ION  1125 POT  POT  POT    1.000000       39.1020           0
   79133 ION  1126 POT  POT  POT    1.000000       39.1020           0
   79134 ION  1127 POT  POT  POT    1.000000       39.1020           0
   79135 ION  1128 POT  POT  POT    1.000000       39.1020           0
   79136 ION  1129 POT  POT  POT    1.000000       39.1020           0
   79137 ION  1130 POT  POT  POT    1.000000       39.1020           0
   79138 ION  1131 POT  POT  POT    1.000000       39.1020           0
   79139 ION  1132 POT  POT  POT    1.000000       39.1020           0
   79140 ION  1133 POT  POT  POT    1.000000       39.1020           0
   79141 ION  1134 POT  POT  POT    1.000000       39.1020           0
   79142 ION  1135 POT  POT  POT    1.000000       39.1020           0
   79143 ION  1136 POT  POT  POT    1.000000       39.1020           0
   79144 ION  1137 POT  POT  POT    1.000000       39.1020           0
   79145 ION  1138 POT  POT  POT    1.000000       39.1020           0
   79146 ION  1139 POT  POT  POT    1.000000       39.1020           0
   79147 ION  1140 POT  POT  POT    1.000000       39.1020           0
   79148 ION  1141 POT  POT  POT    1.000000       39.1020           0
   79149 ION  1142 POT  POT  POT    1.000000       39.1020           0
   79150 ION  1143 POT  POT  POT    1.000000       39.1020           0
   79151 ION  1144 POT  POT  POT    1.000000       39.1020           0
   79152 ION  1145 POT  POT  POT    1.000000       39.1020           0
   79153 ION  1146 POT  POT  POT    1.000000       39.1020           0
   79154 ION  1147 POT  POT  POT    1.000000       39.1020           0
   79155 ION  1148 POT  POT  POT    1.000000       39.1020           0
   79156 ION  1149 POT  POT  POT    1.000000       39.1020           0
   79157 ION  1150 POT  POT  POT    1.000000       39.1020           0
   79158 ION  1151 POT  POT  POT    1.000000       39.1020           0
   79159 ION  1152 POT  POT  POT    1.000000       39.1020           0
   79160 ION  1153 POT  POT  POT    1.000000       39.1020           0
   79161 ION  1154 POT  POT  POT    1.000000       39.1020           0
   79162 ION  1155 POT  POT  POT    1.000000       39.1020           0
   79163 ION  1156 POT  POT  POT    1.000000       39.1020           0
   79164 ION  1157 POT  POT  POT    1.000000       39.1020           0
   79165 ION  1158 POT  POT  POT    1.000000       39.1020           0
   79166 ION  1159 POT  POT  POT    1.000000       39.1020           0
   79167 ION  1160 POT  POT  POT    1.000000       39.1020           0
   79168 ION  1161 POT  POT  POT    1.000000       39.1020           0
   79169 ION  1162 POT  POT  POT    1.000000       39.1020           0
   79170 ION  1163 POT  POT  POT    1.000000       39.1020           0
   79171 ION  1164 POT  POT  POT    1.000000       39.1020           0
   79172 ION  1165 POT  POT  POT    1.000000       39.1020           0
   79173 ION  1166 POT  POT  POT    1.000000       39.1020           0
   79174 ION  1167 POT  POT  POT    1.000000       39.1020           0
   79175 ION  1168 POT  POT  POT    1.000000       39.1020           0
   79176 ION  1169 POT  POT  POT    1.000000       39.1020           0
   79177 ION  1170 POT  POT  POT    1.000000       39.1020           0
   79178 ION  1171 POT  POT  POT    1.000000       39.1020           0
   79179 ION  1172 POT  POT  POT    1.000000       39.1020           0
   79180 ION  1173 POT  POT  POT    1.000000       39.1020           0
   79181 ION  1174 POT  POT  POT    1.000000       39.1020           0
   79182 ION  1175 POT  POT  POT    1.000000       39.1020           0
   79183 ION  1176 POT  POT  POT    1.000000       39.1020           0
   79184 ION  1177 POT  POT  POT    1.000000       39.1020           0
   79185 ION  1178 POT  POT  POT    1.000000       39.1020           0
   79186 ION  1179 POT  POT  POT    1.000000       39.1020           0
   79187 ION  1180 POT  POT  POT    1.000000       39.1020           0
   79188 ION  1181 POT  POT  POT    1.000000       39.1020           0
   79189 ION  1182 POT  POT  POT    1.000000       39.1020           0
   79190 ION  1183 POT  POT  POT    1.000000       39.1020           0
   79191 ION  1184 POT  POT  POT    1.000000       39.1020           0
   79192 ION  1185 POT  POT  POT    1.000000       39.1020           0
   79193 ION  1186 POT  POT  POT    1.000000       39.1020           0
   79194 ION  1187 POT  POT  POT    1.000000       39.1020           0
   79195 ION  1188 POT  POT  POT    1.000000       39.1020           0
   79196 ION  1189 POT  POT  POT    1.000000       39.1020           0
   79197 ION  1190 POT  POT  POT    1.000000       39.1020           0
   79198 ION  1191 POT  POT  POT    1.000000       39.1020           0
   79199 ION  1192 POT  POT  POT    1.000000       39.1020           0
   79200 ION  1193 POT  POT  POT    1.000000       39.1020           0
   79201 ION  1194 POT  POT  POT    1.000000       39.1020           0
   79202 ION  1195 POT  POT  POT    1.000000       39.1020           0
   79203 ION  1196 POT  POT  POT    1.000000       39.1020           0
   79204 ION  1197 POT  POT  POT    1.000000       39.1020           0
   79205 ION  1198 POT  POT  POT    1.000000       39.1020           0
   79206 ION  1199 POT  POT  POT    1.000000       39.1020           0
   79207 ION  1200 POT  POT  POT    1.000000       39.1020           0
   79208 ION  1201 POT  POT  POT    1.000000       39.1020           0
   79209 ION  1202 POT  POT  POT    1.000000       39.1020           0
   79210 ION  1203 POT  POT  POT    1.000000       39.1020           0
   79211 ION  1204 POT  POT  POT    1.000000       39.1020           0
   79212 ION  1205 POT  POT  POT    1.000000       39.1020           0
   79213 ION  1206 POT  POT  POT    1.000000       39.1020           0
   79214 ION  1207 POT  POT  POT    1.000000       39.1020           0
   79215 ION  1208 POT  POT  POT    1.000000       39.1020           0
   79216 ION  1209 POT  POT  POT    1.000000       39.1020           0
   79217 ION  1210 POT  POT  POT    1.000000       39.1020           0
   79218 ION  1211 POT  POT  POT    1.000000       39.1020           0
   79219 ION  1212 POT  POT  POT    1.000000       39.1020           0
   79220 ION  1213 POT  POT  POT    1.000000       39.1020           0
   79221 ION  1214 POT  POT  POT    1.000000       39.1020           0
   79222 ION  1215 POT  POT  POT    1.000000       39.1020           0
   79223 ION  1216 POT  POT  POT    1.000000       39.1020           0
   79224 ION  1217 POT  POT  POT    1.000000       39.1020           0
   79225 ION  1218 POT  POT  POT    1.000000       39.1020           0
   79226 ION  1219 POT  POT  POT    1.000000       39.1020           0
   79227 ION  1220 POT  POT  POT    1.000000       39.1020           0
   79228 ION  1221 POT  POT  POT    1.000000       39.1020           0
   79229 ION  1222 POT  POT  POT    1.000000       39.1020           0
   79230 ION  1223 POT  POT  POT    1.000000       39.1020           0
   79231 ION  1224 POT  POT  POT    1.000000       39.1020           0
   79232 ION  1225 POT  POT  POT    1.000000       39.1020           0
   79233 ION  1226 POT  POT  POT    1.000000       39.1020           0
   79234 ION  1227 POT  POT  POT    1.000000       39.1020           0
   79235 ION  1228 POT  POT  POT    1.000000       39.1020           0
   79236 ION  1229 POT  POT  POT    1.000000       39.1020           0
   79237 ION  1230 POT  POT  POT    1.000000       39.1020           0
   79238 ION  1231 POT  POT  POT    1.000000       39.1020           0
   79239 ION  1232 POT  POT  POT    1.000000       39.1020           0
   79240 ION  1233 POT  POT  POT    1.000000       39.1020           0
   79241 ION  1234 POT  POT  POT    1.000000       39.1020           0
   79242 ION  1235 POT  POT  POT    1.000000       39.1020           0
   79243 ION  1236 POT  POT  POT    1.000000       39.1020           0
   79244 ION  1237 POT  POT  POT    1.000000       39.1020           0
   79245 ION  1238 POT  POT  POT    1.000000       39.1020           0
   79246 ION  1239 POT  POT  POT    1.000000       39.1020           0
   79247 ION  1240 POT  POT  POT    1.000000       39.1020           0
   79248 ION  1241 POT  POT  POT    1.000000       39.1020           0
   79249 ION  1242 POT  POT  POT    1.000000       39.1020           0
   79250 ION  1243 POT  POT  POT    1.000000       39.1020           0
   79251 ION  1244 POT  POT  POT    1.000000       39.1020           0
   79252 ION  1245 POT  POT  POT    1.000000       39.1020           0
   79253 ION  1246 POT  POT  POT    1.000000       39.1020           0
   79254 ION  1247 POT  POT  POT    1.000000       39.1020           0
   79255 ION  1248 POT  POT  POT    1.000000       39.1020           0
   79256 ION  1249 POT  POT  POT    1.000000       39.1020           0
   79257 ION  1250 POT  POT  POT    1.000000       39.1020           0
   79258 ION  1251 POT  POT  POT    1.000000       39.1020           0
   79259 ION  1252 POT  POT  POT    1.000000       39.1020           0
   79260 ION  1253 POT  POT  POT    1.000000       39.1020           0
   79261 ION  1254 POT  POT  POT    1.000000       39.1020           0
   79262 ION  1255 POT  POT  POT    1.000000       39.1020           0
   79263 ION  1256 POT  POT  POT    1.000000       39.1020           0
   79264 ION  1257 POT  POT  POT    1.000000       39.1020           0
   79265 ION  1258 POT  POT  POT    1.000000       39.1020           0
   79266 ION  1259 POT  POT  POT    1.000000       39.1020           0
   79267 ION  1260 POT  POT  POT    1.000000       39.1020           0
   79268 ION  1261 POT  POT  POT    1.000000       39.1020           0
   79269 ION  1262 POT  POT  POT    1.000000       39.1020           0
   79270 ION  1263 POT  POT  POT    1.000000       39.1020           0
   79271 ION  1264 POT  POT  POT    1.000000       39.1020           0
   79272 ION  1265 POT  POT  POT    1.000000       39.1020           0
   79273 ION  1266 POT  POT  POT    1.000000       39.1020           0
   79274 ION  1267 POT  POT  POT    1.000000       39.1020           0
   79275 ION  1268 POT  POT  POT    1.000000       39.1020           0
   79276 ION  1269 POT  POT  POT    1.000000       39.1020           0
   79277 ION  1270 POT  POT  POT    1.000000       39.1020           0
   79278 ION  1271 POT  POT  POT    1.000000       39.1020           0
   79279 ION  1272 POT  POT  POT    1.000000       39.1020           0
   79280 ION  1273 POT  POT  POT    1.000000       39.1020           0
   79281 ION  1274 POT  POT  POT    1.000000       39.1020           0
   79282 ION  1275 POT  POT  POT    1.000000       39.1020           0
   79283 ION  1276 POT  POT  POT    1.000000       39.1020           0
   79284 ION  1277 POT  POT  POT    1.000000       39.1020           0
   79285 ION  1278 POT  POT  POT    1.000000       39.1020           0
   79286 ION  1279 POT  POT  POT    1.000000       39.1020           0
   79287 ION  1280 POT  POT  POT    1.000000       39.1020           0
   79288 ION  1281 POT  POT  POT    1.000000       39.1020           0
   79289 ION  1282 POT  POT  POT    1.000000       39.1020           0
   79290 ION  1283 POT  POT  POT    1.000000       39.1020           0
   79291 ION  1284 POT  POT  POT    1.000000       39.1020           0
   79292 ION  1285 POT  POT  POT    1.000000       39.1020           0
   79293 ION  1286 POT  POT  POT    1.000000       39.1020           0
   79294 ION  1287 POT  POT  POT    1.000000       39.1020           0
   79295 ION  1288 POT  POT  POT    1.000000       39.1020           0
   79296 ION  1289 POT  POT  POT    1.000000       39.1020           0
   79297 ION  1290 POT  POT  POT    1.000000       39.1020           0
   79298 ION  1291 POT  POT  POT    1.000000       39.1020           0
   79299 ION  1292 POT  POT  POT    1.000000       39.1020           0
   79300 ION  1293 POT  POT  POT    1.000000       39.1020           0
   79301 ION  1294 POT  POT  POT    1.000000       39.1020           0
   79302 ION  1295 POT  POT  POT    1.000000       39.1020           0
   79303 ION  1296 POT  POT  POT    1.000000       39.1020           0
   79304 ION  1297 POT  POT  POT    1.000000       39.1020           0
   79305 ION  1298 POT  POT  POT    1.000000       39.1020           0
   79306 ION  1299 POT  POT  POT    1.000000       39.1020           0
   79307 ION  1300 POT  POT  POT    1.000000       39.1020           0
   79308 ION  1301 POT  POT  POT    1.000000       39.1020           0
   79309 ION  1302 POT  POT  POT    1.000000       39.1020           0
   79310 ION  1303 POT  POT  POT    1.000000       39.1020           0
   79311 ION  1304 POT  POT  POT    1.000000       39.1020           0
   79312 ION  1305 POT  POT  POT    1.000000       39.1020           0
   79313 ION  1306 POT  POT  POT    1.000000       39.1020           0
   79314 ION  1307 POT  POT  POT    1.000000       39.1020           0
   79315 ION  1308 POT  POT  POT    1.000000       39.1020           0
   79316 ION  1309 POT  POT  POT    1.000000       39.1020           0
   79317 ION  1310 POT  POT  POT    1.000000       39.1020           0
   79318 ION  1311 POT  POT  POT    1.000000       39.1020           0
   79319 ION  1312 POT  POT  POT    1.000000       39.1020           0
   79320 ION  1313 POT  POT  POT    1.000000       39.1020           0
   79321 ION  1314 POT  POT  POT    1.000000       39.1020           0
   79322 ION  1315 POT  POT  POT    1.000000       39.1020           0
   79323 ION  1316 POT  POT  POT    1.000000       39.1020           0
   79324 ION  1317 POT  POT  POT    1.000000       39.1020           0
   79325 ION  1318 POT  POT  POT    1.000000       39.1020           0
   79326 ION  1319 POT  POT  POT    1.000000       39.1020           0
   79327 ION  1320 POT  POT  POT    1.000000       39.1020           0
   79328 ION  1321 POT  POT  POT    1.000000       39.1020           0
   79329 ION  1322 POT  POT  POT    1.000000       39.1020           0
   79330 ION  1323 POT  POT  POT    1.000000       39.1020           0
   79331 ION  1324 POT  POT  POT    1.000000       39.1020           0
   79332 ION  1325 POT  POT  POT    1.000000       39.1020           0
   79333 ION  1326 POT  POT  POT    1.000000       39.1020           0
   79334 ION  1327 POT  POT  POT    1.000000       39.1020           0
   79335 ION  1328 POT  POT  POT    1.000000       39.1020           0
   79336 ION  1329 POT  POT  POT    1.000000       39.1020           0
   79337 ION  1330 POT  POT  POT    1.000000       39.1020           0
   79338 ION  1331 POT  POT  POT    1.000000       39.1020           0
   79339 ION  1332 POT  POT  POT    1.000000       39.1020           0
   79340 ION  1333 POT  POT  POT    1.000000       39.1020           0
   79341 ION  1334 POT  POT  POT    1.000000       39.1020           0
   79342 ION  1335 POT  POT  POT    1.000000       39.1020           0
   79343 ION  1336 POT  POT  POT    1.000000       39.1020           0
   79344 ION  1337 POT  POT  POT    1.000000       39.1020           0
   79345 ION  1338 POT  POT  POT    1.000000       39.1020           0
   79346 ION  1339 POT  POT  POT    1.000000       39.1020           0
   79347 ION  1340 POT  POT  POT    1.000000       39.1020           0
   79348 ION  1341 POT  POT  POT    1.000000       39.1020           0
   79349 ION  1342 POT  POT  POT    1.000000       39.1020           0
   79350 ION  1343 POT  POT  POT    1.000000       39.1020           0
   79351 ION  1344 POT  POT  POT    1.000000       39.1020           0
   79352 ION  1345 POT  POT  POT    1.000000       39.1020           0
   79353 ION  1346 POT  POT  POT    1.000000       39.1020           0
   79354 ION  1347 POT  POT  POT    1.000000       39.1020           0
   79355 ION  1348 POT  POT  POT    1.000000       39.1020           0
   79356 ION  1349 POT  POT  POT    1.000000       39.1020           0
   79357 ION  1350 POT  POT  POT    1.000000       39.1020           0
   79358 ION  1351 POT  POT  POT    1.000000       39.1020           0
   79359 ION  1352 POT  POT  POT    1.000000       39.1020           0
   79360 ION  1353 POT  POT  POT    1.000000       39.1020           0
   79361 ION  1354 POT  POT  POT    1.000000       39.1020           0
   79362 ION  1355 POT  POT  POT    1.000000       39.1020           0
   79363 ION  1356 POT  POT  POT    1.000000       39.1020           0
   79364 ION  1357 POT  POT  POT    1.000000       39.1020           0
   79365 ION  1358 POT  POT  POT    1.000000       39.1020           0
   79366 ION  1359 POT  POT  POT    1.000000       39.1020           0
   79367 ION  1360 POT  POT  POT    1.000000       39.1020           0
   79368 ION  1361 POT  POT  POT    1.000000       39.1020           0
   79369 ION  1362 POT  POT  POT    1.000000       39.1020           0
   79370 ION  1363 POT  POT  POT    1.000000       39.1020           0
   79371 ION  1364 POT  POT  POT    1.000000       39.1020           0
   79372 ION  1365 POT  POT  POT    1.000000       39.1020           0
   79373 ION  1366 POT  POT  POT    1.000000       39.1020           0
   79374 ION  1367 POT  POT  POT    1.000000       39.1020           0
   79375 ION  1368 POT  POT  POT    1.000000       39.1020           0
   79376 ION  1369 POT  POT  POT    1.000000       39.1020           0
   79377 ION  1370 POT  POT  POT    1.000000       39.1020           0
   79378 ION  1371 POT  POT  POT    1.000000       39.1020           0
   79379 ION  1372 POT  POT  POT    1.000000       39.1020           0
   79380 ION  1373 POT  POT  POT    1.000000       39.1020           0
   79381 ION  1374 POT  POT  POT    1.000000       39.1020           0
   79382 ION  1375 POT  POT  POT    1.000000       39.1020           0
   79383 ION  1376 POT  POT  POT    1.000000       39.1020           0
   79384 ION  1377 POT  POT  POT    1.000000       39.1020           0
   79385 ION  1378 POT  POT  POT    1.000000       39.1020           0
   79386 ION  1379 POT  POT  POT    1.000000       39.1020           0
   79387 ION  1380 POT  POT  POT    1.000000       39.1020           0
   79388 ION  1381 POT  POT  POT    1.000000       39.1020           0
   79389 ION  1382 POT  POT  POT    1.000000       39.1020           0
   79390 ION  1383 POT  POT  POT    1.000000       39.1020           0
   79391 ION  1384 POT  POT  POT    1.000000       39.1020           0
   79392 ION  1385 POT  POT  POT    1.000000       39.1020           0
   79393 ION  1386 POT  POT  POT    1.000000       39.1020           0
   79394 ION  1387 POT  POT  POT    1.000000       39.1020           0
   79395 ION  1388 POT  POT  POT    1.000000       39.1020           0
   79396 ION  1389 POT  POT  POT    1.000000       39.1020           0
   79397 ION  1390 POT  POT  POT    1.000000       39.1020           0
   79398 ION  1391 POT  POT  POT    1.000000       39.1020           0
   79399 ION  1392 POT  POT  POT    1.000000       39.1020           0
   79400 ION  1393 POT  POT  POT    1.000000       39.1020           0
   79401 ION  1394 POT  POT  POT    1.000000       39.1020           0
   79402 ION  1395 POT  POT  POT    1.000000       39.1020           0
   79403 ION  1396 POT  POT  POT    1.000000       39.1020           0
   79404 ION  1397 POT  POT  POT    1.000000       39.1020           0
   79405 ION  1398 POT  POT  POT    1.000000       39.1020           0
   79406 ION  1399 POT  POT  POT    1.000000       39.1020           0
   79407 ION  1400 POT  POT  POT    1.000000       39.1020           0
   79408 ION  1401 POT  POT  POT    1.000000       39.1020           0
   79409 ION  1402 POT  POT  POT    1.000000       39.1020           0
   79410 ION  1403 POT  POT  POT    1.000000       39.1020           0
   79411 ION  1404 POT  POT  POT    1.000000       39.1020           0
   79412 ION  1405 POT  POT  POT    1.000000       39.1020           0
   79413 ION  1406 POT  POT  POT    1.000000       39.1020           0
   79414 ION  1407 POT  POT  POT    1.000000       39.1020           0
   79415 ION  1408 POT  POT  POT    1.000000       39.1020           0
   79416 ION  1409 POT  POT  POT    1.000000       39.1020           0
   79417 ION  1410 POT  POT  POT    1.000000       39.1020           0
   79418 ION  1411 POT  POT  POT    1.000000       39.1020           0
   79419 ION  1412 POT  POT  POT    1.000000       39.1020           0
   79420 ION  1413 POT  POT  POT    1.000000       39.1020           0
   79421 ION  1414 POT  POT  POT    1.000000       39.1020           0
   79422 ION  1415 POT  POT  POT    1.000000       39.1020           0
   79423 ION  1416 POT  POT  POT    1.000000       39.1020           0
   79424 ION  1417 POT  POT  POT    1.000000       39.1020           0
   79425 ION  1418 POT  POT  POT    1.000000       39.1020           0
   79426 ION  1419 POT  POT  POT    1.000000       39.1020           0
   79427 ION  1420 POT  POT  POT    1.000000       39.1020           0
   79428 ION  1421 POT  POT  POT    1.000000       39.1020           0
   79429 ION  1422 POT  POT  POT    1.000000       39.1020           0
   79430 ION  1423 POT  POT  POT    1.000000       39.1020           0
   79431 ION  1424 POT  POT  POT    1.000000       39.1020           0
   79432 ION  1425 POT  POT  POT    1.000000       39.1020           0
   79433 ION  1426 POT  POT  POT    1.000000       39.1020           0
   79434 ION  1427 POT  POT  POT    1.000000       39.1020           0
   79435 ION  1428 POT  POT  POT    1.000000       39.1020           0
   79436 ION  1429 POT  POT  POT    1.000000       39.1020           0
   79437 ION  1430 POT  POT  POT    1.000000       39.1020           0
   79438 ION  1431 POT  POT  POT    1.000000       39.1020           0
   79439 ION  1432 POT  POT  POT    1.000000       39.1020           0
   79440 ION  1433 POT  POT  POT    1.000000       39.1020           0
   79441 ION  1434 POT  POT  POT    1.000000       39.1020           0
   79442 ION  1435 POT  POT  POT    1.000000       39.1020           0
   79443 ION  1436 POT  POT  POT    1.000000       39.1020           0
   79444 ION  1437 POT  POT  POT    1.000000       39.1020           0
   79445 ION  1438 POT  POT  POT    1.000000       39.1020           0
   79446 ION  1439 POT  POT  POT    1.000000       39.1020           0
   79447 ION  1440 POT  POT  POT    1.000000       39.1020           0
   79448 ION  1441 POT  POT  POT    1.000000       39.1020           0
   79449 ION  1442 POT  POT  POT    1.000000       39.1020           0
   79450 ION  1443 POT  POT  POT    1.000000       39.1020           0
   79451 ION  1444 POT  POT  POT    1.000000       39.1020           0
   79452 ION  1445 POT  POT  POT    1.000000       39.1020           0
   79453 ION  1446 POT  POT  POT    1.000000       39.1020           0
   79454 ION  1447 POT  POT  POT    1.000000       39.1020           0
   79455 ION  1448 POT  POT  POT    1.000000       39.1020           0
   79456 ION  1449 POT  POT  POT    1.000000       39.1020           0
   79457 ION  1450 POT  POT  POT    1.000000       39.1020           0
   79458 ION  1451 POT  POT  POT    1.000000       39.1020           0
   79459 ION  1452 POT  POT  POT    1.000000       39.1020           0
   79460 ION  1453 POT  POT  POT    1.000000       39.1020           0
   79461 ION  1454 POT  POT  POT    1.000000       39.1020           0
   79462 ION  1455 POT  POT  POT    1.000000       39.1020           0
   79463 ION  1456 POT  POT  POT    1.000000       39.1020           0
   79464 ION  1457 POT  POT  POT    1.000000       39.1020           0
   79465 ION  1458 POT  POT  POT    1.000000       39.1020           0
   79466 ION  1459 POT  POT  POT    1.000000       39.1020           0
   79467 ION  1460 POT  POT  POT    1.000000       39.1020           0
   79468 ION  1461 POT  POT  POT    1.000000       39.1020           0
   79469 ION  1462 POT  POT  POT    1.000000       39.1020           0
   79470 ION  1463 POT  POT  POT    1.000000       39.1020           0
   79471 ION  1464 POT  POT  POT    1.000000       39.1020           0
   79472 ION  1465 POT  POT  POT    1.000000       39.1020           0
   79473 ION  1466 POT  POT  POT    1.000000       39.1020           0
   79474 ION  1467 POT  POT  POT    1.000000       39.1020           0
   79475 ION  1468 POT  POT  POT    1.000000       39.1020           0
   79476 ION  1469 POT  POT  POT    1.000000       39.1020           0
   79477 ION  1470 POT  POT  POT    1.000000       39.1020           0
   79478 ION  1471 POT  POT  POT    1.000000       39.1020           0
   79479 ION  1472 POT  POT  POT    1.000000       39.1020           0
   79480 ION  1473 POT  POT  POT    1.000000       39.1020           0
   79481 ION  1474 POT  POT  POT    1.000000       39.1020           0
   79482 ION  1475 POT  POT  POT    1.000000       39.1020           0
   79483 ION  1476 POT  POT  POT    1.000000       39.1020           0
   79484 ION  1477 POT  POT  POT    1.000000       39.1020           0
   79485 ION  1478 POT  POT  POT    1.000000       39.1020           0
   79486 ION  1479 POT  POT  POT    1.000000       39.1020           0
   79487 ION  1480 POT  POT  POT    1.000000       39.1020           0
   79488 ION  1481 POT  POT  POT    1.000000       39.1020           0
   79489 ION  1482 POT  POT  POT    1.000000       39.1020           0
   79490 ION  1483 POT  POT  POT    1.000000       39.1020           0
   79491 ION  1484 POT  POT  POT    1.000000       39.1020           0
   79492 ION  1485 POT  POT  POT    1.000000       39.1020           0
   79493 ION  1486 POT  POT  POT    1.000000       39.1020           0
   79494 ION  1487 POT  POT  POT    1.000000       39.1020           0
   79495 ION  1488 POT  POT  POT    1.000000       39.1020           0
   79496 ION  1489 POT  POT  POT    1.000000       39.1020           0
   79497 ION  1490 POT  POT  POT    1.000000       39.1020           0
   79498 ION  1491 POT  POT  POT    1.000000       39.1020           0
   79499 ION  1492 POT  POT  POT    1.000000       39.1020           0
   79500 ION  1493 POT  POT  POT    1.000000       39.1020           0
   79501 ION  1494 POT  POT  POT    1.000000       39.1020           0
   79502 ION  1495 POT  POT  POT    1.000000       39.1020           0
   79503 ION  1496 POT  POT  POT    1.000000       39.1020           0
   79504 ION  1497 POT  POT  POT    1.000000       39.1020           0
   79505 ION  1498 POT  POT  POT    1.000000       39.1020           0
   79506 ION  1499 POT  POT  POT    1.000000       39.1020           0
   79507 ION  1500 POT  POT  POT    1.000000       39.1020           0
   79508 ION  1501 POT  POT  POT    1.000000       39.1020           0
   79509 ION  1502 POT  POT  POT    1.000000       39.1020           0
   79510 ION  1503 POT  POT  POT    1.000000       39.1020           0
   79511 ION  1504 POT  POT  POT    1.000000       39.1020           0
   79512 ION  1505 POT  POT  POT    1.000000       39.1020           0
   79513 ION  1506 POT  POT  POT    1.000000       39.1020           0
   79514 ION  1507 POT  POT  POT    1.000000       39.1020           0
   79515 ION  1508 POT  POT  POT    1.000000       39.1020           0
   79516 ION  1509 POT  POT  POT    1.000000       39.1020           0
   79517 ION  1510 POT  POT  POT    1.000000       39.1020           0
   79518 ION  1511 POT  POT  POT    1.000000       39.1020           0
   79519 ION  1512 POT  POT  POT    1.000000       39.1020           0
   79520 ION  1513 POT  POT  POT    1.000000       39.1020           0
   79521 ION  1514 POT  POT  POT    1.000000       39.1020           0
   79522 ION  1515 POT  POT  POT    1.000000       39.1020           0
   79523 ION  1516 POT  POT  POT    1.000000       39.1020           0
   79524 ION  1517 POT  POT  POT    1.000000       39.1020           0
   79525 ION  1518 POT  POT  POT    1.000000       39.1020           0
   79526 ION  1519 POT  POT  POT    1.000000       39.1020           0
   79527 ION  1520 POT  POT  POT    1.000000       39.1020           0
   79528 ION  1521 POT  POT  POT    1.000000       39.1020           0
   79529 ION  1522 POT  POT  POT    1.000000       39.1020           0
   79530 ION  1523 POT  POT  POT    1.000000       39.1020           0
   79531 ION  1524 POT  POT  POT    1.000000       39.1020           0
   79532 ION  1525 POT  POT  POT    1.000000       39.1020           0
   79533 ION  1526 POT  POT  POT    1.000000       39.1020           0
   79534 ION  1527 POT  POT  POT    1.000000       39.1020           0
   79535 ION  1528 POT  POT  POT    1.000000       39.1020           0
   79536 ION  1529 POT  POT  POT    1.000000       39.1020           0
   79537 ION  1530 POT  POT  POT    1.000000       39.1020           0
   79538 ION  1531 POT  POT  POT    1.000000       39.1020           0
   79539 ION  1532 POT  POT  POT    1.000000       39.1020           0
   79540 ION  1533 POT  POT  POT    1.000000       39.1020           0
   79541 ION  1534 POT  POT  POT    1.000000       39.1020           0
   79542 ION  1535 POT  POT  POT    1.000000       39.1020           0
   79543 ION  1536 POT  POT  POT    1.000000       39.1020           0
   79544 ION  1537 POT  POT  POT    1.000000       39.1020           0
   79545 ION  1538 POT  POT  POT    1.000000       39.1020           0
   79546 ION  1539 POT  POT  POT    1.000000       39.1020           0
   79547 ION  1540 POT  POT  POT    1.000000       39.1020           0
   79548 ION  1541 POT  POT  POT    1.000000       39.1020           0
   79549 ION  1542 POT  POT  POT    1.000000       39.1020           0
   79550 ION  1543 POT  POT  POT    1.000000       39.1020           0
   79551 ION  1544 POT  POT  POT    1.000000       39.1020           0
   79552 ION  1545 POT  POT  POT    1.000000       39.1020           0
   79553 ION  1546 POT  POT  POT    1.000000       39.1020           0
   79554 ION  1547 POT  POT  POT    1.000000       39.1020           0
   79555 ION  1548 POT  POT  POT    1.000000       39.1020           0
   79556 ION  1549 POT  POT  POT    1.000000       39.1020           0
   79557 ION  1550 POT  POT  POT    1.000000       39.1020           0
   79558 ION  1551 POT  POT  POT    1.000000       39.1020           0
   79559 ION  1552 POT  POT  POT    1.000000       39.1020           0
   79560 ION  1553 POT  POT  POT    1.000000       39.1020           0
   79561 ION  1554 POT  POT  POT    1.000000       39.1020           0
   79562 ION  1555 POT  POT  POT    1.000000       39.1020           0
   79563 ION  1556 POT  POT  POT    1.000000       39.1020           0
   79564 ION  1557 POT  POT  POT    1.000000       39.1020           0
   79565 ION  1558 POT  POT  POT    1.000000       39.1020           0
   79566 ION  1559 POT  POT  POT    1.000000       39.1020           0
   79567 ION  1560 POT  POT  POT    1.000000       39.1020           0
   79568 ION  1561 POT  POT  POT    1.000000       39.1020           0
   79569 ION  1562 POT  POT  POT    1.000000       39.1020           0
   79570 ION  1563 POT  POT  POT    1.000000       39.1020           0
   79571 ION  1564 POT  POT  POT    1.000000       39.1020           0
   79572 ION  1565 POT  POT  POT    1.000000       39.1020           0
   79573 ION  1566 POT  POT  POT    1.000000       39.1020           0
   79574 ION  1567 POT  POT  POT    1.000000       39.1020           0
   79575 ION  1568 POT  POT  POT    1.000000       39.1020           0
   79576 ION  1569 POT  POT  POT    1.000000       39.1020           0
   79577 ION  1570 POT  POT  POT    1.000000       39.1020           0
   79578 ION  1571 POT  POT  POT    1.000000       39.1020           0
   79579 ION  1572 POT  POT  POT    1.000000       39.1020           0
   79580 ION  1573 POT  POT  POT    1.000000       39.1020           0
   79581 ION  1574 POT  POT  POT    1.000000       39.1020           0
   79582 ION  1575 POT  POT  POT    1.000000       39.1020           0
   79583 ION  1576 POT  POT  POT    1.000000       39.1020           0
   79584 ION  1577 POT  POT  POT    1.000000       39.1020           0
   79585 ION  1578 POT  POT  POT    1.000000       39.1020           0
   79586 ION  1579 POT  POT  POT    1.000000       39.1020           0
   79587 ION  1580 POT  POT  POT    1.000000       39.1020           0
   79588 ION  1581 POT  POT  POT    1.000000       39.1020           0
   79589 ION  1582 POT  POT  POT    1.000000       39.1020           0
   79590 ION  1583 POT  POT  POT    1.000000       39.1020           0
   79591 ION  1584 POT  POT  POT    1.000000       39.1020           0
   79592 ION  1585 POT  POT  POT    1.000000       39.1020           0
   79593 ION  1586 POT  POT  POT    1.000000       39.1020           0
   79594 ION  1587 POT  POT  POT    1.000000       39.1020           0
   79595 ION  1588 POT  POT  POT    1.000000       39.1020           0
   79596 ION  1589 POT  POT  POT    1.000000       39.1020           0
   79597 ION  1590 POT  POT  POT    1.000000       39.1020           0
   79598 ION  1591 POT  POT  POT    1.000000       39.1020           0
   79599 ION  1592 POT  POT  POT    1.000000       39.1020           0
   79600 ION  1593 POT  POT  POT    1.000000       39.1020           0
   79601 ION  1594 POT  POT  POT    1.000000       39.1020           0
   79602 ION  1595 POT  POT  POT    1.000000       39.1020           0
   79603 ION  1596 POT  POT  POT    1.000000       39.1020           0
   79604 ION  1597 POT  POT  POT    1.000000       39.1020           0
   79605 ION  1598 POT  POT  POT    1.000000       39.1020           0
   79606 ION  1599 POT  POT  POT    1.000000       39.1020           0
   79607 ION  1600 POT  POT  POT    1.000000       39.1020           0
   79608 ION  1601 POT  POT  POT    1.000000       39.1020           0
   79609 ION  1602 POT  POT  POT    1.000000       39.1020           0
   79610 ION  1603 POT  POT  POT    1.000000       39.1020           0
   79611 ION  1604 POT  POT  POT    1.000000       39.1020           0
   79612 ION  1605 POT  POT  POT    1.000000       39.1020           0
   79613 ION  1606 POT  POT  POT    1.000000       39.1020           0
   79614 ION  1607 POT  POT  POT    1.000000       39.1020           0
   79615 ION  1608 POT  POT  POT    1.000000       39.1020           0
   79616 ION  1609 POT  POT  POT    1.000000       39.1020           0
   79617 ION  1610 POT  POT  POT    1.000000       39.1020           0
   79618 ION  1611 POT  POT  POT    1.000000       39.1020           0
   79619 ION  1612 POT  POT  POT    1.000000       39.1020           0
   79620 ION  1613 POT  POT  POT    1.000000       39.1020           0
   79621 ION  1614 POT  POT  POT    1.000000       39.1020           0
   79622 ION  1615 POT  POT  POT    1.000000       39.1020           0
   79623 ION  1616 POT  POT  POT    1.000000       39.1020           0
   79624 ION  1617 POT  POT  POT    1.000000       39.1020           0
   79625 ION  1618 POT  POT  POT    1.000000       39.1020           0
   79626 ION  1619 POT  POT  POT    1.000000       39.1020           0
   79627 ION  1620 POT  POT  POT    1.000000       39.1020           0
   79628 ION  1621 POT  POT  POT    1.000000       39.1020           0
   79629 ION  1622 POT  POT  POT    1.000000       39.1020           0
   79630 ION  1623 POT  POT  POT    1.000000       39.1020           0
   79631 ION  1624 POT  POT  POT    1.000000       39.1020           0
   79632 ION  1625 POT  POT  POT    1.000000       39.1020           0
   79633 ION  1626 POT  POT  POT    1.000000       39.1020           0
   79634 ION  1627 POT  POT  POT    1.000000       39.1020           0
   79635 ION  1628 POT  POT  POT    1.000000       39.1020           0
   79636 ION  1629 POT  POT  POT    1.000000       39.1020           0
   79637 ION  1630 POT  POT  POT    1.000000       39.1020           0
   79638 ION  1631 POT  POT  POT    1.000000       39.1020           0
   79639 ION  1632 POT  POT  POT    1.000000       39.1020           0
   79640 ION  1633 POT  POT  POT    1.000000       39.1020           0
   79641 ION  1634 POT  POT  POT    1.000000       39.1020           0
   79642 ION  1635 POT  POT  POT    1.000000       39.1020           0
   79643 ION  1636 POT  POT  POT    1.000000       39.1020           0
   79644 ION  1637 POT  POT  POT    1.000000       39.1020           0
   79645 ION  1638 POT  POT  POT    1.000000       39.1020           0
   79646 ION  1639 POT  POT  POT    1.000000       39.1020           0
   79647 ION  1640 POT  POT  POT    1.000000       39.1020           0
   79648 ION  1641 POT  POT  POT    1.000000       39.1020           0
   79649 ION  1642 POT  POT  POT    1.000000       39.1020           0
   79650 ION  1643 POT  POT  POT    1.000000       39.1020           0
   79651 ION  1644 POT  POT  POT    1.000000       39.1020           0
   79652 ION  1645 POT  POT  POT    1.000000       39.1020           0
   79653 ION  1646 POT  POT  POT    1.000000       39.1020           0
   79654 ION  1647 POT  POT  POT    1.000000       39.1020           0
   79655 ION  1648 POT  POT  POT    1.000000       39.1020           0
   79656 ION  1649 POT  POT  POT    1.000000       39.1020           0
   79657 ION  1650 POT  POT  POT    1.000000       39.1020           0
   79658 ION  1651 POT  POT  POT    1.000000       39.1020           0
   79659 ION  1652 POT  POT  POT    1.000000       39.1020           0
   79660 ION  1653 POT  POT  POT    1.000000       39.1020           0
   79661 ION  1654 POT  POT  POT    1.000000       39.1020           0
   79662 ION  1655 POT  POT  POT    1.000000       39.1020           0
   79663 ION  1656 POT  POT  POT    1.000000       39.1020           0
   79664 ION  1657 POT  POT  POT    1.000000       39.1020           0
   79665 ION  1658 POT  POT  POT    1.000000       39.1020           0
   79666 ION  1659 CLA  CLA  CLA   -1.000000       35.4500           0
   79667 ION  1660 CLA  CLA  CLA   -1.000000       35.4500           0
   79668 ION  1661 CLA  CLA  CLA   -1.000000       35.4500           0
   79669 ION  1662 CLA  CLA  CLA   -1.000000       35.4500           0
   79670 ION  1663 CLA  CLA  CLA   -1.000000       35.4500           0
   79671 ION  1664 CLA  CLA  CLA   -1.000000       35.4500           0
   79672 ION  1665 CLA  CLA  CLA   -1.000000       35.4500           0
   79673 ION  1666 CLA  CLA  CLA   -1.000000       35.4500           0
   79674 ION  1667 CLA  CLA  CLA   -1.000000       35.4500           0
   79675 ION  1668 CLA  CLA  CLA   -1.000000       35.4500           0
   79676 ION  1669 CLA  CLA  CLA   -1.000000       35.4500           0
   79677 ION  1670 CLA  CLA  CLA   -1.000000       35.4500           0
   79678 ION  1671 CLA  CLA  CLA   -1.000000       35.4500           0
   79679 ION  1672 CLA  CLA  CLA   -1.000000       35.4500           0
   79680 ION  1673 CLA  CLA  CLA   -1.000000       35.4500           0
   79681 ION  1674 CLA  CLA  CLA   -1.000000       35.4500           0
   79682 ION  1675 CLA  CLA  CLA   -1.000000       35.4500           0
   79683 ION  1676 CLA  CLA  CLA   -1.000000       35.4500           0
   79684 ION  1677 CLA  CLA  CLA   -1.000000       35.4500           0
   79685 ION  1678 CLA  CLA  CLA   -1.000000       35.4500           0
   79686 ION  1679 CLA  CLA  CLA   -1.000000       35.4500           0
   79687 ION  1680 CLA  CLA  CLA   -1.000000       35.4500           0
   79688 ION  1681 CLA  CLA  CLA   -1.000000       35.4500           0
   79689 ION  1682 CLA  CLA  CLA   -1.000000       35.4500           0
   79690 ION  1683 CLA  CLA  CLA   -1.000000       35.4500           0
   79691 ION  1684 CLA  CLA  CLA   -1.000000       35.4500           0
   79692 ION  1685 CLA  CLA  CLA   -1.000000       35.4500           0
   79693 ION  1686 CLA  CLA  CLA   -1.000000       35.4500           0
   79694 ION  1687 CLA  CLA  CLA   -1.000000       35.4500           0
   79695 ION  1688 CLA  CLA  CLA   -1.000000       35.4500           0
   79696 ION  1689 CLA  CLA  CLA   -1.000000       35.4500           0
   79697 ION  1690 CLA  CLA  CLA   -1.000000       35.4500           0
   79698 ION  1691 CLA  CLA  CLA   -1.000000       35.4500           0
   79699 ION  1692 CLA  CLA  CLA   -1.000000       35.4500           0
   79700 ION  1693 CLA  CLA  CLA   -1.000000       35.4500           0
   79701 ION  1694 CLA  CLA  CLA   -1.000000       35.4500           0
   79702 ION  1695 CLA  CLA  CLA   -1.000000       35.4500           0
   79703 ION  1696 CLA  CLA  CLA   -1.000000       35.4500           0
   79704 ION  1697 CLA  CLA  CLA   -1.000000       35.4500           0
   79705 ION  1698 CLA  CLA  CLA   -1.000000       35.4500           0
   79706 ION  1699 CLA  CLA  CLA   -1.000000       35.4500           0
   79707 ION  1700 CLA  CLA  CLA   -1.000000       35.4500           0
   79708 ION  1701 CLA  CLA  CLA   -1.000000       35.4500           0
   79709 ION  1702 CLA  CLA  CLA   -1.000000       35.4500           0
   79710 ION  1703 CLA  CLA  CLA   -1.000000       35.4500           0
   79711 ION  1704 CLA  CLA  CLA   -1.000000       35.4500           0
   79712 ION  1705 CLA  CLA  CLA   -1.000000       35.4500           0
   79713 ION  1706 CLA  CLA  CLA   -1.000000       35.4500           0
   79714 ION  1707 CLA  CLA  CLA   -1.000000       35.4500           0
   79715 ION  1708 CLA  CLA  CLA   -1.000000       35.4500           0
   79716 ION  1709 CLA  CLA  CLA   -1.000000       35.4500           0
   79717 ION  1710 CLA  CLA  CLA   -1.000000       35.4500           0
   79718 ION  1711 CLA  CLA  CLA   -1.000000       35.4500           0
   79719 ION  1712 CLA  CLA  CLA   -1.000000       35.4500           0
   79720 ION  1713 CLA  CLA  CLA   -1.000000       35.4500           0
   79721 ION  1714 CLA  CLA  CLA   -1.000000       35.4500           0
   79722 ION  1715 CLA  CLA  CLA   -1.000000       35.4500           0
   79723 ION  1716 CLA  CLA  CLA   -1.000000       35.4500           0
   79724 ION  1717 CLA  CLA  CLA   -1.000000       35.4500           0
   79725 ION  1718 CLA  CLA  CLA   -1.000000       35.4500           0
   79726 ION  1719 CLA  CLA  CLA   -1.000000       35.4500           0
   79727 ION  1720 CLA  CLA  CLA   -1.000000       35.4500           0
   79728 ION  1721 CLA  CLA  CLA   -1.000000       35.4500           0
   79729 ION  1722 CLA  CLA  CLA   -1.000000       35.4500           0
   79730 ION  1723 CLA  CLA  CLA   -1.000000       35.4500           0
   79731 ION  1724 CLA  CLA  CLA   -1.000000       35.4500           0
   79732 ION  1725 CLA  CLA  CLA   -1.000000       35.4500           0
   79733 ION  1726 CLA  CLA  CLA   -1.000000       35.4500           0
   79734 ION  1727 CLA  CLA  CLA   -1.000000       35.4500           0
   79735 ION  1728 CLA  CLA  CLA   -1.000000       35.4500           0
   79736 ION  1729 CLA  CLA  CLA   -1.000000       35.4500           0
   79737 ION  1730 CLA  CLA  CLA   -1.000000       35.4500           0
   79738 ION  1731 CLA  CLA  CLA   -1.000000       35.4500           0
   79739 ION  1732 CLA  CLA  CLA   -1.000000       35.4500           0
   79740 ION  1733 CLA  CLA  CLA   -1.000000       35.4500           0
   79741 ION  1734 CLA  CLA  CLA   -1.000000       35.4500           0
   79742 ION  1735 CLA  CLA  CLA   -1.000000       35.4500           0
   79743 ION  1736 CLA  CLA  CLA   -1.000000       35.4500           0
   79744 ION  1737 CLA  CLA  CLA   -1.000000       35.4500           0
   79745 ION  1738 CLA  CLA  CLA   -1.000000       35.4500           0
   79746 ION  1739 CLA  CLA  CLA   -1.000000       35.4500           0
   79747 ION  1740 CLA  CLA  CLA   -1.000000       35.4500           0
   79748 ION  1741 CLA  CLA  CLA   -1.000000       35.4500           0
   79749 ION  1742 CLA  CLA  CLA   -1.000000       35.4500           0
   79750 ION  1743 CLA  CLA  CLA   -1.000000       35.4500           0
   79751 ION  1744 CLA  CLA  CLA   -1.000000       35.4500           0
   79752 ION  1745 CLA  CLA  CLA   -1.000000       35.4500           0
   79753 ION  1746 CLA  CLA  CLA   -1.000000       35.4500           0
   79754 ION  1747 CLA  CLA  CLA   -1.000000       35.4500           0
   79755 ION  1748 CLA  CLA  CLA   -1.000000       35.4500           0
   79756 ION  1749 CLA  CLA  CLA   -1.000000       35.4500           0
   79757 ION  1750 CLA  CLA  CLA   -1.000000       35.4500           0
   79758 ION  1751 CLA  CLA  CLA   -1.000000       35.4500           0
   79759 ION  1752 CLA  CLA  CLA   -1.000000       35.4500           0
   79760 ION  1753 CLA  CLA  CLA   -1.000000       35.4500           0
   79761 ION  1754 CLA  CLA  CLA   -1.000000       35.4500           0
   79762 ION  1755 CLA  CLA  CLA   -1.000000       35.4500           0
   79763 ION  1756 CLA  CLA  CLA   -1.000000       35.4500           0
   79764 ION  1757 CLA  CLA  CLA   -1.000000       35.4500           0
   79765 ION  1758 CLA  CLA  CLA   -1.000000       35.4500           0
   79766 ION  1759 CLA  CLA  CLA   -1.000000       35.4500           0
   79767 ION  1760 CLA  CLA  CLA   -1.000000       35.4500           0
   79768 ION  1761 CLA  CLA  CLA   -1.000000       35.4500           0
   79769 ION  1762 CLA  CLA  CLA   -1.000000       35.4500           0
   79770 ION  1763 CLA  CLA  CLA   -1.000000       35.4500           0
   79771 ION  1764 CLA  CLA  CLA   -1.000000       35.4500           0
   79772 ION  1765 CLA  CLA  CLA   -1.000000       35.4500           0
   79773 ION  1766 CLA  CLA  CLA   -1.000000       35.4500           0
   79774 ION  1767 CLA  CLA  CLA   -1.000000       35.4500           0
   79775 ION  1768 CLA  CLA  CLA   -1.000000       35.4500           0
   79776 ION  1769 CLA  CLA  CLA   -1.000000       35.4500           0
   79777 ION  1770 CLA  CLA  CLA   -1.000000       35.4500           0
   79778 ION  1771 CLA  CLA  CLA   -1.000000       35.4500           0
   79779 ION  1772 CLA  CLA  CLA   -1.000000       35.4500           0
   79780 ION  1773 CLA  CLA  CLA   -1.000000       35.4500           0
   79781 ION  1774 CLA  CLA  CLA   -1.000000       35.4500           0
   79782 ION  1775 CLA  CLA  CLA   -1.000000       35.4500           0
   79783 ION  1776 CLA  CLA  CLA   -1.000000       35.4500           0
   79784 ION  1777 CLA  CLA  CLA   -1.000000       35.4500           0
   79785 ION  1778 CLA  CLA  CLA   -1.000000       35.4500           0
   79786 ION  1779 CLA  CLA  CLA   -1.000000       35.4500           0
   79787 ION  1780 CLA  CLA  CLA   -1.000000       35.4500           0
   79788 ION  1781 CLA  CLA  CLA   -1.000000       35.4500           0
   79789 ION  1782 CLA  CLA  CLA   -1.000000       35.4500           0
   79790 ION  1783 CLA  CLA  CLA   -1.000000       35.4500           0
   79791 ION  1784 CLA  CLA  CLA   -1.000000       35.4500           0
   79792 ION  1785 CLA  CLA  CLA   -1.000000       35.4500           0
   79793 ION  1786 CLA  CLA  CLA   -1.000000       35.4500           0
   79794 ION  1787 CLA  CLA  CLA   -1.000000       35.4500           0
   79795 ION  1788 CLA  CLA  CLA   -1.000000       35.4500           0
   79796 ION  1789 CLA  CLA  CLA   -1.000000       35.4500           0
   79797 ION  1790 CLA  CLA  CLA   -1.000000       35.4500           0
   79798 ION  1791 CLA  CLA  CLA   -1.000000       35.4500           0
   79799 ION  1792 CLA  CLA  CLA   -1.000000       35.4500           0
   79800 ION  1793 CLA  CLA  CLA   -1.000000       35.4500           0
   79801 ION  1794 CLA  CLA  CLA   -1.000000       35.4500           0
   79802 ION  1795 CLA  CLA  CLA   -1.000000       35.4500           0
   79803 ION  1796 CLA  CLA  CLA   -1.000000       35.4500           0
   79804 ION  1797 CLA  CLA  CLA   -1.000000       35.4500           0
   79805 ION  1798 CLA  CLA  CLA   -1.000000       35.4500           0
   79806 ION  1799 CLA  CLA  CLA   -1.000000       35.4500           0
   79807 ION  1800 CLA  CLA  CLA   -1.000000       35.4500           0
   79808 ION  1801 CLA  CLA  CLA   -1.000000       35.4500           0
   79809 ION  1802 CLA  CLA  CLA   -1.000000       35.4500           0
   79810 ION  1803 CLA  CLA  CLA   -1.000000       35.4500           0
   79811 ION  1804 CLA  CLA  CLA   -1.000000       35.4500           0
   79812 ION  1805 CLA  CLA  CLA   -1.000000       35.4500           0
   79813 ION  1806 CLA  CLA  CLA   -1.000000       35.4500           0
   79814 ION  1807 CLA  CLA  CLA   -1.000000       35.4500           0
   79815 ION  1808 CLA  CLA  CLA   -1.000000       35.4500           0
   79816 ION  1809 CLA  CLA  CLA   -1.000000       35.4500           0
   79817 ION  1810 CLA  CLA  CLA   -1.000000       35.4500           0
   79818 ION  1811 CLA  CLA  CLA   -1.000000       35.4500           0
   79819 ION  1812 CLA  CLA  CLA   -1.000000       35.4500           0
   79820 ION  1813 CLA  CLA  CLA   -1.000000       35.4500           0
   79821 ION  1814 CLA  CLA  CLA   -1.000000       35.4500           0
   79822 ION  1815 CLA  CLA  CLA   -1.000000       35.4500           0
   79823 ION  1816 CLA  CLA  CLA   -1.000000       35.4500           0
   79824 ION  1817 CLA  CLA  CLA   -1.000000       35.4500           0
   79825 ION  1818 CLA  CLA  CLA   -1.000000       35.4500           0
   79826 ION  1819 CLA  CLA  CLA   -1.000000       35.4500           0
   79827 ION  1820 CLA  CLA  CLA   -1.000000       35.4500           0
   79828 ION  1821 CLA  CLA  CLA   -1.000000       35.4500           0
   79829 ION  1822 CLA  CLA  CLA   -1.000000       35.4500           0
   79830 ION  1823 CLA  CLA  CLA   -1.000000       35.4500           0
   79831 ION  1824 CLA  CLA  CLA   -1.000000       35.4500           0
   79832 ION  1825 CLA  CLA  CLA   -1.000000       35.4500           0
   79833 ION  1826 CLA  CLA  CLA   -1.000000       35.4500           0
   79834 ION  1827 CLA  CLA  CLA   -1.000000       35.4500           0
   79835 ION  1828 CLA  CLA  CLA   -1.000000       35.4500           0
   79836 ION  1829 CLA  CLA  CLA   -1.000000       35.4500           0
   79837 ION  1830 CLA  CLA  CLA   -1.000000       35.4500           0
   79838 ION  1831 CLA  CLA  CLA   -1.000000       35.4500           0
   79839 ION  1832 CLA  CLA  CLA   -1.000000       35.4500           0
   79840 ION  1833 CLA  CLA  CLA   -1.000000       35.4500           0
   79841 ION  1834 CLA  CLA  CLA   -1.000000       35.4500           0
   79842 ION  1835 CLA  CLA  CLA   -1.000000       35.4500           0
   79843 ION  1836 CLA  CLA  CLA   -1.000000       35.4500           0
   79844 ION  1837 CLA  CLA  CLA   -1.000000       35.4500           0
   79845 ION  1838 CLA  CLA  CLA   -1.000000       35.4500           0
   79846 ION  1839 CLA  CLA  CLA   -1.000000       35.4500           0
   79847 ION  1840 CLA  CLA  CLA   -1.000000       35.4500           0
   79848 ION  1841 CLA  CLA  CLA   -1.000000       35.4500           0
   79849 ION  1842 CLA  CLA  CLA   -1.000000       35.4500           0
   79850 ION  1843 CLA  CLA  CLA   -1.000000       35.4500           0
   79851 ION  1844 CLA  CLA  CLA   -1.000000       35.4500           0
   79852 ION  1845 CLA  CLA  CLA   -1.000000       35.4500           0
   79853 ION  1846 CLA  CLA  CLA   -1.000000       35.4500           0
   79854 ION  1847 CLA  CLA  CLA   -1.000000       35.4500           0
   79855 ION  1848 CLA  CLA  CLA   -1.000000       35.4500           0
   79856 ION  1849 CLA  CLA  CLA   -1.000000       35.4500           0
   79857 ION  1850 CLA  CLA  CLA   -1.000000       35.4500           0
   79858 ION  1851 CLA  CLA  CLA   -1.000000       35.4500           0
   79859 ION  1852 CLA  CLA  CLA   -1.000000       35.4500           0
   79860 ION  1853 CLA  CLA  CLA   -1.000000       35.4500           0
   79861 ION  1854 CLA  CLA  CLA   -1.000000       35.4500           0
   79862 ION  1855 CLA  CLA  CLA   -1.000000       35.4500           0
   79863 ION  1856 CLA  CLA  CLA   -1.000000       35.4500           0
   79864 ION  1857 CLA  CLA  CLA   -1.000000       35.4500           0
   79865 ION  1858 CLA  CLA  CLA   -1.000000       35.4500           0
   79866 ION  1859 CLA  CLA  CLA   -1.000000       35.4500           0
   79867 ION  1860 CLA  CLA  CLA   -1.000000       35.4500           0
   79868 ION  1861 CLA  CLA  CLA   -1.000000       35.4500           0
   79869 ION  1862 CLA  CLA  CLA   -1.000000       35.4500           0
   79870 ION  1863 CLA  CLA  CLA   -1.000000       35.4500           0
   79871 ION  1864 CLA  CLA  CLA   -1.000000       35.4500           0
   79872 ION  1865 CLA  CLA  CLA   -1.000000       35.4500           0
   79873 ION  1866 CLA  CLA  CLA   -1.000000       35.4500           0
   79874 ION  1867 CLA  CLA  CLA   -1.000000       35.4500           0
   79875 ION  1868 CLA  CLA  CLA   -1.000000       35.4500           0
   79876 ION  1869 CLA  CLA  CLA   -1.000000       35.4500           0
   79877 ION  1870 CLA  CLA  CLA   -1.000000       35.4500           0
   79878 ION  1871 CLA  CLA  CLA   -1.000000       35.4500           0
   79879 ION  1872 CLA  CLA  CLA   -1.000000       35.4500           0
   79880 ION  1873 CLA  CLA  CLA   -1.000000       35.4500           0
   79881 ION  1874 CLA  CLA  CLA   -1.000000       35.4500           0
   79882 ION  1875 CLA  CLA  CLA   -1.000000       35.4500           0
   79883 ION  1876 CLA  CLA  CLA   -1.000000       35.4500           0
   79884 ION  1877 CLA  CLA  CLA   -1.000000       35.4500           0
   79885 ION  1878 CLA  CLA  CLA   -1.000000       35.4500           0
   79886 ION  1879 CLA  CLA  CLA   -1.000000       35.4500           0
   79887 ION  1880 CLA  CLA  CLA   -1.000000       35.4500           0
   79888 ION  1881 CLA  CLA  CLA   -1.000000       35.4500           0
   79889 ION  1882 CLA  CLA  CLA   -1.000000       35.4500           0
   79890 ION  1883 CLA  CLA  CLA   -1.000000       35.4500           0
   79891 ION  1884 CLA  CLA  CLA   -1.000000       35.4500           0
   79892 ION  1885 CLA  CLA  CLA   -1.000000       35.4500           0
   79893 ION  1886 CLA  CLA  CLA   -1.000000       35.4500           0
   79894 ION  1887 CLA  CLA  CLA   -1.000000       35.4500           0
   79895 ION  1888 CLA  CLA  CLA   -1.000000       35.4500           0
   79896 ION  1889 CLA  CLA  CLA   -1.000000       35.4500           0
   79897 ION  1890 CLA  CLA  CLA   -1.000000       35.4500           0
   79898 ION  1891 CLA  CLA  CLA   -1.000000       35.4500           0
   79899 ION  1892 CLA  CLA  CLA   -1.000000       35.4500           0
   79900 ION  1893 CLA  CLA  CLA   -1.000000       35.4500           0
   79901 ION  1894 CLA  CLA  CLA   -1.000000       35.4500           0
   79902 ION  1895 CLA  CLA  CLA   -1.000000       35.4500           0
   79903 ION  1896 CLA  CLA  CLA   -1.000000       35.4500           0
   79904 ION  1897 CLA  CLA  CLA   -1.000000       35.4500           0
   79905 ION  1898 CLA  CLA  CLA   -1.000000       35.4500           0
   79906 ION  1899 CLA  CLA  CLA   -1.000000       35.4500           0
   79907 ION  1900 CLA  CLA  CLA   -1.000000       35.4500           0
   79908 ION  1901 CLA  CLA  CLA   -1.000000       35.4500           0
   79909 ION  1902 CLA  CLA  CLA   -1.000000       35.4500           0
   79910 ION  1903 CLA  CLA  CLA   -1.000000       35.4500           0
   79911 ION  1904 CLA  CLA  CLA   -1.000000       35.4500           0
   79912 ION  1905 CLA  CLA  CLA   -1.000000       35.4500           0
   79913 ION  1906 CLA  CLA  CLA   -1.000000       35.4500           0
   79914 ION  1907 CLA  CLA  CLA   -1.000000       35.4500           0
   79915 ION  1908 CLA  CLA  CLA   -1.000000       35.4500           0
   79916 ION  1909 CLA  CLA  CLA   -1.000000       35.4500           0
   79917 ION  1910 CLA  CLA  CLA   -1.000000       35.4500           0
   79918 ION  1911 CLA  CLA  CLA   -1.000000       35.4500           0
   79919 ION  1912 CLA  CLA  CLA   -1.000000       35.4500           0
   79920 ION  1913 CLA  CLA  CLA   -1.000000       35.4500           0
   79921 ION  1914 CLA  CLA  CLA   -1.000000       35.4500           0
   79922 ION  1915 CLA  CLA  CLA   -1.000000       35.4500           0
   79923 ION  1916 CLA  CLA  CLA   -1.000000       35.4500           0
   79924 ION  1917 CLA  CLA  CLA   -1.000000       35.4500           0
   79925 ION  1918 CLA  CLA  CLA   -1.000000       35.4500           0
   79926 ION  1919 CLA  CLA  CLA   -1.000000       35.4500           0
   79927 ION  1920 CLA  CLA  CLA   -1.000000       35.4500           0
   79928 ION  1921 CLA  CLA  CLA   -1.000000       35.4500           0
   79929 ION  1922 CLA  CLA  CLA   -1.000000       35.4500           0
   79930 ION  1923 CLA  CLA  CLA   -1.000000       35.4500           0
   79931 ION  1924 CLA  CLA  CLA   -1.000000       35.4500           0
   79932 ION  1925 CLA  CLA  CLA   -1.000000       35.4500           0
   79933 ION  1926 CLA  CLA  CLA   -1.000000       35.4500           0
   79934 ION  1927 CLA  CLA  CLA   -1.000000       35.4500           0
   79935 ION  1928 CLA  CLA  CLA   -1.000000       35.4500           0
   79936 ION  1929 CLA  CLA  CLA   -1.000000       35.4500           0
   79937 ION  1930 CLA  CLA  CLA   -1.000000       35.4500           0
   79938 ION  1931 CLA  CLA  CLA   -1.000000       35.4500           0
   79939 ION  1932 CLA  CLA  CLA   -1.000000       35.4500           0
   79940 ION  1933 CLA  CLA  CLA   -1.000000       35.4500           0
   79941 ION  1934 CLA  CLA  CLA   -1.000000       35.4500           0
   79942 ION  1935 CLA  CLA  CLA   -1.000000       35.4500           0
   79943 ION  1936 CLA  CLA  CLA   -1.000000       35.4500           0
   79944 ION  1937 CLA  CLA  CLA   -1.000000       35.4500           0
   79945 ION  1938 CLA  CLA  CLA   -1.000000       35.4500           0
   79946 ION  1939 CLA  CLA  CLA   -1.000000       35.4500           0
   79947 ION  1940 CLA  CLA  CLA   -1.000000       35.4500           0
   79948 ION  1941 CLA  CLA  CLA   -1.000000       35.4500           0
   79949 ION  1942 CLA  CLA  CLA   -1.000000       35.4500           0
   79950 ION  1943 CLA  CLA  CLA   -1.000000       35.4500           0
   79951 ION  1944 CLA  CLA  CLA   -1.000000       35.4500           0
   79952 ION  1945 CLA  CLA  CLA   -1.000000       35.4500           0
   79953 ION  1946 CLA  CLA  CLA   -1.000000       35.4500           0
   79954 ION  1947 CLA  CLA  CLA   -1.000000       35.4500           0
   79955 ION  1948 CLA  CLA  CLA   -1.000000       35.4500           0
   79956 ION  1949 CLA  CLA  CLA   -1.000000       35.4500           0
   79957 ION  1950 CLA  CLA  CLA   -1.000000       35.4500           0
   79958 ION  1951 CLA  CLA  CLA   -1.000000       35.4500           0
   79959 ION  1952 CLA  CLA  CLA   -1.000000       35.4500           0
   79960 ION  1953 CLA  CLA  CLA   -1.000000       35.4500           0
   79961 ION  1954 CLA  CLA  CLA   -1.000000       35.4500           0
   79962 ION  1955 CLA  CLA  CLA   -1.000000       35.4500           0
   79963 ION  1956 CLA  CLA  CLA   -1.000000       35.4500           0
   79964 ION  1957 CLA  CLA  CLA   -1.000000       35.4500           0
   79965 ION  1958 CLA  CLA  CLA   -1.000000       35.4500           0
   79966 ION  1959 CLA  CLA  CLA   -1.000000       35.4500           0
   79967 ION  1960 CLA  CLA  CLA   -1.000000       35.4500           0
   79968 ION  1961 CLA  CLA  CLA   -1.000000       35.4500           0
   79969 ION  1962 CLA  CLA  CLA   -1.000000       35.4500           0
   79970 ION  1963 CLA  CLA  CLA   -1.000000       35.4500           0
   79971 ION  1964 CLA  CLA  CLA   -1.000000       35.4500           0
   79972 ION  1965 CLA  CLA  CLA   -1.000000       35.4500           0
   79973 ION  1966 CLA  CLA  CLA   -1.000000       35.4500           0
   79974 ION  1967 CLA  CLA  CLA   -1.000000       35.4500           0
   79975 ION  1968 CLA  CLA  CLA   -1.000000       35.4500           0
   79976 ION  1969 CLA  CLA  CLA   -1.000000       35.4500           0
   79977 ION  1970 CLA  CLA  CLA   -1.000000       35.4500           0
   79978 ION  1971 CLA  CLA  CLA   -1.000000       35.4500           0
   79979 ION  1972 CLA  CLA  CLA   -1.000000       35.4500           0
   79980 ION  1973 CLA  CLA  CLA   -1.000000       35.4500           0
   79981 ION  1974 CLA  CLA  CLA   -1.000000       35.4500           0
   79982 ION  1975 CLA  CLA  CLA   -1.000000       35.4500           0
   79983 ION  1976 CLA  CLA  CLA   -1.000000       35.4500           0
   79984 ION  1977 CLA  CLA  CLA   -1.000000       35.4500           0
   79985 ION  1978 CLA  CLA  CLA   -1.000000       35.4500           0
   79986 ION  1979 CLA  CLA  CLA   -1.000000       35.4500           0
   79987 ION  1980 CLA  CLA  CLA   -1.000000       35.4500           0
   79988 ION  1981 CLA  CLA  CLA   -1.000000       35.4500           0
   79989 ION  1982 CLA  CLA  CLA   -1.000000       35.4500           0
   79990 ION  1983 CLA  CLA  CLA   -1.000000       35.4500           0
   79991 ION  1984 CLA  CLA  CLA   -1.000000       35.4500           0
   79992 ION  1985 CLA  CLA  CLA   -1.000000       35.4500           0
   79993 ION  1986 CLA  CLA  CLA   -1.000000       35.4500           0
   79994 ION  1987 CLA  CLA  CLA   -1.000000       35.4500           0
   79995 ION  1988 CLA  CLA  CLA   -1.000000       35.4500           0
   79996 ION  1989 CLA  CLA  CLA   -1.000000       35.4500           0
   79997 ION  1990 CLA  CLA  CLA   -1.000000       35.4500           0
   79998 ION  1991 CLA  CLA  CLA   -1.000000       35.4500           0
   79999 ION  1992 CLA  CLA  CLA   -1.000000       35.4500           0
   80000 ION  1993 CLA  CLA  CLA   -1.000000       35.4500           0
   80001 ION  1994 CLA  CLA  CLA   -1.000000       35.4500           0
   80002 ION  1995 CLA  CLA  CLA   -1.000000       35.4500           0
   80003 ION  1996 CLA  CLA  CLA   -1.000000       35.4500           0
   80004 ION  1997 CLA  CLA  CLA   -1.000000       35.4500           0
   80005 ION  1998 CLA  CLA  CLA   -1.000000       35.4500           0
   80006 ION  1999 CLA  CLA  CLA   -1.000000       35.4500           0
   80007 ION  2000 CLA  CLA  CLA   -1.000000       35.4500           0
   80008 ION  2001 CLA  CLA  CLA   -1.000000       35.4500           0
   80009 ION  2002 CLA  CLA  CLA   -1.000000       35.4500           0
   80010 ION  2003 CLA  CLA  CLA   -1.000000       35.4500           0
   80011 ION  2004 CLA  CLA  CLA   -1.000000       35.4500           0
   80012 ION  2005 CLA  CLA  CLA   -1.000000       35.4500           0
   80013 ION  2006 CLA  CLA  CLA   -1.000000       35.4500           0
   80014 ION  2007 CLA  CLA  CLA   -1.000000       35.4500           0
   80015 ION  2008 CLA  CLA  CLA   -1.000000       35.4500           0
   80016 ION  2009 CLA  CLA  CLA   -1.000000       35.4500           0
   80017 ION  2010 CLA  CLA  CLA   -1.000000       35.4500           0
   80018 ION  2011 CLA  CLA  CLA   -1.000000       35.4500           0
   80019 ION  2012 CLA  CLA  CLA   -1.000000       35.4500           0
   80020 ION  2013 CLA  CLA  CLA   -1.000000       35.4500           0
   80021 ION  2014 CLA  CLA  CLA   -1.000000       35.4500           0
   80022 ION  2015 CLA  CLA  CLA   -1.000000       35.4500           0
   80023 ION  2016 CLA  CLA  CLA   -1.000000       35.4500           0
   80024 ION  2017 CLA  CLA  CLA   -1.000000       35.4500           0
   80025 ION  2018 CLA  CLA  CLA   -1.000000       35.4500           0
   80026 ION  2019 CLA  CLA  CLA   -1.000000       35.4500           0
   80027 ION  2020 CLA  CLA  CLA   -1.000000       35.4500           0
   80028 ION  2021 CLA  CLA  CLA   -1.000000       35.4500           0
   80029 ION  2022 CLA  CLA  CLA   -1.000000       35.4500           0
   80030 ION  2023 CLA  CLA  CLA   -1.000000       35.4500           0
   80031 ION  2024 CLA  CLA  CLA   -1.000000       35.4500           0
   80032 ION  2025 CLA  CLA  CLA   -1.000000       35.4500           0
   80033 ION  2026 CLA  CLA  CLA   -1.000000       35.4500           0
   80034 ION  2027 CLA  CLA  CLA   -1.000000       35.4500           0
   80035 ION  2028 CLA  CLA  CLA   -1.000000       35.4500           0
   80036 ION  2029 CLA  CLA  CLA   -1.000000       35.4500           0
   80037 ION  2030 CLA  CLA  CLA   -1.000000       35.4500           0
   80038 ION  2031 CLA  CLA  CLA   -1.000000       35.4500           0
   80039 ION  2032 CLA  CLA  CLA   -1.000000       35.4500           0
   80040 ION  2033 CLA  CLA  CLA   -1.000000       35.4500           0
   80041 ION  2034 CLA  CLA  CLA   -1.000000       35.4500           0
   80042 ION  2035 CLA  CLA  CLA   -1.000000       35.4500           0
   80043 ION  2036 CLA  CLA  CLA   -1.000000       35.4500           0
   80044 ION  2037 CLA  CLA  CLA   -1.000000       35.4500           0
   80045 ION  2038 CLA  CLA  CLA   -1.000000       35.4500           0
   80046 ION  2039 CLA  CLA  CLA   -1.000000       35.4500           0
   80047 ION  2040 CLA  CLA  CLA   -1.000000       35.4500           0
   80048 ION  2041 CLA  CLA  CLA   -1.000000       35.4500           0
   80049 ION  2042 CLA  CLA  CLA   -1.000000       35.4500           0
   80050 ION  2043 CLA  CLA  CLA   -1.000000       35.4500           0
   80051 ION  2044 CLA  CLA  CLA   -1.000000       35.4500           0
   80052 ION  2045 CLA  CLA  CLA   -1.000000       35.4500           0
   80053 ION  2046 CLA  CLA  CLA   -1.000000       35.4500           0
   80054 ION  2047 CLA  CLA  CLA   -1.000000       35.4500           0
   80055 ION  2048 CLA  CLA  CLA   -1.000000       35.4500           0
   80056 ION  2049 CLA  CLA  CLA   -1.000000       35.4500           0
   80057 ION  2050 CLA  CLA  CLA   -1.000000       35.4500           0
   80058 ION  2051 CLA  CLA  CLA   -1.000000       35.4500           0
   80059 ION  2052 CLA  CLA  CLA   -1.000000       35.4500           0
   80060 ION  2053 CLA  CLA  CLA   -1.000000       35.4500           0
   80061 ION  2054 CLA  CLA  CLA   -1.000000       35.4500           0
   80062 ION  2055 CLA  CLA  CLA   -1.000000       35.4500           0
   80063 ION  2056 CLA  CLA  CLA   -1.000000       35.4500           0
   80064 ION  2057 CLA  CLA  CLA   -1.000000       35.4500           0
   80065 ION  2058 CLA  CLA  CLA   -1.000000       35.4500           0
   80066 ION  2059 CLA  CLA  CLA   -1.000000       35.4500           0
   80067 ION  2060 CLA  CLA  CLA   -1.000000       35.4500           0
   80068 ION  2061 CLA  CLA  CLA   -1.000000       35.4500           0
   80069 ION  2062 CLA  CLA  CLA   -1.000000       35.4500           0
   80070 ION  2063 CLA  CLA  CLA   -1.000000       35.4500           0
   80071 ION  2064 CLA  CLA  CLA   -1.000000       35.4500           0
   80072 ION  2065 CLA  CLA  CLA   -1.000000       35.4500           0
   80073 ION  2066 CLA  CLA  CLA   -1.000000       35.4500           0
   80074 ION  2067 CLA  CLA  CLA   -1.000000       35.4500           0
   80075 ION  2068 CLA  CLA  CLA   -1.000000       35.4500           0
   80076 ION  2069 CLA  CLA  CLA   -1.000000       35.4500           0
   80077 ION  2070 CLA  CLA  CLA   -1.000000       35.4500           0
   80078 ION  2071 CLA  CLA  CLA   -1.000000       35.4500           0
   80079 ION  2072 CLA  CLA  CLA   -1.000000       35.4500           0
   80080 ION  2073 CLA  CLA  CLA   -1.000000       35.4500           0
   80081 ION  2074 CLA  CLA  CLA   -1.000000       35.4500           0
   80082 ION  2075 CLA  CLA  CLA   -1.000000       35.4500           0
   80083 ION  2076 CLA  CLA  CLA   -1.000000       35.4500           0
   80084 ION  2077 CLA  CLA  CLA   -1.000000       35.4500           0
   80085 ION  2078 CLA  CLA  CLA   -1.000000       35.4500           0
   80086 ION  2079 CLA  CLA  CLA   -1.000000       35.4500           0
   80087 ION  2080 CLA  CLA  CLA   -1.000000       35.4500           0
   80088 ION  2081 CLA  CLA  CLA   -1.000000       35.4500           0
   80089 ION  2082 CLA  CLA  CLA   -1.000000       35.4500           0
   80090 ION  2083 CLA  CLA  CLA   -1.000000       35.4500           0
   80091 ION  2084 CLA  CLA  CLA   -1.000000       35.4500           0
   80092 ION  2085 CLA  CLA  CLA   -1.000000       35.4500           0
   80093 ION  2086 CLA  CLA  CLA   -1.000000       35.4500           0
   80094 ION  2087 CLA  CLA  CLA   -1.000000       35.4500           0
   80095 ION  2088 CLA  CLA  CLA   -1.000000       35.4500           0
   80096 ION  2089 CLA  CLA  CLA   -1.000000       35.4500           0
   80097 ION  2090 CLA  CLA  CLA   -1.000000       35.4500           0
   80098 ION  2091 CLA  CLA  CLA   -1.000000       35.4500           0
   80099 ION  2092 CLA  CLA  CLA   -1.000000       35.4500           0
   80100 ION  2093 CLA  CLA  CLA   -1.000000       35.4500           0
   80101 ION  2094 CLA  CLA  CLA   -1.000000       35.4500           0
   80102 ION  2095 CLA  CLA  CLA   -1.000000       35.4500           0
   80103 ION  2096 CLA  CLA  CLA   -1.000000       35.4500           0
   80104 ION  2097 CLA  CLA  CLA   -1.000000       35.4500           0
   80105 ION  2098 CLA  CLA  CLA   -1.000000       35.4500           0
   80106 ION  2099 CLA  CLA  CLA   -1.000000       35.4500           0
   80107 ION  2100 CLA  CLA  CLA   -1.000000       35.4500           0
   80108 ION  2101 CLA  CLA  CLA   -1.000000       35.4500           0
   80109 ION  2102 CLA  CLA  CLA   -1.000000       35.4500           0
   80110 ION  2103 CLA  CLA  CLA   -1.000000       35.4500           0
   80111 ION  2104 CLA  CLA  CLA   -1.000000       35.4500           0
   80112 ION  2105 CLA  CLA  CLA   -1.000000       35.4500           0
   80113 ION  2106 CLA  CLA  CLA   -1.000000       35.4500           0
   80114 ION  2107 CLA  CLA  CLA   -1.000000       35.4500           0
   80115 ION  2108 CLA  CLA  CLA   -1.000000       35.4500           0
   80116 ION  2109 CLA  CLA  CLA   -1.000000       35.4500           0
   80117 ION  2110 CLA  CLA  CLA   -1.000000       35.4500           0
   80118 ION  2111 CLA  CLA  CLA   -1.000000       35.4500           0
   80119 ION  2112 CLA  CLA  CLA   -1.000000       35.4500           0
   80120 ION  2113 CLA  CLA  CLA   -1.000000       35.4500           0
   80121 ION  2114 CLA  CLA  CLA   -1.000000       35.4500           0
   80122 ION  2115 CLA  CLA  CLA   -1.000000       35.4500           0
   80123 ION  2116 CLA  CLA  CLA   -1.000000       35.4500           0
   80124 ION  2117 CLA  CLA  CLA   -1.000000       35.4500           0
   80125 ION  2118 CLA  CLA  CLA   -1.000000       35.4500           0
   80126 ION  2119 CLA  CLA  CLA   -1.000000       35.4500           0
   80127 ION  2120 CLA  CLA  CLA   -1.000000       35.4500           0
   80128 ION  2121 CLA  CLA  CLA   -1.000000       35.4500           0
   80129 ION  2122 CLA  CLA  CLA   -1.000000       35.4500           0
   80130 ION  2123 CLA  CLA  CLA   -1.000000       35.4500           0
   80131 ION  2124 CLA  CLA  CLA   -1.000000       35.4500           0
   80132 ION  2125 CLA  CLA  CLA   -1.000000       35.4500           0
   80133 ION  2126 CLA  CLA  CLA   -1.000000       35.4500           0
   80134 ION  2127 CLA  CLA  CLA   -1.000000       35.4500           0
   80135 ION  2128 CLA  CLA  CLA   -1.000000       35.4500           0
   80136 ION  2129 CLA  CLA  CLA   -1.000000       35.4500           0
   80137 ION  2130 CLA  CLA  CLA   -1.000000       35.4500           0
   80138 ION  2131 CLA  CLA  CLA   -1.000000       35.4500           0
   80139 ION  2132 CLA  CLA  CLA   -1.000000       35.4500           0
   80140 ION  2133 CLA  CLA  CLA   -1.000000       35.4500           0
   80141 ION  2134 CLA  CLA  CLA   -1.000000       35.4500           0
   80142 ION  2135 CLA  CLA  CLA   -1.000000       35.4500           0
   80143 ION  2136 CLA  CLA  CLA   -1.000000       35.4500           0
   80144 ION  2137 CLA  CLA  CLA   -1.000000       35.4500           0
   80145 ION  2138 CLA  CLA  CLA   -1.000000       35.4500           0
   80146 ION  2139 CLA  CLA  CLA   -1.000000       35.4500           0
   80147 ION  2140 CLA  CLA  CLA   -1.000000       35.4500           0
   80148 ION  2141 CLA  CLA  CLA   -1.000000       35.4500           0
   80149 ION  2142 CLA  CLA  CLA   -1.000000       35.4500           0
   80150 ION  2143 CLA  CLA  CLA   -1.000000       35.4500           0
   80151 ION  2144 CLA  CLA  CLA   -1.000000       35.4500           0
   80152 ION  2145 CLA  CLA  CLA   -1.000000       35.4500           0
   80153 ION  2146 CLA  CLA  CLA   -1.000000       35.4500           0
   80154 ION  2147 CLA  CLA  CLA   -1.000000       35.4500           0
   80155 ION  2148 CLA  CLA  CLA   -1.000000       35.4500           0
   80156 ION  2149 CLA  CLA  CLA   -1.000000       35.4500           0
   80157 ION  2150 CLA  CLA  CLA   -1.000000       35.4500           0
   80158 ION  2151 CLA  CLA  CLA   -1.000000       35.4500           0
   80159 ION  2152 CLA  CLA  CLA   -1.000000       35.4500           0
   80160 ION  2153 CLA  CLA  CLA   -1.000000       35.4500           0
   80161 ION  2154 CLA  CLA  CLA   -1.000000       35.4500           0
   80162 ION  2155 CLA  CLA  CLA   -1.000000       35.4500           0
   80163 ION  2156 CLA  CLA  CLA   -1.000000       35.4500           0
   80164 ION  2157 CLA  CLA  CLA   -1.000000       35.4500           0
   80165 ION  2158 CLA  CLA  CLA   -1.000000       35.4500           0
   80166 ION  2159 CLA  CLA  CLA   -1.000000       35.4500           0
   80167 ION  2160 CLA  CLA  CLA   -1.000000       35.4500           0
   80168 ION  2161 CLA  CLA  CLA   -1.000000       35.4500           0
   80169 ION  2162 CLA  CLA  CLA   -1.000000       35.4500           0
   80170 ION  2163 CLA  CLA  CLA   -1.000000       35.4500           0
   80171 ION  2164 CLA  CLA  CLA   -1.000000       35.4500           0
   80172 ION  2165 CLA  CLA  CLA   -1.000000       35.4500           0
   80173 ION  2166 CLA  CLA  CLA   -1.000000       35.4500           0
   80174 ION  2167 CLA  CLA  CLA   -1.000000       35.4500           0
   80175 ION  2168 CLA  CLA  CLA   -1.000000       35.4500           0
   80176 ION  2169 CLA  CLA  CLA   -1.000000       35.4500           0
   80177 ION  2170 CLA  CLA  CLA   -1.000000       35.4500           0
   80178 ION  2171 CLA  CLA  CLA   -1.000000       35.4500           0
   80179 ION  2172 CLA  CLA  CLA   -1.000000       35.4500           0
   80180 ION  2173 CLA  CLA  CLA   -1.000000       35.4500           0
   80181 ION  2174 CLA  CLA  CLA   -1.000000       35.4500           0
   80182 ION  2175 CLA  CLA  CLA   -1.000000       35.4500           0
   80183 ION  2176 CLA  CLA  CLA   -1.000000       35.4500           0
   80184 ION  2177 CLA  CLA  CLA   -1.000000       35.4500           0
   80185 ION  2178 CLA  CLA  CLA   -1.000000       35.4500           0
   80186 ION  2179 CLA  CLA  CLA   -1.000000       35.4500           0
   80187 ION  2180 CLA  CLA  CLA   -1.000000       35.4500           0
   80188 ION  2181 CLA  CLA  CLA   -1.000000       35.4500           0
   80189 ION  2182 CLA  CLA  CLA   -1.000000       35.4500           0
   80190 ION  2183 CLA  CLA  CLA   -1.000000       35.4500           0
   80191 ION  2184 CLA  CLA  CLA   -1.000000       35.4500           0
   80192 ION  2185 CLA  CLA  CLA   -1.000000       35.4500           0
   80193 ION  2186 CLA  CLA  CLA   -1.000000       35.4500           0
   80194 ION  2187 CLA  CLA  CLA   -1.000000       35.4500           0
   80195 ION  2188 CLA  CLA  CLA   -1.000000       35.4500           0
   80196 ION  2189 CLA  CLA  CLA   -1.000000       35.4500           0
   80197 ION  2190 CLA  CLA  CLA   -1.000000       35.4500           0
   80198 ION  2191 CLA  CLA  CLA   -1.000000       35.4500           0
   80199 ION  2192 CLA  CLA  CLA   -1.000000       35.4500           0
   80200 ION  2193 CLA  CLA  CLA   -1.000000       35.4500           0
   80201 ION  2194 CLA  CLA  CLA   -1.000000       35.4500           0
   80202 ION  2195 CLA  CLA  CLA   -1.000000       35.4500           0
   80203 ION  2196 CLA  CLA  CLA   -1.000000       35.4500           0
   80204 ION  2197 CLA  CLA  CLA   -1.000000       35.4500           0
   80205 ION  2198 CLA  CLA  CLA   -1.000000       35.4500           0
   80206 ION  2199 CLA  CLA  CLA   -1.000000       35.4500           0
   80207 ION  2200 CLA  CLA  CLA   -1.000000       35.4500           0
   80208 ION  2201 CLA  CLA  CLA   -1.000000       35.4500           0
   80209 ION  2202 CLA  CLA  CLA   -1.000000       35.4500           0
   80210 ION  2203 CLA  CLA  CLA   -1.000000       35.4500           0
   80211 ION  2204 CLA  CLA  CLA   -1.000000       35.4500           0
   80212 ION  2205 CLA  CLA  CLA   -1.000000       35.4500           0
   80213 ION  2206 CLA  CLA  CLA   -1.000000       35.4500           0
   80214 ION  2207 CLA  CLA  CLA   -1.000000       35.4500           0
   80215 ION  2208 CLA  CLA  CLA   -1.000000       35.4500           0
   80216 ION  2209 CLA  CLA  CLA   -1.000000       35.4500           0
   80217 ION  2210 CLA  CLA  CLA   -1.000000       35.4500           0
   80218 ION  2211 CLA  CLA  CLA   -1.000000       35.4500           0
   80219 ION  2212 CLA  CLA  CLA   -1.000000       35.4500           0
   80220 ION  2213 CLA  CLA  CLA   -1.000000       35.4500           0
   80221 ION  2214 CLA  CLA  CLA   -1.000000       35.4500           0
   80222 ION  2215 CLA  CLA  CLA   -1.000000       35.4500           0
   80223 ION  2216 CLA  CLA  CLA   -1.000000       35.4500           0
   80224 ION  2217 CLA  CLA  CLA   -1.000000       35.4500           0
   80225 ION  2218 CLA  CLA  CLA   -1.000000       35.4500           0
   80226 ION  2219 CLA  CLA  CLA   -1.000000       35.4500           0
   80227 ION  2220 CLA  CLA  CLA   -1.000000       35.4500           0
   80228 ION  2221 CLA  CLA  CLA   -1.000000       35.4500           0
   80229 ION  2222 CLA  CLA  CLA   -1.000000       35.4500           0
   80230 ION  2223 CLA  CLA  CLA   -1.000000       35.4500           0
   80231 ION  2224 CLA  CLA  CLA   -1.000000       35.4500           0
   80232 ION  2225 CLA  CLA  CLA   -1.000000       35.4500           0
   80233 ION  2226 CLA  CLA  CLA   -1.000000       35.4500           0
   80234 ION  2227 CLA  CLA  CLA   -1.000000       35.4500           0
   80235 ION  2228 CLA  CLA  CLA   -1.000000       35.4500           0
   80236 ION  2229 CLA  CLA  CLA   -1.000000       35.4500           0
   80237 ION  2230 CLA  CLA  CLA   -1.000000       35.4500           0
   80238 ION  2231 CLA  CLA  CLA   -1.000000       35.4500           0
   80239 ION  2232 CLA  CLA  CLA   -1.000000       35.4500           0
   80240 ION  2233 CLA  CLA  CLA   -1.000000       35.4500           0
   80241 ION  2234 CLA  CLA  CLA   -1.000000       35.4500           0
   80242 ION  2235 CLA  CLA  CLA   -1.000000       35.4500           0
   80243 ION  2236 CLA  CLA  CLA   -1.000000       35.4500           0
   80244 ION  2237 CLA  CLA  CLA   -1.000000       35.4500           0
   80245 ION  2238 CLA  CLA  CLA   -1.000000       35.4500           0
   80246 ION  2239 CLA  CLA  CLA   -1.000000       35.4500           0
   80247 ION  2240 CLA  CLA  CLA   -1.000000       35.4500           0
   80248 ION  2241 CLA  CLA  CLA   -1.000000       35.4500           0
   80249 ION  2242 CLA  CLA  CLA   -1.000000       35.4500           0
   80250 ION  2243 CLA  CLA  CLA   -1.000000       35.4500           0
   80251 ION  2244 CLA  CLA  CLA   -1.000000       35.4500           0
   80252 ION  2245 CLA  CLA  CLA   -1.000000       35.4500           0
   80253 ION  2246 CLA  CLA  CLA   -1.000000       35.4500           0
   80254 ION  2247 CLA  CLA  CLA   -1.000000       35.4500           0
   80255 ION  2248 CLA  CLA  CLA   -1.000000       35.4500           0
   80256 ION  2249 CLA  CLA  CLA   -1.000000       35.4500           0
   80257 ION  2250 CLA  CLA  CLA   -1.000000       35.4500           0
   80258 ION  2251 CLA  CLA  CLA   -1.000000       35.4500           0
   80259 ION  2252 CLA  CLA  CLA   -1.000000       35.4500           0
   80260 ION  2253 CLA  CLA  CLA   -1.000000       35.4500           0
   80261 ION  2254 CLA  CLA  CLA   -1.000000       35.4500           0
   80262 ION  2255 CLA  CLA  CLA   -1.000000       35.4500           0
   80263 ION  2256 CLA  CLA  CLA   -1.000000       35.4500           0
   80264 ION  2257 CLA  CLA  CLA   -1.000000       35.4500           0
   80265 ION  2258 CLA  CLA  CLA   -1.000000       35.4500           0
   80266 ION  2259 CLA  CLA  CLA   -1.000000       35.4500           0
   80267 ION  2260 CLA  CLA  CLA   -1.000000       35.4500           0
   80268 ION  2261 CLA  CLA  CLA   -1.000000       35.4500           0
   80269 ION  2262 CLA  CLA  CLA   -1.000000       35.4500           0
   80270 ION  2263 CLA  CLA  CLA   -1.000000       35.4500           0
   80271 ION  2264 CLA  CLA  CLA   -1.000000       35.4500           0
   80272 ION  2265 CLA  CLA  CLA   -1.000000       35.4500           0
   80273 ION  2266 CLA  CLA  CLA   -1.000000       35.4500           0
   80274 ION  2267 CLA  CLA  CLA   -1.000000       35.4500           0
   80275 ION  2268 CLA  CLA  CLA   -1.000000       35.4500           0
   80276 ION  2269 CLA  CLA  CLA   -1.000000       35.4500           0
   80277 ION  2270 CLA  CLA  CLA   -1.000000       35.4500           0
   80278 ION  2271 CLA  CLA  CLA   -1.000000       35.4500           0
   80279 ION  2272 CLA  CLA  CLA   -1.000000       35.4500           0
   80280 ION  2273 CLA  CLA  CLA   -1.000000       35.4500           0
   80281 ION  2274 CLA  CLA  CLA   -1.000000       35.4500           0
   80282 ION  2275 CLA  CLA  CLA   -1.000000       35.4500           0
   80283 ION  2276 CLA  CLA  CLA   -1.000000       35.4500           0
   80284 ION  2277 CLA  CLA  CLA   -1.000000       35.4500           0
   80285 ION  2278 CLA  CLA  CLA   -1.000000       35.4500           0
   80286 ION  2279 CLA  CLA  CLA   -1.000000       35.4500           0
   80287 ION  2280 CLA  CLA  CLA   -1.000000       35.4500           0
   80288 ION  2281 CLA  CLA  CLA   -1.000000       35.4500           0
   80289 ION  2282 CLA  CLA  CLA   -1.000000       35.4500           0
   80290 ION  2283 CLA  CLA  CLA   -1.000000       35.4500           0
   80291 ION  2284 CLA  CLA  CLA   -1.000000       35.4500           0
   80292 ION  2285 CLA  CLA  CLA   -1.000000       35.4500           0
   80293 ION  2286 CLA  CLA  CLA   -1.000000       35.4500           0
   80294 ION  2287 CLA  CLA  CLA   -1.000000       35.4500           0
   80295 ION  2288 CLA  CLA  CLA   -1.000000       35.4500           0
   80296 ION  2289 CLA  CLA  CLA   -1.000000       35.4500           0
   80297 ION  2290 CLA  CLA  CLA   -1.000000       35.4500           0
   80298 ION  2291 CLA  CLA  CLA   -1.000000       35.4500           0
   80299 ION  2292 CLA  CLA  CLA   -1.000000       35.4500           0
   80300 ION  2293 CLA  CLA  CLA   -1.000000       35.4500           0
   80301 ION  2294 CLA  CLA  CLA   -1.000000       35.4500           0
   80302 ION  2295 CLA  CLA  CLA   -1.000000       35.4500           0
   80303 ION  2296 CLA  CLA  CLA   -1.000000       35.4500           0
   80304 ION  2297 CLA  CLA  CLA   -1.000000       35.4500           0
   80305 ION  2298 CLA  CLA  CLA   -1.000000       35.4500           0
   80306 ION  2299 CLA  CLA  CLA   -1.000000       35.4500           0
   80307 ION  2300 CLA  CLA  CLA   -1.000000       35.4500           0
   80308 ION  2301 CLA  CLA  CLA   -1.000000       35.4500           0
   80309 ION  2302 CLA  CLA  CLA   -1.000000       35.4500           0
   80310 ION  2303 CLA  CLA  CLA   -1.000000       35.4500           0
   80311 ION  2304 CLA  CLA  CLA   -1.000000       35.4500           0
   80312 ION  2305 CLA  CLA  CLA   -1.000000       35.4500           0
   80313 ION  2306 CLA  CLA  CLA   -1.000000       35.4500           0
   80314 ION  2307 CLA  CLA  CLA   -1.000000       35.4500           0
   80315 ION  2308 CLA  CLA  CLA   -1.000000       35.4500           0
   80316 ION  2309 CLA  CLA  CLA   -1.000000       35.4500           0
   80317 ION  2310 CLA  CLA  CLA   -1.000000       35.4500           0
   80318 ION  2311 CLA  CLA  CLA   -1.000000       35.4500           0
   80319 ION  2312 CLA  CLA  CLA   -1.000000       35.4500           0
   80320 ION  2313 CLA  CLA  CLA   -1.000000       35.4500           0
   80321 ION  2314 CLA  CLA  CLA   -1.000000       35.4500           0
   80322 ION  2315 CLA  CLA  CLA   -1.000000       35.4500           0
   80323 ION  2316 CLA  CLA  CLA   -1.000000       35.4500           0
   80324 ION  2317 CLA  CLA  CLA   -1.000000       35.4500           0
   80325 ION  2318 CLA  CLA  CLA   -1.000000       35.4500           0
   80326 ION  2319 CLA  CLA  CLA   -1.000000       35.4500           0
   80327 ION  2320 CLA  CLA  CLA   -1.000000       35.4500           0
   80328 ION  2321 CLA  CLA  CLA   -1.000000       35.4500           0
   80329 ION  2322 CLA  CLA  CLA   -1.000000       35.4500           0
   80330 ION  2323 CLA  CLA  CLA   -1.000000       35.4500           0
   80331 ION  2324 CLA  CLA  CLA   -1.000000       35.4500           0
   80332 ION  2325 CLA  CLA  CLA   -1.000000       35.4500           0
   80333 ION  2326 CLA  CLA  CLA   -1.000000       35.4500           0
   80334 ION  2327 CLA  CLA  CLA   -1.000000       35.4500           0
   80335 ION  2328 CLA  CLA  CLA   -1.000000       35.4500           0
   80336 ION  2329 CLA  CLA  CLA   -1.000000       35.4500           0
   80337 ION  2330 CLA  CLA  CLA   -1.000000       35.4500           0
   80338 ION  2331 CLA  CLA  CLA   -1.000000       35.4500           0
   80339 ION  2332 CLA  CLA  CLA   -1.000000       35.4500           0
   80340 ION  2333 CLA  CLA  CLA   -1.000000       35.4500           0
   80341 ION  2334 CLA  CLA  CLA   -1.000000       35.4500           0
   80342 ION  2335 CLA  CLA  CLA   -1.000000       35.4500           0
   80343 ION  2336 CLA  CLA  CLA   -1.000000       35.4500           0
   80344 ION  2337 CLA  CLA  CLA   -1.000000       35.4500           0
   80345 ION  2338 CLA  CLA  CLA   -1.000000       35.4500           0
   80346 ION  2339 CLA  CLA  CLA   -1.000000       35.4500           0
   80347 ION  2340 CLA  CLA  CLA   -1.000000       35.4500           0
   80348 ION  2341 CLA  CLA  CLA   -1.000000       35.4500           0
   80349 ION  2342 CLA  CLA  CLA   -1.000000       35.4500           0
   80350 ION  2343 CLA  CLA  CLA   -1.000000       35.4500           0
   80351 ION  2344 CLA  CLA  CLA   -1.000000       35.4500           0
   80352 ION  2345 CLA  CLA  CLA   -1.000000       35.4500           0
   80353 ION  2346 CLA  CLA  CLA   -1.000000       35.4500           0
   80354 ION  2347 CLA  CLA  CLA   -1.000000       35.4500           0
   80355 ION  2348 CLA  CLA  CLA   -1.000000       35.4500           0
   80356 ION  2349 CLA  CLA  CLA   -1.000000       35.4500           0
   80357 ION  2350 CLA  CLA  CLA   -1.000000       35.4500           0
   80358 ION  2351 CLA  CLA  CLA   -1.000000       35.4500           0
   80359 ION  2352 CLA  CLA  CLA   -1.000000       35.4500           0
   80360 ION  2353 CLA  CLA  CLA   -1.000000       35.4500           0
   80361 ION  2354 CLA  CLA  CLA   -1.000000       35.4500           0
   80362 ION  2355 CLA  CLA  CLA   -1.000000       35.4500           0
   80363 ION  2356 CLA  CLA  CLA   -1.000000       35.4500           0
   80364 ION  2357 CLA  CLA  CLA   -1.000000       35.4500           0
   80365 ION  2358 CLA  CLA  CLA   -1.000000       35.4500           0
   80366 ION  2359 CLA  CLA  CLA   -1.000000       35.4500           0
   80367 ION  2360 CLA  CLA  CLA   -1.000000       35.4500           0
   80368 ION  2361 CLA  CLA  CLA   -1.000000       35.4500           0
   80369 ION  2362 CLA  CLA  CLA   -1.000000       35.4500           0
   80370 ION  2363 CLA  CLA  CLA   -1.000000       35.4500           0
   80371 ION  2364 CLA  CLA  CLA   -1.000000       35.4500           0
   80372 ION  2365 CLA  CLA  CLA   -1.000000       35.4500           0
   80373 ION  2366 CLA  CLA  CLA   -1.000000       35.4500           0
   80374 ION  2367 CLA  CLA  CLA   -1.000000       35.4500           0
   80375 ION  2368 CLA  CLA  CLA   -1.000000       35.4500           0
   80376 ION  2369 CLA  CLA  CLA   -1.000000       35.4500           0
   80377 ION  2370 CLA  CLA  CLA   -1.000000       35.4500           0
   80378 ION  2371 CLA  CLA  CLA   -1.000000       35.4500           0
   80379 ION  2372 CLA  CLA  CLA   -1.000000       35.4500           0
   80380 ION  2373 CLA  CLA  CLA   -1.000000       35.4500           0
   80381 ION  2374 CLA  CLA  CLA   -1.000000       35.4500           0
   80382 ION  2375 CLA  CLA  CLA   -1.000000       35.4500           0
   80383 ION  2376 CLA  CLA  CLA   -1.000000       35.4500           0
   80384 ION  2377 CLA  CLA  CLA   -1.000000       35.4500           0
   80385 ION  2378 CLA  CLA  CLA   -1.000000       35.4500           0
   80386 ION  2379 CLA  CLA  CLA   -1.000000       35.4500           0
   80387 ION  2380 CLA  CLA  CLA   -1.000000       35.4500           0
   80388 ION  2381 CLA  CLA  CLA   -1.000000       35.4500           0
   80389 ION  2382 CLA  CLA  CLA   -1.000000       35.4500           0
   80390 ION  2383 CLA  CLA  CLA   -1.000000       35.4500           0
   80391 ION  2384 CLA  CLA  CLA   -1.000000       35.4500           0
   80392 ION  2385 CLA  CLA  CLA   -1.000000       35.4500           0
   80393 ION  2386 CLA  CLA  CLA   -1.000000       35.4500           0
   80394 ION  2387 CLA  CLA  CLA   -1.000000       35.4500           0
   80395 ION  2388 CLA  CLA  CLA   -1.000000       35.4500           0
   80396 ION  2389 CLA  CLA  CLA   -1.000000       35.4500           0
   80397 ION  2390 CLA  CLA  CLA   -1.000000       35.4500           0
   80398 ION  2391 CLA  CLA  CLA   -1.000000       35.4500           0
   80399 ION  2392 CLA  CLA  CLA   -1.000000       35.4500           0
   80400 ION  2393 CLA  CLA  CLA   -1.000000       35.4500           0
   80401 ION  2394 CLA  CLA  CLA   -1.000000       35.4500           0
   80402 ION  2395 CLA  CLA  CLA   -1.000000       35.4500           0
   80403 ION  2396 CLA  CLA  CLA   -1.000000       35.4500           0
   80404 ION  2397 CLA  CLA  CLA   -1.000000       35.4500           0
   80405 ION  2398 CLA  CLA  CLA   -1.000000       35.4500           0
   80406 ION  2399 CLA  CLA  CLA   -1.000000       35.4500           0
   80407 ION  2400 CLA  CLA  CLA   -1.000000       35.4500           0
   80408 ION  2401 CLA  CLA  CLA   -1.000000       35.4500           0
   80409 ION  2402 CLA  CLA  CLA   -1.000000       35.4500           0
   80410 ION  2403 CLA  CLA  CLA   -1.000000       35.4500           0
   80411 ION  2404 CLA  CLA  CLA   -1.000000       35.4500           0
   80412 ION  2405 CLA  CLA  CLA   -1.000000       35.4500           0
   80413 ION  2406 CLA  CLA  CLA   -1.000000       35.4500           0
   80414 ION  2407 CLA  CLA  CLA   -1.000000       35.4500           0
   80415 ION  2408 CLA  CLA  CLA   -1.000000       35.4500           0
   80416 ION  2409 CLA  CLA  CLA   -1.000000       35.4500           0
   80417 ION  2410 CLA  CLA  CLA   -1.000000       35.4500           0
   80418 ION  2411 CLA  CLA  CLA   -1.000000       35.4500           0
   80419 ION  2412 CLA  CLA  CLA   -1.000000       35.4500           0
   80420 ION  2413 CLA  CLA  CLA   -1.000000       35.4500           0
   80421 ION  2414 CLA  CLA  CLA   -1.000000       35.4500           0
   80422 ION  2415 CLA  CLA  CLA   -1.000000       35.4500           0
   80423 ION  2416 CLA  CLA  CLA   -1.000000       35.4500           0
   80424 ION  2417 CLA  CLA  CLA   -1.000000       35.4500           0
   80425 ION  2418 CLA  CLA  CLA   -1.000000       35.4500           0
   80426 ION  2419 CLA  CLA  CLA   -1.000000       35.4500           0
   80427 ION  2420 CLA  CLA  CLA   -1.000000       35.4500           0
   80428 ION  2421 CLA  CLA  CLA   -1.000000       35.4500           0
   80429 ION  2422 CLA  CLA  CLA   -1.000000       35.4500           0
   80430 ION  2423 CLA  CLA  CLA   -1.000000       35.4500           0
   80431 ION  2424 CLA  CLA  CLA   -1.000000       35.4500           0
   80432 ION  2425 CLA  CLA  CLA   -1.000000       35.4500           0
   80433 ION  2426 CLA  CLA  CLA   -1.000000       35.4500           0
   80434 ION  2427 CLA  CLA  CLA   -1.000000       35.4500           0
   80435 ION  2428 CLA  CLA  CLA   -1.000000       35.4500           0
   80436 ION  2429 CLA  CLA  CLA   -1.000000       35.4500           0
   80437 ION  2430 CLA  CLA  CLA   -1.000000       35.4500           0
   80438 ION  2431 CLA  CLA  CLA   -1.000000       35.4500           0
   80439 ION  2432 CLA  CLA  CLA   -1.000000       35.4500           0
   80440 ION  2433 CLA  CLA  CLA   -1.000000       35.4500           0
   80441 ION  2434 CLA  CLA  CLA   -1.000000       35.4500           0
   80442 ION  2435 CLA  CLA  CLA   -1.000000       35.4500           0
   80443 ION  2436 CLA  CLA  CLA   -1.000000       35.4500           0
   80444 ION  2437 CLA  CLA  CLA   -1.000000       35.4500           0
   80445 ION  2438 CLA  CLA  CLA   -1.000000       35.4500           0
   80446 ION  2439 CLA  CLA  CLA   -1.000000       35.4500           0
   80447 ION  2440 CLA  CLA  CLA   -1.000000       35.4500           0
   80448 ION  2441 CLA  CLA  CLA   -1.000000       35.4500           0
   80449 ION  2442 CLA  CLA  CLA   -1.000000       35.4500           0
   80450 ION  2443 CLA  CLA  CLA   -1.000000       35.4500           0
   80451 ION  2444 CLA  CLA  CLA   -1.000000       35.4500           0
   80452 ION  2445 CLA  CLA  CLA   -1.000000       35.4500           0
   80453 ION  2446 CLA  CLA  CLA   -1.000000       35.4500           0
   80454 ION  2447 CLA  CLA  CLA   -1.000000       35.4500           0
   80455 ION  2448 CLA  CLA  CLA   -1.000000       35.4500           0
   80456 ION  2449 CLA  CLA  CLA   -1.000000       35.4500           0
   80457 ION  2450 CLA  CLA  CLA   -1.000000       35.4500           0
   80458 ION  2451 CLA  CLA  CLA   -1.000000       35.4500           0
   80459 ION  2452 CLA  CLA  CLA   -1.000000       35.4500           0
   80460 ION  2453 CLA  CLA  CLA   -1.000000       35.4500           0
   80461 ION  2454 CLA  CLA  CLA   -1.000000       35.4500           0
   80462 ION  2455 CLA  CLA  CLA   -1.000000       35.4500           0
   80463 ION  2456 CLA  CLA  CLA   -1.000000       35.4500           0
   80464 ION  2457 CLA  CLA  CLA   -1.000000       35.4500           0
   80465 ION  2458 CLA  CLA  CLA   -1.000000       35.4500           0
   80466 ION  2459 CLA  CLA  CLA   -1.000000       35.4500           0
   80467 ION  2460 CLA  CLA  CLA   -1.000000       35.4500           0
   80468 ION  2461 CLA  CLA  CLA   -1.000000       35.4500           0
   80469 ION  2462 CLA  CLA  CLA   -1.000000       35.4500           0
   80470 ION  2463 CLA  CLA  CLA   -1.000000       35.4500           0
   80471 ION  2464 CLA  CLA  CLA   -1.000000       35.4500           0
   80472 ION  2465 CLA  CLA  CLA   -1.000000       35.4500           0
   80473 ION  2466 CLA  CLA  CLA   -1.000000       35.4500           0
   80474 ION  2467 CLA  CLA  CLA   -1.000000       35.4500           0
   80475 ION  2468 CLA  CLA  CLA   -1.000000       35.4500           0
   80476 ION  2469 CLA  CLA  CLA   -1.000000       35.4500           0
   80477 ION  2470 CLA  CLA  CLA   -1.000000       35.4500           0
   80478 ION  2471 CLA  CLA  CLA   -1.000000       35.4500           0
   80479 ION  2472 CLA  CLA  CLA   -1.000000       35.4500           0
   80480 ION  2473 CLA  CLA  CLA   -1.000000       35.4500           0
   80481 ION  2474 CLA  CLA  CLA   -1.000000       35.4500           0
   80482 ION  2475 CLA  CLA  CLA   -1.000000       35.4500           0
   80483 ION  2476 CLA  CLA  CLA   -1.000000       35.4500           0
   80484 ION  2477 CLA  CLA  CLA   -1.000000       35.4500           0
   80485 ION  2478 CLA  CLA  CLA   -1.000000       35.4500           0
   80486 ION  2479 CLA  CLA  CLA   -1.000000       35.4500           0
   80487 ION  2480 CLA  CLA  CLA   -1.000000       35.4500           0
   80488 ION  2481 CLA  CLA  CLA   -1.000000       35.4500           0
   80489 ION  2482 CLA  CLA  CLA   -1.000000       35.4500           0
   80490 ION  2483 CLA  CLA  CLA   -1.000000       35.4500           0
   80491 ION  2484 CLA  CLA  CLA   -1.000000       35.4500           0
   80492 ION  2485 CLA  CLA  CLA   -1.000000       35.4500           0
   80493 ION  2486 CLA  CLA  CLA   -1.000000       35.4500           0
   80494 ION  2487 CLA  CLA  CLA   -1.000000       35.4500           0
   80495 ION  2488 CLA  CLA  CLA   -1.000000       35.4500           0
   80496 ION  2489 CLA  CLA  CLA   -1.000000       35.4500           0
   80497 ION  2490 CLA  CLA  CLA   -1.000000       35.4500           0
   80498 ION  2491 CLA  CLA  CLA   -1.000000       35.4500           0
   80499 ION  2492 CLA  CLA  CLA   -1.000000       35.4500           0
   80500 ION  2493 CLA  CLA  CLA   -1.000000       35.4500           0
   80501 ION  2494 CLA  CLA  CLA   -1.000000       35.4500           0
   80502 ION  2495 CLA  CLA  CLA   -1.000000       35.4500           0
   80503 ION  2496 CLA  CLA  CLA   -1.000000       35.4500           0
   80504 ION  2497 CLA  CLA  CLA   -1.000000       35.4500           0
   80505 ION  2498 CLA  CLA  CLA   -1.000000       35.4500           0
   80506 ION  2499 CLA  CLA  CLA   -1.000000       35.4500           0
   80507 ION  2500 CLA  CLA  CLA   -1.000000       35.4500           0
   80508 ION  2501 CLA  CLA  CLA   -1.000000       35.4500           0
   80509 ION  2502 CLA  CLA  CLA   -1.000000       35.4500           0
   80510 ION  2503 CLA  CLA  CLA   -1.000000       35.4500           0
   80511 ION  2504 CLA  CLA  CLA   -1.000000       35.4500           0
   80512 ION  2505 CLA  CLA  CLA   -1.000000       35.4500           0
   80513 ION  2506 CLA  CLA  CLA   -1.000000       35.4500           0
   80514 ION  2507 CLA  CLA  CLA   -1.000000       35.4500           0
   80515 ION  2508 CLA  CLA  CLA   -1.000000       35.4500           0
   80516 ION  2509 CLA  CLA  CLA   -1.000000       35.4500           0
   80517 ION  2510 CLA  CLA  CLA   -1.000000       35.4500           0
   80518 ION  2511 CLA  CLA  CLA   -1.000000       35.4500           0
   80519 ION  2512 CLA  CLA  CLA   -1.000000       35.4500           0
   80520 ION  2513 CLA  CLA  CLA   -1.000000       35.4500           0
   80521 ION  2514 CLA  CLA  CLA   -1.000000       35.4500           0
   80522 ION  2515 CLA  CLA  CLA   -1.000000       35.4500           0
   80523 ION  2516 CLA  CLA  CLA   -1.000000       35.4500           0
   80524 ION  2517 CLA  CLA  CLA   -1.000000       35.4500           0
   80525 ION  2518 CLA  CLA  CLA   -1.000000       35.4500           0
   80526 ION  2519 CLA  CLA  CLA   -1.000000       35.4500           0
   80527 ION  2520 CLA  CLA  CLA   -1.000000       35.4500           0
   80528 ION  2521 CLA  CLA  CLA   -1.000000       35.4500           0
   80529 ION  2522 CLA  CLA  CLA   -1.000000       35.4500           0
   80530 ION  2523 CLA  CLA  CLA   -1.000000       35.4500           0
   80531 ION  2524 CLA  CLA  CLA   -1.000000       35.4500           0
   80532 ION  2525 CLA  CLA  CLA   -1.000000       35.4500           0
   80533 ION  2526 CLA  CLA  CLA   -1.000000       35.4500           0
   80534 ION  2527 CLA  CLA  CLA   -1.000000       35.4500           0
   80535 ION  2528 CLA  CLA  CLA   -1.000000       35.4500           0
   80536 ION  2529 CLA  CLA  CLA   -1.000000       35.4500           0
   80537 ION  2530 CLA  CLA  CLA   -1.000000       35.4500           0
   80538 ION  2531 CLA  CLA  CLA   -1.000000       35.4500           0
   80539 ION  2532 CLA  CLA  CLA   -1.000000       35.4500           0
   80540 ION  2533 CLA  CLA  CLA   -1.000000       35.4500           0
   80541 ION  2534 CLA  CLA  CLA   -1.000000       35.4500           0
   80542 ION  2535 CLA  CLA  CLA   -1.000000       35.4500           0
   80543 ION  2536 CLA  CLA  CLA   -1.000000       35.4500           0
   80544 ION  2537 CLA  CLA  CLA   -1.000000       35.4500           0
   80545 ION  2538 CLA  CLA  CLA   -1.000000       35.4500           0
   80546 ION  2539 CLA  CLA  CLA   -1.000000       35.4500           0
   80547 ION  2540 CLA  CLA  CLA   -1.000000       35.4500           0
   80548 ION  2541 CLA  CLA  CLA   -1.000000       35.4500           0
   80549 ION  2542 CLA  CLA  CLA   -1.000000       35.4500           0
   80550 ION  2543 CLA  CLA  CLA   -1.000000       35.4500           0
   80551 ION  2544 CLA  CLA  CLA   -1.000000       35.4500           0
   80552 ION  2545 CLA  CLA  CLA   -1.000000       35.4500           0
   80553 ION  2546 CLA  CLA  CLA   -1.000000       35.4500           0
   80554 ION  2547 CLA  CLA  CLA   -1.000000       35.4500           0
   80555 ION  2548 CLA  CLA  CLA   -1.000000       35.4500           0
   80556 ION  2549 CLA  CLA  CLA   -1.000000       35.4500           0
   80557 ION  2550 CLA  CLA  CLA   -1.000000       35.4500           0
   80558 ION  2551 CLA  CLA  CLA   -1.000000       35.4500           0
   80559 ION  2552 CLA  CLA  CLA   -1.000000       35.4500           0
   80560 ION  2553 CLA  CLA  CLA   -1.000000       35.4500           0
   80561 ION  2554 CLA  CLA  CLA   -1.000000       35.4500           0
   80562 ION  2555 CLA  CLA  CLA   -1.000000       35.4500           0
   80563 ION  2556 CLA  CLA  CLA   -1.000000       35.4500           0
   80564 ION  2557 CLA  CLA  CLA   -1.000000       35.4500           0
   80565 ION  2558 CLA  CLA  CLA   -1.000000       35.4500           0
   80566 ION  2559 CLA  CLA  CLA   -1.000000       35.4500           0
   80567 ION  2560 CLA  CLA  CLA   -1.000000       35.4500           0
   80568 ION  2561 CLA  CLA  CLA   -1.000000       35.4500           0
   80569 ION  2562 CLA  CLA  CLA   -1.000000       35.4500           0
   80570 ION  2563 CLA  CLA  CLA   -1.000000       35.4500           0
   80571 ION  2564 CLA  CLA  CLA   -1.000000       35.4500           0
   80572 ION  2565 CLA  CLA  CLA   -1.000000       35.4500           0
   80573 ION  2566 CLA  CLA  CLA   -1.000000       35.4500           0
   80574 ION  2567 CLA  CLA  CLA   -1.000000       35.4500           0
   80575 ION  2568 CLA  CLA  CLA   -1.000000       35.4500           0
   80576 ION  2569 CLA  CLA  CLA   -1.000000       35.4500           0
   80577 ION  2570 CLA  CLA  CLA   -1.000000       35.4500           0
   80578 ION  2571 CLA  CLA  CLA   -1.000000       35.4500           0
   80579 ION  2572 CLA  CLA  CLA   -1.000000       35.4500           0
   80580 ION  2573 CLA  CLA  CLA   -1.000000       35.4500           0
   80581 ION  2574 CLA  CLA  CLA   -1.000000       35.4500           0
   80582 ION  2575 CLA  CLA  CLA   -1.000000       35.4500           0
   80583 ION  2576 CLA  CLA  CLA   -1.000000       35.4500           0
   80584 ION  2577 CLA  CLA  CLA   -1.000000       35.4500           0
   80585 ION  2578 CLA  CLA  CLA   -1.000000       35.4500           0
   80586 ION  2579 CLA  CLA  CLA   -1.000000       35.4500           0
   80587 ION  2580 CLA  CLA  CLA   -1.000000       35.4500           0
   80588 ION  2581 CLA  CLA  CLA   -1.000000       35.4500           0
   80589 ION  2582 CLA  CLA  CLA   -1.000000       35.4500           0
   80590 ION  2583 CLA  CLA  CLA   -1.000000       35.4500           0
   80591 ION  2584 CLA  CLA  CLA   -1.000000       35.4500           0
   80592 ION  2585 CLA  CLA  CLA   -1.000000       35.4500           0
   80593 ION  2586 CLA  CLA  CLA   -1.000000       35.4500           0
   80594 ION  2587 CLA  CLA  CLA   -1.000000       35.4500           0
   80595 ION  2588 CLA  CLA  CLA   -1.000000       35.4500           0
   80596 ION  2589 CLA  CLA  CLA   -1.000000       35.4500           0
   80597 ION  2590 CLA  CLA  CLA   -1.000000       35.4500           0
   80598 ION  2591 CLA  CLA  CLA   -1.000000       35.4500           0
   80599 ION  2592 CLA  CLA  CLA   -1.000000       35.4500           0
   80600 ION  2593 CLA  CLA  CLA   -1.000000       35.4500           0
   80601 ION  2594 CLA  CLA  CLA   -1.000000       35.4500           0
   80602 ION  2595 CLA  CLA  CLA   -1.000000       35.4500           0
   80603 ION  2596 CLA  CLA  CLA   -1.000000       35.4500           0
   80604 ION  2597 CLA  CLA  CLA   -1.000000       35.4500           0
   80605 ION  2598 CLA  CLA  CLA   -1.000000       35.4500           0
   80606 ION  2599 CLA  CLA  CLA   -1.000000       35.4500           0
   80607 ION  2600 CLA  CLA  CLA   -1.000000       35.4500           0
   80608 ION  2601 CLA  CLA  CLA   -1.000000       35.4500           0
   80609 ION  2602 CLA  CLA  CLA   -1.000000       35.4500           0
   80610 ION  2603 CLA  CLA  CLA   -1.000000       35.4500           0
   80611 ION  2604 CLA  CLA  CLA   -1.000000       35.4500           0
   80612 ION  2605 CLA  CLA  CLA   -1.000000       35.4500           0
   80613 ION  2606 CLA  CLA  CLA   -1.000000       35.4500           0
   80614 ION  2607 CLA  CLA  CLA   -1.000000       35.4500           0
   80615 ION  2608 CLA  CLA  CLA   -1.000000       35.4500           0
   80616 ION  2609 CLA  CLA  CLA   -1.000000       35.4500           0
   80617 ION  2610 CLA  CLA  CLA   -1.000000       35.4500           0
   80618 ION  2611 CLA  CLA  CLA   -1.000000       35.4500           0
   80619 ION  2612 CLA  CLA  CLA   -1.000000       35.4500           0
   80620 ION  2613 CLA  CLA  CLA   -1.000000       35.4500           0
   80621 ION  2614 CLA  CLA  CLA   -1.000000       35.4500           0
   80622 ION  2615 CLA  CLA  CLA   -1.000000       35.4500           0
   80623 ION  2616 CLA  CLA  CLA   -1.000000       35.4500           0
   80624 ION  2617 CLA  CLA  CLA   -1.000000       35.4500           0
   80625 ION  2618 CLA  CLA  CLA   -1.000000       35.4500           0
   80626 ION  2619 CLA  CLA  CLA   -1.000000       35.4500           0
   80627 ION  2620 CLA  CLA  CLA   -1.000000       35.4500           0
   80628 ION  2621 CLA  CLA  CLA   -1.000000       35.4500           0
   80629 ION  2622 CLA  CLA  CLA   -1.000000       35.4500           0
   80630 ION  2623 CLA  CLA  CLA   -1.000000       35.4500           0
   80631 ION  2624 CLA  CLA  CLA   -1.000000       35.4500           0
   80632 ION  2625 CLA  CLA  CLA   -1.000000       35.4500           0
   80633 ION  2626 CLA  CLA  CLA   -1.000000       35.4500           0
   80634 ION  2627 CLA  CLA  CLA   -1.000000       35.4500           0
   80635 ION  2628 CLA  CLA  CLA   -1.000000       35.4500           0
   80636 ION  2629 CLA  CLA  CLA   -1.000000       35.4500           0
   80637 ION  2630 CLA  CLA  CLA   -1.000000       35.4500           0
   80638 ION  2631 CLA  CLA  CLA   -1.000000       35.4500           0
   80639 ION  2632 CLA  CLA  CLA   -1.000000       35.4500           0
   80640 ION  2633 CLA  CLA  CLA   -1.000000       35.4500           0
   80641 ION  2634 CLA  CLA  CLA   -1.000000       35.4500           0
   80642 ION  2635 CLA  CLA  CLA   -1.000000       35.4500           0
   80643 ION  2636 CLA  CLA  CLA   -1.000000       35.4500           0
   80644 ION  2637 CLA  CLA  CLA   -1.000000       35.4500           0
   80645 ION  2638 CLA  CLA  CLA   -1.000000       35.4500           0
   80646 ION  2639 CLA  CLA  CLA   -1.000000       35.4500           0
   80647 ION  2640 CLA  CLA  CLA   -1.000000       35.4500           0
   80648 ION  2641 CLA  CLA  CLA   -1.000000       35.4500           0
   80649 ION  2642 CLA  CLA  CLA   -1.000000       35.4500           0
   80650 ION  2643 CLA  CLA  CLA   -1.000000       35.4500           0
   80651 ION  2644 CLA  CLA  CLA   -1.000000       35.4500           0
   80652 ION  2645 CLA  CLA  CLA   -1.000000       35.4500           0
   80653 ION  2646 CLA  CLA  CLA   -1.000000       35.4500           0
   80654 ION  2647 CLA  CLA  CLA   -1.000000       35.4500           0
   80655 ION  2648 CLA  CLA  CLA   -1.000000       35.4500           0
   80656 ION  2649 CLA  CLA  CLA   -1.000000       35.4500           0
   80657 ION  2650 CLA  CLA  CLA   -1.000000       35.4500           0
   80658 ION  2651 CLA  CLA  CLA   -1.000000       35.4500           0
   80659 ION  2652 CLA  CLA  CLA   -1.000000       35.4500           0
   80660 ION  2653 CLA  CLA  CLA   -1.000000       35.4500           0
   80661 ION  2654 CLA  CLA  CLA   -1.000000       35.4500           0
   80662 ION  2655 CLA  CLA  CLA   -1.000000       35.4500           0
   80663 ION  2656 CLA  CLA  CLA   -1.000000       35.4500           0
   80664 ION  2657 CLA  CLA  CLA   -1.000000       35.4500           0
   80665 ION  2658 CLA  CLA  CLA   -1.000000       35.4500           0
   80666 ION  2659 CLA  CLA  CLA   -1.000000       35.4500           0
   80667 ION  2660 CLA  CLA  CLA   -1.000000       35.4500           0
   80668 ION  2661 CLA  CLA  CLA   -1.000000       35.4500           0
   80669 ION  2662 CLA  CLA  CLA   -1.000000       35.4500           0
   80670 ION  2663 CLA  CLA  CLA   -1.000000       35.4500           0
   80671 ION  2664 CLA  CLA  CLA   -1.000000       35.4500           0
   80672 ION  2665 CLA  CLA  CLA   -1.000000       35.4500           0
   80673 ION  2666 CLA  CLA  CLA   -1.000000       35.4500           0
   80674 ION  2667 CLA  CLA  CLA   -1.000000       35.4500           0
   80675 ION  2668 CLA  CLA  CLA   -1.000000       35.4500           0
   80676 ION  2669 CLA  CLA  CLA   -1.000000       35.4500           0
   80677 ION  2670 CLA  CLA  CLA   -1.000000       35.4500           0
   80678 ION  2671 CLA  CLA  CLA   -1.000000       35.4500           0
   80679 ION  2672 CLA  CLA  CLA   -1.000000       35.4500           0
   80680 ION  2673 CLA  CLA  CLA   -1.000000       35.4500           0
   80681 ION  2674 CLA  CLA  CLA   -1.000000       35.4500           0
   80682 ION  2675 CLA  CLA  CLA   -1.000000       35.4500           0
   80683 ION  2676 CLA  CLA  CLA   -1.000000       35.4500           0
   80684 ION  2677 CLA  CLA  CLA   -1.000000       35.4500           0
   80685 ION  2678 CLA  CLA  CLA   -1.000000       35.4500           0
   80686 ION  2679 CLA  CLA  CLA   -1.000000       35.4500           0
   80687 ION  2680 CLA  CLA  CLA   -1.000000       35.4500           0
   80688 ION  2681 CLA  CLA  CLA   -1.000000       35.4500           0
   80689 ION  2682 CLA  CLA  CLA   -1.000000       35.4500           0
   80690 ION  2683 CLA  CLA  CLA   -1.000000       35.4500           0
   80691 ION  2684 CLA  CLA  CLA   -1.000000       35.4500           0
   80692 ION  2685 CLA  CLA  CLA   -1.000000       35.4500           0
   80693 ION  2686 CLA  CLA  CLA   -1.000000       35.4500           0
   80694 ION  2687 CLA  CLA  CLA   -1.000000       35.4500           0
   80695 ION  2688 CLA  CLA  CLA   -1.000000       35.4500           0
   80696 ION  2689 CLA  CLA  CLA   -1.000000       35.4500           0
   80697 ION  2690 CLA  CLA  CLA   -1.000000       35.4500           0
   80698 ION  2691 CLA  CLA  CLA   -1.000000       35.4500           0
   80699 ION  2692 CLA  CLA  CLA   -1.000000       35.4500           0
   80700 ION  2693 CLA  CLA  CLA   -1.000000       35.4500           0
   80701 ION  2694 CLA  CLA  CLA   -1.000000       35.4500           0
   80702 ION  2695 CLA  CLA  CLA   -1.000000       35.4500           0
   80703 ION  2696 CLA  CLA  CLA   -1.000000       35.4500           0
   80704 ION  2697 CLA  CLA  CLA   -1.000000       35.4500           0
   80705 ION  2698 CLA  CLA  CLA   -1.000000       35.4500           0
   80706 ION  2699 CLA  CLA  CLA   -1.000000       35.4500           0
   80707 ION  2700 CLA  CLA  CLA   -1.000000       35.4500           0
   80708 ION  2701 CLA  CLA  CLA   -1.000000       35.4500           0
   80709 ION  2702 CLA  CLA  CLA   -1.000000       35.4500           0
   80710 ION  2703 CLA  CLA  CLA   -1.000000       35.4500           0
   80711 ION  2704 CLA  CLA  CLA   -1.000000       35.4500           0
   80712 ION  2705 CLA  CLA  CLA   -1.000000       35.4500           0
   80713 ION  2706 CLA  CLA  CLA   -1.000000       35.4500           0
   80714 ION  2707 CLA  CLA  CLA   -1.000000       35.4500           0
   80715 ION  2708 CLA  CLA  CLA   -1.000000       35.4500           0
   80716 ION  2709 CLA  CLA  CLA   -1.000000       35.4500           0
   80717 ION  2710 CLA  CLA  CLA   -1.000000       35.4500           0
   80718 ION  2711 CLA  CLA  CLA   -1.000000       35.4500           0
   80719 ION  2712 CLA  CLA  CLA   -1.000000       35.4500           0
   80720 ION  2713 CLA  CLA  CLA   -1.000000       35.4500           0
   80721 ION  2714 CLA  CLA  CLA   -1.000000       35.4500           0
   80722 ION  2715 CLA  CLA  CLA   -1.000000       35.4500           0
   80723 ION  2716 CLA  CLA  CLA   -1.000000       35.4500           0
   80724 ION  2717 CLA  CLA  CLA   -1.000000       35.4500           0
   80725 ION  2718 CLA  CLA  CLA   -1.000000       35.4500           0
   80726 ION  2719 CLA  CLA  CLA   -1.000000       35.4500           0
   80727 ION  2720 CLA  CLA  CLA   -1.000000       35.4500           0
   80728 ION  2721 CLA  CLA  CLA   -1.000000       35.4500           0
   80729 ION  2722 CLA  CLA  CLA   -1.000000       35.4500           0
   80730 ION  2723 CLA  CLA  CLA   -1.000000       35.4500           0
   80731 ION  2724 CLA  CLA  CLA   -1.000000       35.4500           0
   80732 ION  2725 CLA  CLA  CLA   -1.000000       35.4500           0
   80733 ION  2726 CLA  CLA  CLA   -1.000000       35.4500           0
   80734 ION  2727 CLA  CLA  CLA   -1.000000       35.4500           0
   80735 ION  2728 CLA  CLA  CLA   -1.000000       35.4500           0
   80736 ION  2729 CLA  CLA  CLA   -1.000000       35.4500           0
   80737 ION  2730 CLA  CLA  CLA   -1.000000       35.4500           0
   80738 ION  2731 CLA  CLA  CLA   -1.000000       35.4500           0
   80739 ION  2732 CLA  CLA  CLA   -1.000000       35.4500           0
   80740 ION  2733 CLA  CLA  CLA   -1.000000       35.4500           0
   80741 ION  2734 CLA  CLA  CLA   -1.000000       35.4500           0
   80742 ION  2735 CLA  CLA  CLA   -1.000000       35.4500           0
   80743 ION  2736 CLA  CLA  CLA   -1.000000       35.4500           0
   80744 ION  2737 CLA  CLA  CLA   -1.000000       35.4500           0
   80745 ION  2738 CLA  CLA  CLA   -1.000000       35.4500           0
   80746 ION  2739 CLA  CLA  CLA   -1.000000       35.4500           0
   80747 ION  2740 CLA  CLA  CLA   -1.000000       35.4500           0
   80748 ION  2741 CLA  CLA  CLA   -1.000000       35.4500           0
   80749 ION  2742 CLA  CLA  CLA   -1.000000       35.4500           0
   80750 ION  2743 CLA  CLA  CLA   -1.000000       35.4500           0
   80751 ION  2744 CLA  CLA  CLA   -1.000000       35.4500           0
   80752 ION  2745 CLA  CLA  CLA   -1.000000       35.4500           0
   80753 ION  2746 CLA  CLA  CLA   -1.000000       35.4500           0
   80754 ION  2747 CLA  CLA  CLA   -1.000000       35.4500           0
   80755 ION  2748 CLA  CLA  CLA   -1.000000       35.4500           0
   80756 ION  2749 CLA  CLA  CLA   -1.000000       35.4500           0
   80757 ION  2750 CLA  CLA  CLA   -1.000000       35.4500           0
   80758 ION  2751 CLA  CLA  CLA   -1.000000       35.4500           0
   80759 ION  2752 CLA  CLA  CLA   -1.000000       35.4500           0
   80760 ION  2753 CLA  CLA  CLA   -1.000000       35.4500           0
   80761 ION  2754 CLA  CLA  CLA   -1.000000       35.4500           0
   80762 ION  2755 CLA  CLA  CLA   -1.000000       35.4500           0
   80763 ION  2756 CLA  CLA  CLA   -1.000000       35.4500           0
   80764 ION  2757 CLA  CLA  CLA   -1.000000       35.4500           0
   80765 ION  2758 CLA  CLA  CLA   -1.000000       35.4500           0
   80766 ION  2759 CLA  CLA  CLA   -1.000000       35.4500           0
   80767 ION  2760 CLA  CLA  CLA   -1.000000       35.4500           0
   80768 ION  2761 CLA  CLA  CLA   -1.000000       35.4500           0
   80769 ION  2762 CLA  CLA  CLA   -1.000000       35.4500           0
   80770 ION  2763 CLA  CLA  CLA   -1.000000       35.4500           0
   80771 ION  2764 CLA  CLA  CLA   -1.000000       35.4500           0
   80772 ION  2765 CLA  CLA  CLA   -1.000000       35.4500           0
   80773 ION  2766 CLA  CLA  CLA   -1.000000       35.4500           0
   80774 ION  2767 CLA  CLA  CLA   -1.000000       35.4500           0
   80775 ION  2768 CLA  CLA  CLA   -1.000000       35.4500           0
   80776 ION  2769 CLA  CLA  CLA   -1.000000       35.4500           0
   80777 ION  2770 CLA  CLA  CLA   -1.000000       35.4500           0
   80778 ION  2771 CLA  CLA  CLA   -1.000000       35.4500           0
   80779 ION  2772 CLA  CLA  CLA   -1.000000       35.4500           0
   80780 ION  2773 CLA  CLA  CLA   -1.000000       35.4500           0
   80781 ION  2774 CLA  CLA  CLA   -1.000000       35.4500           0
   80782 ION  2775 CLA  CLA  CLA   -1.000000       35.4500           0
   80783 ION  2776 CLA  CLA  CLA   -1.000000       35.4500           0
   80784 ION  2777 CLA  CLA  CLA   -1.000000       35.4500           0
   80785 ION  2778 CLA  CLA  CLA   -1.000000       35.4500           0
   80786 ION  2779 CLA  CLA  CLA   -1.000000       35.4500           0
   80787 ION  2780 CLA  CLA  CLA   -1.000000       35.4500           0
   80788 ION  2781 CLA  CLA  CLA   -1.000000       35.4500           0
   80789 ION  2782 CLA  CLA  CLA   -1.000000       35.4500           0
   80790 ION  2783 CLA  CLA  CLA   -1.000000       35.4500           0
   80791 ION  2784 CLA  CLA  CLA   -1.000000       35.4500           0
   80792 ION  2785 CLA  CLA  CLA   -1.000000       35.4500           0
   80793 ION  2786 CLA  CLA  CLA   -1.000000       35.4500           0
   80794 ION  2787 CLA  CLA  CLA   -1.000000       35.4500           0
   80795 ION  2788 CLA  CLA  CLA   -1.000000       35.4500           0
   80796 ION  2789 CLA  CLA  CLA   -1.000000       35.4500           0
   80797 ION  2790 CLA  CLA  CLA   -1.000000       35.4500           0
   80798 ION  2791 CLA  CLA  CLA   -1.000000       35.4500           0
   80799 ION  2792 CLA  CLA  CLA   -1.000000       35.4500           0
   80800 ION  2793 CLA  CLA  CLA   -1.000000       35.4500           0
   80801 ION  2794 CLA  CLA  CLA   -1.000000       35.4500           0
   80802 ION  2795 CLA  CLA  CLA   -1.000000       35.4500           0
   80803 ION  2796 CLA  CLA  CLA   -1.000000       35.4500           0
   80804 ION  2797 CLA  CLA  CLA   -1.000000       35.4500           0
   80805 ION  2798 CLA  CLA  CLA   -1.000000       35.4500           0
   80806 ION  2799 CLA  CLA  CLA   -1.000000       35.4500           0
   80807 ION  2800 CLA  CLA  CLA   -1.000000       35.4500           0
   80808 ION  2801 CLA  CLA  CLA   -1.000000       35.4500           0
   80809 ION  2802 CLA  CLA  CLA   -1.000000       35.4500           0
   80810 ION  2803 CLA  CLA  CLA   -1.000000       35.4500           0
   80811 ION  2804 CLA  CLA  CLA   -1.000000       35.4500           0
   80812 ION  2805 CLA  CLA  CLA   -1.000000       35.4500           0
   80813 ION  2806 CLA  CLA  CLA   -1.000000       35.4500           0
   80814 ION  2807 CLA  CLA  CLA   -1.000000       35.4500           0
   80815 ION  2808 CLA  CLA  CLA   -1.000000       35.4500           0
   80816 ION  2809 CLA  CLA  CLA   -1.000000       35.4500           0
   80817 ION  2810 CLA  CLA  CLA   -1.000000       35.4500           0
   80818 ION  2811 CLA  CLA  CLA   -1.000000       35.4500           0
   80819 ION  2812 CLA  CLA  CLA   -1.000000       35.4500           0
   80820 ION  2813 CLA  CLA  CLA   -1.000000       35.4500           0
   80821 ION  2814 CLA  CLA  CLA   -1.000000       35.4500           0
   80822 ION  2815 CLA  CLA  CLA   -1.000000       35.4500           0
   80823 ION  2816 CLA  CLA  CLA   -1.000000       35.4500           0
   80824 ION  2817 CLA  CLA  CLA   -1.000000       35.4500           0
   80825 ION  2818 CLA  CLA  CLA   -1.000000       35.4500           0
   80826 ION  2819 CLA  CLA  CLA   -1.000000       35.4500           0
   80827 ION  2820 CLA  CLA  CLA   -1.000000       35.4500           0
   80828 ION  2821 CLA  CLA  CLA   -1.000000       35.4500           0
   80829 ION  2822 CLA  CLA  CLA   -1.000000       35.4500           0
   80830 ION  2823 CLA  CLA  CLA   -1.000000       35.4500           0
   80831 ION  2824 CLA  CLA  CLA   -1.000000       35.4500           0
   80832 ION  2825 CLA  CLA  CLA   -1.000000       35.4500           0
   80833 ION  2826 CLA  CLA  CLA   -1.000000       35.4500           0
   80834 ION  2827 CLA  CLA  CLA   -1.000000       35.4500           0
   80835 ION  2828 CLA  CLA  CLA   -1.000000       35.4500           0
   80836 ION  2829 CLA  CLA  CLA   -1.000000       35.4500           0
   80837 ION  2830 CLA  CLA  CLA   -1.000000       35.4500           0
   80838 ION  2831 CLA  CLA  CLA   -1.000000       35.4500           0
   80839 ION  2832 CLA  CLA  CLA   -1.000000       35.4500           0
   80840 ION  2833 CLA  CLA  CLA   -1.000000       35.4500           0
   80841 ION  2834 CLA  CLA  CLA   -1.000000       35.4500           0
   80842 ION  2835 CLA  CLA  CLA   -1.000000       35.4500           0
   80843 ION  2836 CLA  CLA  CLA   -1.000000       35.4500           0
   80844 ION  2837 CLA  CLA  CLA   -1.000000       35.4500           0
   80845 ION  2838 CLA  CLA  CLA   -1.000000       35.4500           0
   80846 ION  2839 CLA  CLA  CLA   -1.000000       35.4500           0
   80847 ION  2840 CLA  CLA  CLA   -1.000000       35.4500           0
   80848 ION  2841 CLA  CLA  CLA   -1.000000       35.4500           0
   80849 ION  2842 CLA  CLA  CLA   -1.000000       35.4500           0
   80850 ION  2843 CLA  CLA  CLA   -1.000000       35.4500           0
   80851 ION  2844 CLA  CLA  CLA   -1.000000       35.4500           0
   80852 ION  2845 CLA  CLA  CLA   -1.000000       35.4500           0
   80853 ION  2846 CLA  CLA  CLA   -1.000000       35.4500           0
   80854 ION  2847 CLA  CLA  CLA   -1.000000       35.4500           0
   80855 ION  2848 CLA  CLA  CLA   -1.000000       35.4500           0
   80856 ION  2849 CLA  CLA  CLA   -1.000000       35.4500           0
   80857 ION  2850 CLA  CLA  CLA   -1.000000       35.4500           0
   80858 ION  2851 CLA  CLA  CLA   -1.000000       35.4500           0
   80859 ION  2852 CLA  CLA  CLA   -1.000000       35.4500           0
   80860 ION  2853 CLA  CLA  CLA   -1.000000       35.4500           0
   80861 ION  2854 CLA  CLA  CLA   -1.000000       35.4500           0
   80862 ION  2855 CLA  CLA  CLA   -1.000000       35.4500           0
   80863 ION  2856 CLA  CLA  CLA   -1.000000       35.4500           0
   80864 ION  2857 CLA  CLA  CLA   -1.000000       35.4500           0
   80865 ION  2858 CLA  CLA  CLA   -1.000000       35.4500           0
   80866 ION  2859 CLA  CLA  CLA   -1.000000       35.4500           0
   80867 ION  2860 CLA  CLA  CLA   -1.000000       35.4500           0
   80868 ION  2861 CLA  CLA  CLA   -1.000000       35.4500           0
   80869 ION  2862 CLA  CLA  CLA   -1.000000       35.4500           0
   80870 ION  2863 CLA  CLA  CLA   -1.000000       35.4500           0
   80871 ION  2864 CLA  CLA  CLA   -1.000000       35.4500           0
   80872 ION  2865 CLA  CLA  CLA   -1.000000       35.4500           0
   80873 ION  2866 CLA  CLA  CLA   -1.000000       35.4500           0
   80874 ION  2867 CLA  CLA  CLA   -1.000000       35.4500           0
   80875 ION  2868 CLA  CLA  CLA   -1.000000       35.4500           0
   80876 ION  2869 CLA  CLA  CLA   -1.000000       35.4500           0
   80877 ION  2870 CLA  CLA  CLA   -1.000000       35.4500           0
   80878 ION  2871 CLA  CLA  CLA   -1.000000       35.4500           0
   80879 ION  2872 CLA  CLA  CLA   -1.000000       35.4500           0
   80880 ION  2873 CLA  CLA  CLA   -1.000000       35.4500           0
   80881 ION  2874 CLA  CLA  CLA   -1.000000       35.4500           0
   80882 ION  2875 CLA  CLA  CLA   -1.000000       35.4500           0
   80883 ION  2876 CLA  CLA  CLA   -1.000000       35.4500           0
   80884 ION  2877 CLA  CLA  CLA   -1.000000       35.4500           0
   80885 ION  2878 CLA  CLA  CLA   -1.000000       35.4500           0
   80886 ION  2879 CLA  CLA  CLA   -1.000000       35.4500           0
   80887 ION  2880 CLA  CLA  CLA   -1.000000       35.4500           0
   80888 ION  2881 CLA  CLA  CLA   -1.000000       35.4500           0
   80889 ION  2882 CLA  CLA  CLA   -1.000000       35.4500           0
   80890 ION  2883 CLA  CLA  CLA   -1.000000       35.4500           0
   80891 ION  2884 CLA  CLA  CLA   -1.000000       35.4500           0
   80892 ION  2885 CLA  CLA  CLA   -1.000000       35.4500           0
   80893 ION  2886 CLA  CLA  CLA   -1.000000       35.4500           0
   80894 ION  2887 CLA  CLA  CLA   -1.000000       35.4500           0
   80895 ION  2888 CLA  CLA  CLA   -1.000000       35.4500           0
   80896 ION  2889 CLA  CLA  CLA   -1.000000       35.4500           0
   80897 ION  2890 CLA  CLA  CLA   -1.000000       35.4500           0
   80898 ION  2891 CLA  CLA  CLA   -1.000000       35.4500           0
   80899 ION  2892 CLA  CLA  CLA   -1.000000       35.4500           0
   80900 ION  2893 CLA  CLA  CLA   -1.000000       35.4500           0
   80901 ION  2894 CLA  CLA  CLA   -1.000000       35.4500           0
   80902 ION  2895 CLA  CLA  CLA   -1.000000       35.4500           0
   80903 ION  2896 CLA  CLA  CLA   -1.000000       35.4500           0
   80904 ION  2897 CLA  CLA  CLA   -1.000000       35.4500           0
   80905 ION  2898 CLA  CLA  CLA   -1.000000       35.4500           0
   80906 ION  2899 CLA  CLA  CLA   -1.000000       35.4500           0
   80907 ION  2900 CLA  CLA  CLA   -1.000000       35.4500           0
   80908 ION  2901 CLA  CLA  CLA   -1.000000       35.4500           0
   80909 ION  2902 CLA  CLA  CLA   -1.000000       35.4500           0
   80910 ION  2903 CLA  CLA  CLA   -1.000000       35.4500           0
   80911 ION  2904 CLA  CLA  CLA   -1.000000       35.4500           0
   80912 ION  2905 CLA  CLA  CLA   -1.000000       35.4500           0
   80913 ION  2906 CLA  CLA  CLA   -1.000000       35.4500           0
   80914 ION  2907 CLA  CLA  CLA   -1.000000       35.4500           0
   80915 ION  2908 CLA  CLA  CLA   -1.000000       35.4500           0
   80916 ION  2909 CLA  CLA  CLA   -1.000000       35.4500           0
   80917 ION  2910 CLA  CLA  CLA   -1.000000       35.4500           0
   80918 ION  2911 CLA  CLA  CLA   -1.000000       35.4500           0
   80919 ION  2912 CLA  CLA  CLA   -1.000000       35.4500           0
   80920 ION  2913 CLA  CLA  CLA   -1.000000       35.4500           0
   80921 ION  2914 CLA  CLA  CLA   -1.000000       35.4500           0
   80922 ION  2915 CLA  CLA  CLA   -1.000000       35.4500           0
   80923 ION  2916 CLA  CLA  CLA   -1.000000       35.4500           0
   80924 ION  2917 CLA  CLA  CLA   -1.000000       35.4500           0
   80925 ION  2918 CLA  CLA  CLA   -1.000000       35.4500           0
   80926 ION  2919 CLA  CLA  CLA   -1.000000       35.4500           0
   80927 ION  2920 CLA  CLA  CLA   -1.000000       35.4500           0
   80928 ION  2921 CLA  CLA  CLA   -1.000000       35.4500           0
   80929 ION  2922 CLA  CLA  CLA   -1.000000       35.4500           0
   80930 ION  2923 CLA  CLA  CLA   -1.000000       35.4500           0
   80931 ION  2924 CLA  CLA  CLA   -1.000000       35.4500           0
   80932 ION  2925 CLA  CLA  CLA   -1.000000       35.4500           0
   80933 ION  2926 CLA  CLA  CLA   -1.000000       35.4500           0
   80934 ION  2927 CLA  CLA  CLA   -1.000000       35.4500           0
   80935 ION  2928 CLA  CLA  CLA   -1.000000       35.4500           0
   80936 ION  2929 CLA  CLA  CLA   -1.000000       35.4500           0
   80937 ION  2930 CLA  CLA  CLA   -1.000000       35.4500           0
   80938 ION  2931 CLA  CLA  CLA   -1.000000       35.4500           0
   80939 ION  2932 CLA  CLA  CLA   -1.000000       35.4500           0
   80940 ION  2933 CLA  CLA  CLA   -1.000000       35.4500           0
   80941 ION  2934 CLA  CLA  CLA   -1.000000       35.4500           0
   80942 ION  2935 CLA  CLA  CLA   -1.000000       35.4500           0
   80943 ION  2936 CLA  CLA  CLA   -1.000000       35.4500           0
   80944 ION  2937 CLA  CLA  CLA   -1.000000       35.4500           0
   80945 ION  2938 CLA  CLA  CLA   -1.000000       35.4500           0
   80946 ION  2939 CLA  CLA  CLA   -1.000000       35.4500           0
   80947 ION  2940 CLA  CLA  CLA   -1.000000       35.4500           0
   80948 ION  2941 CLA  CLA  CLA   -1.000000       35.4500           0
   80949 ION  2942 CLA  CLA  CLA   -1.000000       35.4500           0
   80950 ION  2943 CLA  CLA  CLA   -1.000000       35.4500           0
   80951 ION  2944 CLA  CLA  CLA   -1.000000       35.4500           0
   80952 ION  2945 CLA  CLA  CLA   -1.000000       35.4500           0
   80953 ION  2946 CLA  CLA  CLA   -1.000000       35.4500           0
   80954 ION  2947 CLA  CLA  CLA   -1.000000       35.4500           0
   80955 ION  2948 CLA  CLA  CLA   -1.000000       35.4500           0
   80956 ION  2949 CLA  CLA  CLA   -1.000000       35.4500           0
   80957 ION  2950 CLA  CLA  CLA   -1.000000       35.4500           0
   80958 ION  2951 CLA  CLA  CLA   -1.000000       35.4500           0
   80959 ION  2952 CLA  CLA  CLA   -1.000000       35.4500           0
   80960 ION  2953 CLA  CLA  CLA   -1.000000       35.4500           0
   80961 ION  2954 CLA  CLA  CLA   -1.000000       35.4500           0
   80962 ION  2955 CLA  CLA  CLA   -1.000000       35.4500           0
   80963 ION  2956 CLA  CLA  CLA   -1.000000       35.4500           0
   80964 ION  2957 CLA  CLA  CLA   -1.000000       35.4500           0
   80965 ION  2958 CLA  CLA  CLA   -1.000000       35.4500           0
   80966 ION  2959 CLA  CLA  CLA   -1.000000       35.4500           0
   80967 ION  2960 CLA  CLA  CLA   -1.000000       35.4500           0
   80968 ION  2961 CLA  CLA  CLA   -1.000000       35.4500           0
   80969 ION  2962 CLA  CLA  CLA   -1.000000       35.4500           0
   80970 ION  2963 CLA  CLA  CLA   -1.000000       35.4500           0
   80971 ION  2964 CLA  CLA  CLA   -1.000000       35.4500           0
   80972 ION  2965 CLA  CLA  CLA   -1.000000       35.4500           0
   80973 ION  2966 CLA  CLA  CLA   -1.000000       35.4500           0
   80974 ION  2967 CLA  CLA  CLA   -1.000000       35.4500           0
   80975 ION  2968 CLA  CLA  CLA   -1.000000       35.4500           0
   80976 ION  2969 CLA  CLA  CLA   -1.000000       35.4500           0
   80977 ION  2970 CLA  CLA  CLA   -1.000000       35.4500           0
   80978 ION  2971 CLA  CLA  CLA   -1.000000       35.4500           0
   80979 ION  2972 CLA  CLA  CLA   -1.000000       35.4500           0
   80980 ION  2973 CLA  CLA  CLA   -1.000000       35.4500           0
   80981 ION  2974 CLA  CLA  CLA   -1.000000       35.4500           0
   80982 ION  2975 CLA  CLA  CLA   -1.000000       35.4500           0
   80983 ION  2976 CLA  CLA  CLA   -1.000000       35.4500           0
   80984 ION  2977 CLA  CLA  CLA   -1.000000       35.4500           0
   80985 ION  2978 CLA  CLA  CLA   -1.000000       35.4500           0
   80986 ION  2979 CLA  CLA  CLA   -1.000000       35.4500           0
   80987 ION  2980 CLA  CLA  CLA   -1.000000       35.4500           0
   80988 ION  2981 CLA  CLA  CLA   -1.000000       35.4500           0
   80989 ION  2982 CLA  CLA  CLA   -1.000000       35.4500           0
   80990 ION  2983 CLA  CLA  CLA   -1.000000       35.4500           0
   80991 ION  2984 CLA  CLA  CLA   -1.000000       35.4500           0
   80992 ION  2985 CLA  CLA  CLA   -1.000000       35.4500           0
   80993 ION  2986 CLA  CLA  CLA   -1.000000       35.4500           0
   80994 ION  2987 CLA  CLA  CLA   -1.000000       35.4500           0
   80995 ION  2988 CLA  CLA  CLA   -1.000000       35.4500           0
   80996 ION  2989 CLA  CLA  CLA   -1.000000       35.4500           0
   80997 ION  2990 CLA  CLA  CLA   -1.000000       35.4500           0
   80998 ION  2991 CLA  CLA  CLA   -1.000000       35.4500           0
   80999 ION  2992 CLA  CLA  CLA   -1.000000       35.4500           0
   81000 ION  2993 CLA  CLA  CLA   -1.000000       35.4500           0
   81001 ION  2994 CLA  CLA  CLA   -1.000000       35.4500           0
   81002 ION  2995 CLA  CLA  CLA   -1.000000       35.4500           0
   81003 ION  2996 CLA  CLA  CLA   -1.000000       35.4500           0
   81004 ION  2997 CLA  CLA  CLA   -1.000000       35.4500           0
   81005 ION  2998 CLA  CLA  CLA   -1.000000       35.4500           0
   81006 ION  2999 CLA  CLA  CLA   -1.000000       35.4500           0
   81007 ION  3000 CLA  CLA  CLA   -1.000000       35.4500           0
   81008 ION  3001 CLA  CLA  CLA   -1.000000       35.4500           0
   81009 ION  3002 CLA  CLA  CLA   -1.000000       35.4500           0
   81010 ION  3003 CLA  CLA  CLA   -1.000000       35.4500           0
   81011 ION  3004 CLA  CLA  CLA   -1.000000       35.4500           0
   81012 ION  3005 CLA  CLA  CLA   -1.000000       35.4500           0
   81013 ION  3006 CLA  CLA  CLA   -1.000000       35.4500           0
   81014 ION  3007 CLA  CLA  CLA   -1.000000       35.4500           0
   81015 ION  3008 CLA  CLA  CLA   -1.000000       35.4500           0
   81016 ION  3009 CLA  CLA  CLA   -1.000000       35.4500           0
   81017 ION  3010 CLA  CLA  CLA   -1.000000       35.4500           0
   81018 ION  3011 CLA  CLA  CLA   -1.000000       35.4500           0
   81019 ION  3012 CLA  CLA  CLA   -1.000000       35.4500           0
   81020 ION  3013 CLA  CLA  CLA   -1.000000       35.4500           0
   81021 ION  3014 CLA  CLA  CLA   -1.000000       35.4500           0
   81022 ION  3015 CLA  CLA  CLA   -1.000000       35.4500           0
   81023 ION  3016 CLA  CLA  CLA   -1.000000       35.4500           0
   81024 ION  3017 CLA  CLA  CLA   -1.000000       35.4500           0
   81025 ION  3018 CLA  CLA  CLA   -1.000000       35.4500           0
   81026 ION  3019 CLA  CLA  CLA   -1.000000       35.4500           0
   81027 ION  3020 CLA  CLA  CLA   -1.000000       35.4500           0
   81028 ION  3021 CLA  CLA  CLA   -1.000000       35.4500           0
   81029 ION  3022 CLA  CLA  CLA   -1.000000       35.4500           0
   81030 ION  3023 CLA  CLA  CLA   -1.000000       35.4500           0
   81031 ION  3024 CLA  CLA  CLA   -1.000000       35.4500           0
   81032 ION  3025 CLA  CLA  CLA   -1.000000       35.4500           0
   81033 ION  3026 CLA  CLA  CLA   -1.000000       35.4500           0
   81034 ION  3027 CLA  CLA  CLA   -1.000000       35.4500           0
   81035 ION  3028 CLA  CLA  CLA   -1.000000       35.4500           0
   81036 ION  3029 CLA  CLA  CLA   -1.000000       35.4500           0
   81037 ION  3030 CLA  CLA  CLA   -1.000000       35.4500           0
   81038 ION  3031 CLA  CLA  CLA   -1.000000       35.4500           0
   81039 ION  3032 CLA  CLA  CLA   -1.000000       35.4500           0
   81040 ION  3033 CLA  CLA  CLA   -1.000000       35.4500           0
   81041 ION  3034 CLA  CLA  CLA   -1.000000       35.4500           0
   81042 ION  3035 CLA  CLA  CLA   -1.000000       35.4500           0
   81043 ION  3036 CLA  CLA  CLA   -1.000000       35.4500           0
   81044 ION  3037 CLA  CLA  CLA   -1.000000       35.4500           0
   81045 ION  3038 CLA  CLA  CLA   -1.000000       35.4500           0
   81046 ION  3039 CLA  CLA  CLA   -1.000000       35.4500           0
   81047 ION  3040 CLA  CLA  CLA   -1.000000       35.4500           0
   81048 ION  3041 CLA  CLA  CLA   -1.000000       35.4500           0
   81049 ION  3042 CLA  CLA  CLA   -1.000000       35.4500           0
   81050 ION  3043 CLA  CLA  CLA   -1.000000       35.4500           0
   81051 ION  3044 CLA  CLA  CLA   -1.000000       35.4500           0
   81052 ION  3045 CLA  CLA  CLA   -1.000000       35.4500           0
   81053 ION  3046 CLA  CLA  CLA   -1.000000       35.4500           0
   81054 ION  3047 CLA  CLA  CLA   -1.000000       35.4500           0
   81055 ION  3048 CLA  CLA  CLA   -1.000000       35.4500           0
   81056 ION  3049 CLA  CLA  CLA   -1.000000       35.4500           0
   81057 ION  3050 CLA  CLA  CLA   -1.000000       35.4500           0
   81058 ION  3051 CLA  CLA  CLA   -1.000000       35.4500           0
   81059 ION  3052 CLA  CLA  CLA   -1.000000       35.4500           0
   81060 ION  3053 CLA  CLA  CLA   -1.000000       35.4500           0
   81061 ION  3054 CLA  CLA  CLA   -1.000000       35.4500           0
   81062 ION  3055 CLA  CLA  CLA   -1.000000       35.4500           0
   81063 ION  3056 CLA  CLA  CLA   -1.000000       35.4500           0
   81064 ION  3057 CLA  CLA  CLA   -1.000000       35.4500           0
   81065 ION  3058 CLA  CLA  CLA   -1.000000       35.4500           0
   81066 ION  3059 CLA  CLA  CLA   -1.000000       35.4500           0
   81067 ION  3060 CLA  CLA  CLA   -1.000000       35.4500           0
   81068 ION  3061 CLA  CLA  CLA   -1.000000       35.4500           0
   81069 ION  3062 CLA  CLA  CLA   -1.000000       35.4500           0
   81070 ION  3063 CLA  CLA  CLA   -1.000000       35.4500           0
   81071 ION  3064 CLA  CLA  CLA   -1.000000       35.4500           0
   81072 ION  3065 CLA  CLA  CLA   -1.000000       35.4500           0
   81073 ION  3066 CLA  CLA  CLA   -1.000000       35.4500           0
   81074 ION  3067 CLA  CLA  CLA   -1.000000       35.4500           0
   81075 ION  3068 CLA  CLA  CLA   -1.000000       35.4500           0
   81076 ION  3069 CLA  CLA  CLA   -1.000000       35.4500           0
   81077 ION  3070 CLA  CLA  CLA   -1.000000       35.4500           0
   81078 ION  3071 CLA  CLA  CLA   -1.000000       35.4500           0
   81079 ION  3072 CLA  CLA  CLA   -1.000000       35.4500           0
   81080 ION  3073 CLA  CLA  CLA   -1.000000       35.4500           0
   81081 ION  3074 CLA  CLA  CLA   -1.000000       35.4500           0
   81082 ION  3075 CLA  CLA  CLA   -1.000000       35.4500           0
   81083 ION  3076 CLA  CLA  CLA   -1.000000       35.4500           0
   81084 ION  3077 CLA  CLA  CLA   -1.000000       35.4500           0
   81085 ION  3078 CLA  CLA  CLA   -1.000000       35.4500           0
   81086 ION  3079 CLA  CLA  CLA   -1.000000       35.4500           0
   81087 ION  3080 CLA  CLA  CLA   -1.000000       35.4500           0
   81088 ION  3081 CLA  CLA  CLA   -1.000000       35.4500           0
   81089 ION  3082 CLA  CLA  CLA   -1.000000       35.4500           0
   81090 ION  3083 CLA  CLA  CLA   -1.000000       35.4500           0
   81091 ION  3084 CLA  CLA  CLA   -1.000000       35.4500           0
   81092 ION  3085 CLA  CLA  CLA   -1.000000       35.4500           0
   81093 ION  3086 CLA  CLA  CLA   -1.000000       35.4500           0
   81094 ION  3087 CLA  CLA  CLA   -1.000000       35.4500           0
   81095 ION  3088 CLA  CLA  CLA   -1.000000       35.4500           0
   81096 ION  3089 CLA  CLA  CLA   -1.000000       35.4500           0
   81097 ION  3090 CLA  CLA  CLA   -1.000000       35.4500           0
   81098 ION  3091 CLA  CLA  CLA   -1.000000       35.4500           0
   81099 ION  3092 CLA  CLA  CLA   -1.000000       35.4500           0
   81100 ION  3093 CLA  CLA  CLA   -1.000000       35.4500           0
   81101 ION  3094 CLA  CLA  CLA   -1.000000       35.4500           0
   81102 ION  3095 CLA  CLA  CLA   -1.000000       35.4500           0
   81103 ION  3096 CLA  CLA  CLA   -1.000000       35.4500           0
   81104 ION  3097 CLA  CLA  CLA   -1.000000       35.4500           0
   81105 ION  3098 CLA  CLA  CLA   -1.000000       35.4500           0
   81106 ION  3099 CLA  CLA  CLA   -1.000000       35.4500           0
   81107 ION  3100 CLA  CLA  CLA   -1.000000       35.4500           0
   81108 ION  3101 CLA  CLA  CLA   -1.000000       35.4500           0
   81109 ION  3102 CLA  CLA  CLA   -1.000000       35.4500           0
   81110 ION  3103 CLA  CLA  CLA   -1.000000       35.4500           0
   81111 ION  3104 CLA  CLA  CLA   -1.000000       35.4500           0
   81112 ION  3105 CLA  CLA  CLA   -1.000000       35.4500           0
   81113 ION  3106 CLA  CLA  CLA   -1.000000       35.4500           0
   81114 ION  3107 CLA  CLA  CLA   -1.000000       35.4500           0
   81115 ION  3108 CLA  CLA  CLA   -1.000000       35.4500           0
   81116 ION  3109 CLA  CLA  CLA   -1.000000       35.4500           0
   81117 ION  3110 CLA  CLA  CLA   -1.000000       35.4500           0
   81118 ION  3111 CLA  CLA  CLA   -1.000000       35.4500           0
   81119 ION  3112 CLA  CLA  CLA   -1.000000       35.4500           0
   81120 ION  3113 CLA  CLA  CLA   -1.000000       35.4500           0
   81121 ION  3114 CLA  CLA  CLA   -1.000000       35.4500           0
   81122 ION  3115 CLA  CLA  CLA   -1.000000       35.4500           0
   81123 ION  3116 CLA  CLA  CLA   -1.000000       35.4500           0
   81124 ION  3117 CLA  CLA  CLA   -1.000000       35.4500           0
   81125 ION  3118 CLA  CLA  CLA   -1.000000       35.4500           0
   81126 ION  3119 CLA  CLA  CLA   -1.000000       35.4500           0
   81127 ION  3120 CLA  CLA  CLA   -1.000000       35.4500           0
   81128 ION  3121 CLA  CLA  CLA   -1.000000       35.4500           0
   81129 ION  3122 CLA  CLA  CLA   -1.000000       35.4500           0
   81130 ION  3123 CLA  CLA  CLA   -1.000000       35.4500           0
   81131 ION  3124 CLA  CLA  CLA   -1.000000       35.4500           0
   81132 ION  3125 CLA  CLA  CLA   -1.000000       35.4500           0
   81133 ION  3126 CLA  CLA  CLA   -1.000000       35.4500           0
   81134 ION  3127 CLA  CLA  CLA   -1.000000       35.4500           0
   81135 ION  3128 CLA  CLA  CLA   -1.000000       35.4500           0
   81136 ION  3129 CLA  CLA  CLA   -1.000000       35.4500           0
   81137 ION  3130 CLA  CLA  CLA   -1.000000       35.4500           0
   81138 ION  3131 CLA  CLA  CLA   -1.000000       35.4500           0
   81139 ION  3132 CLA  CLA  CLA   -1.000000       35.4500           0
   81140 ION  3133 CLA  CLA  CLA   -1.000000       35.4500           0
   81141 ION  3134 CLA  CLA  CLA   -1.000000       35.4500           0
   81142 ION  3135 CLA  CLA  CLA   -1.000000       35.4500           0
   81143 ION  3136 CLA  CLA  CLA   -1.000000       35.4500           0
   81144 ION  3137 CLA  CLA  CLA   -1.000000       35.4500           0
   81145 ION  3138 CLA  CLA  CLA   -1.000000       35.4500           0
   81146 ION  3139 CLA  CLA  CLA   -1.000000       35.4500           0
   81147 ION  3140 CLA  CLA  CLA   -1.000000       35.4500           0
   81148 ION  3141 CLA  CLA  CLA   -1.000000       35.4500           0
   81149 ION  3142 CLA  CLA  CLA   -1.000000       35.4500           0
   81150 ION  3143 CLA  CLA  CLA   -1.000000       35.4500           0
   81151 ION  3144 CLA  CLA  CLA   -1.000000       35.4500           0
   81152 ION  3145 CLA  CLA  CLA   -1.000000       35.4500           0
   81153 ION  3146 CLA  CLA  CLA   -1.000000       35.4500           0
   81154 ION  3147 CLA  CLA  CLA   -1.000000       35.4500           0
   81155 ION  3148 CLA  CLA  CLA   -1.000000       35.4500           0
   81156 ION  3149 CLA  CLA  CLA   -1.000000       35.4500           0
   81157 ION  3150 CLA  CLA  CLA   -1.000000       35.4500           0
   81158 ION  3151 CLA  CLA  CLA   -1.000000       35.4500           0
   81159 ION  3152 CLA  CLA  CLA   -1.000000       35.4500           0
   81160 ION  3153 CLA  CLA  CLA   -1.000000       35.4500           0
   81161 ION  3154 CLA  CLA  CLA   -1.000000       35.4500           0
   81162 ION  3155 CLA  CLA  CLA   -1.000000       35.4500           0
   81163 ION  3156 CLA  CLA  CLA   -1.000000       35.4500           0
   81164 ION  3157 CLA  CLA  CLA   -1.000000       35.4500           0
   81165 ION  3158 CLA  CLA  CLA   -1.000000       35.4500           0
   81166 ION  3159 CLA  CLA  CLA   -1.000000       35.4500           0
   81167 ION  3160 CLA  CLA  CLA   -1.000000       35.4500           0
   81168 ION  3161 CLA  CLA  CLA   -1.000000       35.4500           0
   81169 ION  3162 CLA  CLA  CLA   -1.000000       35.4500           0
   81170 ION  3163 CLA  CLA  CLA   -1.000000       35.4500           0
   81171 ION  3164 CLA  CLA  CLA   -1.000000       35.4500           0
   81172 ION  3165 CLA  CLA  CLA   -1.000000       35.4500           0
   81173 ION  3166 CLA  CLA  CLA   -1.000000       35.4500           0
   81174 ION  3167 CLA  CLA  CLA   -1.000000       35.4500           0
   81175 ION  3168 CLA  CLA  CLA   -1.000000       35.4500           0
   81176 ION  3169 CLA  CLA  CLA   -1.000000       35.4500           0
   81177 ION  3170 CLA  CLA  CLA   -1.000000       35.4500           0
   81178 ION  3171 CLA  CLA  CLA   -1.000000       35.4500           0
   81179 ION  3172 CLA  CLA  CLA   -1.000000       35.4500           0
   81180 ION  3173 CLA  CLA  CLA   -1.000000       35.4500           0
   81181 ION  3174 CLA  CLA  CLA   -1.000000       35.4500           0
   81182 ION  3175 CLA  CLA  CLA   -1.000000       35.4500           0
   81183 ION  3176 CLA  CLA  CLA   -1.000000       35.4500           0
   81184 ION  3177 CLA  CLA  CLA   -1.000000       35.4500           0
   81185 ION  3178 CLA  CLA  CLA   -1.000000       35.4500           0
   81186 ION  3179 CLA  CLA  CLA   -1.000000       35.4500           0
   81187 ION  3180 CLA  CLA  CLA   -1.000000       35.4500           0
   81188 ION  3181 CLA  CLA  CLA   -1.000000       35.4500           0
   81189 ION  3182 CLA  CLA  CLA   -1.000000       35.4500           0
   81190 ION  3183 CLA  CLA  CLA   -1.000000       35.4500           0
   81191 ION  3184 CLA  CLA  CLA   -1.000000       35.4500           0
   81192 ION  3185 CLA  CLA  CLA   -1.000000       35.4500           0
   81193 ION  3186 CLA  CLA  CLA   -1.000000       35.4500           0
   81194 ION  3187 CLA  CLA  CLA   -1.000000       35.4500           0
   81195 ION  3188 CLA  CLA  CLA   -1.000000       35.4500           0
   81196 ION  3189 CLA  CLA  CLA   -1.000000       35.4500           0
   81197 ION  3190 CLA  CLA  CLA   -1.000000       35.4500           0
   81198 ION  3191 CLA  CLA  CLA   -1.000000       35.4500           0
   81199 ION  3192 CLA  CLA  CLA   -1.000000       35.4500           0
   81200 ION  3193 CLA  CLA  CLA   -1.000000       35.4500           0
   81201 ION  3194 CLA  CLA  CLA   -1.000000       35.4500           0
   81202 ION  3195 CLA  CLA  CLA   -1.000000       35.4500           0
   81203 ION  3196 CLA  CLA  CLA   -1.000000       35.4500           0
   81204 ION  3197 CLA  CLA  CLA   -1.000000       35.4500           0
   81205 ION  3198 CLA  CLA  CLA   -1.000000       35.4500           0
   81206 ION  3199 CLA  CLA  CLA   -1.000000       35.4500           0
   81207 ION  3200 CLA  CLA  CLA   -1.000000       35.4500           0
   81208 ION  3201 CLA  CLA  CLA   -1.000000       35.4500           0
   81209 ION  3202 CLA  CLA  CLA   -1.000000       35.4500           0
   81210 ION  3203 CLA  CLA  CLA   -1.000000       35.4500           0
   81211 ION  3204 CLA  CLA  CLA   -1.000000       35.4500           0
   81212 ION  3205 CLA  CLA  CLA   -1.000000       35.4500           0
   81213 ION  3206 CLA  CLA  CLA   -1.000000       35.4500           0
   81214 ION  3207 CLA  CLA  CLA   -1.000000       35.4500           0
   81215 ION  3208 CLA  CLA  CLA   -1.000000       35.4500           0
   81216 ION  3209 CLA  CLA  CLA   -1.000000       35.4500           0
   81217 ION  3210 CLA  CLA  CLA   -1.000000       35.4500           0
   81218 ION  3211 CLA  CLA  CLA   -1.000000       35.4500           0
   81219 ION  3212 CLA  CLA  CLA   -1.000000       35.4500           0
   81220 ION  3213 CLA  CLA  CLA   -1.000000       35.4500           0
   81221 ION  3214 CLA  CLA  CLA   -1.000000       35.4500           0
   81222 ION  3215 CLA  CLA  CLA   -1.000000       35.4500           0
   81223 ION  3216 CLA  CLA  CLA   -1.000000       35.4500           0
   81224 ION  3217 CLA  CLA  CLA   -1.000000       35.4500           0
   81225 ION  3218 CLA  CLA  CLA   -1.000000       35.4500           0
   81226 ION  3219 CLA  CLA  CLA   -1.000000       35.4500           0
   81227 ION  3220 CLA  CLA  CLA   -1.000000       35.4500           0
   81228 ION  3221 CLA  CLA  CLA   -1.000000       35.4500           0
   81229 ION  3222 CLA  CLA  CLA   -1.000000       35.4500           0
   81230 ION  3223 CLA  CLA  CLA   -1.000000       35.4500           0
   81231 ION  3224 CLA  CLA  CLA   -1.000000       35.4500           0
   81232 ION  3225 CLA  CLA  CLA   -1.000000       35.4500           0
   81233 ION  3226 CLA  CLA  CLA   -1.000000       35.4500           0
   81234 ION  3227 CLA  CLA  CLA   -1.000000       35.4500           0
   81235 ION  3228 CLA  CLA  CLA   -1.000000       35.4500           0
   81236 ION  3229 CLA  CLA  CLA   -1.000000       35.4500           0
   81237 ION  3230 CLA  CLA  CLA   -1.000000       35.4500           0
   81238 ION  3231 CLA  CLA  CLA   -1.000000       35.4500           0
   81239 ION  3232 CLA  CLA  CLA   -1.000000       35.4500           0
   81240 ION  3233 CLA  CLA  CLA   -1.000000       35.4500           0
   81241 ION  3234 CLA  CLA  CLA   -1.000000       35.4500           0
   81242 ION  3235 CLA  CLA  CLA   -1.000000       35.4500           0
   81243 ION  3236 CLA  CLA  CLA   -1.000000       35.4500           0
   81244 ION  3237 CLA  CLA  CLA   -1.000000       35.4500           0
   81245 ION  3238 CLA  CLA  CLA   -1.000000       35.4500           0
   81246 ION  3239 CLA  CLA  CLA   -1.000000       35.4500           0
   81247 ION  3240 CLA  CLA  CLA   -1.000000       35.4500           0
   81248 ION  3241 CLA  CLA  CLA   -1.000000       35.4500           0
   81249 ION  3242 CLA  CLA  CLA   -1.000000       35.4500           0
   81250 ION  3243 CLA  CLA  CLA   -1.000000       35.4500           0
   81251 ION  3244 CLA  CLA  CLA   -1.000000       35.4500           0
   81252 ION  3245 CLA  CLA  CLA   -1.000000       35.4500           0
   81253 ION  3246 CLA  CLA  CLA   -1.000000       35.4500           0
   81254 ION  3247 CLA  CLA  CLA   -1.000000       35.4500           0
   81255 ION  3248 CLA  CLA  CLA   -1.000000       35.4500           0
   81256 ION  3249 CLA  CLA  CLA   -1.000000       35.4500           0
   81257 ION  3250 CLA  CLA  CLA   -1.000000       35.4500           0
   81258 ION  3251 CLA  CLA  CLA   -1.000000       35.4500           0
   81259 ION  3252 CLA  CLA  CLA   -1.000000       35.4500           0
   81260 ION  3253 CLA  CLA  CLA   -1.000000       35.4500           0
   81261 ION  3254 CLA  CLA  CLA   -1.000000       35.4500           0
   81262 ION  3255 CLA  CLA  CLA   -1.000000       35.4500           0
   81263 ION  3256 CLA  CLA  CLA   -1.000000       35.4500           0
   81264 ION  3257 CLA  CLA  CLA   -1.000000       35.4500           0
   81265 ION  3258 CLA  CLA  CLA   -1.000000       35.4500           0
   81266 ION  3259 CLA  CLA  CLA   -1.000000       35.4500           0
   81267 ION  3260 CLA  CLA  CLA   -1.000000       35.4500           0
   81268 ION  3261 CLA  CLA  CLA   -1.000000       35.4500           0
   81269 ION  3262 CLA  CLA  CLA   -1.000000       35.4500           0
   81270 ION  3263 CLA  CLA  CLA   -1.000000       35.4500           0
   81271 ION  3264 CLA  CLA  CLA   -1.000000       35.4500           0
   81272 ION  3265 CLA  CLA  CLA   -1.000000       35.4500           0
   81273 ION  3266 CLA  CLA  CLA   -1.000000       35.4500           0
   81274 ION  3267 CLA  CLA  CLA   -1.000000       35.4500           0
   81275 ION  3268 CLA  CLA  CLA   -1.000000       35.4500           0
   81276 ION  3269 CLA  CLA  CLA   -1.000000       35.4500           0
   81277 ION  3270 CLA  CLA  CLA   -1.000000       35.4500           0
   81278 ION  3271 CLA  CLA  CLA   -1.000000       35.4500           0
   81279 ION  3272 CLA  CLA  CLA   -1.000000       35.4500           0
   81280 ION  3273 CLA  CLA  CLA   -1.000000       35.4500           0
   81281 ION  3274 CLA  CLA  CLA   -1.000000       35.4500           0
   81282 ION  3275 CLA  CLA  CLA   -1.000000       35.4500           0
   81283 ION  3276 CLA  CLA  CLA   -1.000000       35.4500           0
   81284 ION  3277 CLA  CLA  CLA   -1.000000       35.4500           0

   52510 !NBOND: bonds
       1       2       2       3       3       6       3       4
       3       5       6       8       6      28       6       7
       8       9       9      11       9      25       9      10
      11      14      11      12      12      13      14      16
      14      15      16      17      16      18      18      20
      18      19      20      21      20      12      21      22
      21      23      21      24      25      27      25      28
      25      26      28      30      28      29      30      31
      31      32      31      33      31      34      34      35
      35      38      35      36      35      37      38      40
      38      60      38      39      40      41      41      43
      41      57      41      42      43      46      43      44
      44      45      46      48      46      47      48      49
      48      50      50      52      50      51      52      53
      52      44      53      54      53      55      53      56
      57      59      57      60      57      58      60      62
      60      61      62      63      63      64      63      65
      63      66      66      67      67      70      67      68
      67      69      70      72      70      92      70      71
      72      73      73      75      73      89      73      74
      75      78      75      76      76      77      78      80
      78      79      80      81      80      82      82      84
      82      83      84      85      84      76      85      86
      85      87      85      88      89      91      89      92
      89      90      92      94      92      93      94      95
      95      96      95      97      95      98      98      99
      99     102      99     100      99     101     102     104
     102     124     102     103     104     105     105     107
     105     121     105     106     107     110     107     108
     108     109     110     112     110     111     112     113
     112     114     114     116     114     115     116     117
     116     108     117     118     117     119     117     120
     121     123     121     124     121     122     124     126
     124     125     126     127     127     128     127     129
     127     130     130     131     131     134     131     132
     131     133     134     136     134     156     134     135
     136     137     137     139     137     153     137     138
     139     142     139     140     140     141     142     144
     142     143     144     145     144     146     146     148
     146     147     148     149     148     140     149     150
     149     151     149     152     153     155     153     156
     153     154     156     158     156     157     158     159
     159     160     159     161     159     162     162     163
     163     166     163     164     163     165     166     168
     166     188     166     167     168     169     169     171
     169     185     169     170     171     174     171     172
     172     173     174     176     174     175     176     177
     176     178     178     180     178     179     180     181
     180     172     181     182     181     183     181     184
     185     187     185     188     185     186     188     190
     188     189     190     191     191     192     191     193
     191     194     194     195     195     198     195     196
     195     197     198     200     198     220     198     199
     200     201     201     203     201     217     201     202
     203     206     203     204     204     205     206     208
     206     207     208     209     208     210     210     212
     210     211     212     213     212     204     213     214
     213     215     213     216     217     219     217     220
     217     218     220     222     220     221     222     223
     223     224     223     225     223     226     226     227
     227     230     227     228     227     229     230     232
     230     252     230     231     232     233     233     235
     233     249     233     234     235     238     235     236
     236     237     238     240     238     239     240     241
     240     242     242     244     242     243     244     245
     244     236     245     246     245     247     245     248
     249     251     249     252     249     250     252     254
     252     253     254     255     255     256     255     257
     255     258     258     259     259     262     259     260
     259     261     262     264     262     284     262     263
     264     265     265     267     265     281     265     266
     267     270     267     268     268     269     270     272
     270     271     272     273     272     274     274     276
     274     275     276     277     276     268     277     278
     277     279     277     280     281     283     281     284
     281     282     284     286     284     285     286     287
     287     288     287     289     287     290     290     291
     291     294     291     292     291     293     294     296
     294     316     294     295     296     297     297     299
     297     313     297     298     299     302     299     300
     300     301     302     304     302     303     304     305
     304     306     306     308     306     307     308     309
     308     300     309     310     309     311     309     312
     313     315     313     316     313     314     316     318
     316     317     318     319     319     320     319     321
     319     322     322     323     323     326     323     324
     323     325     326     328     326     348     326     327
     328     329     329     331     329     345     329     330
     331     334     331     332     332     333     334     336
     334     335     336     337     336     338     338     340
     338     339     340     341     340     332     341     342
     341     343     341     344     345     347     345     348
     345     346     348     350     348     349     350     351
     351     352     351     353     351     354     354     355
     355     358     355     356     355     357     358     360
     358     380     358     359     360     361     361     363
     361     377     361     362     363     366     363     364
     364     365     366     368     366     367     368     369
     368     370     370     372     370     371     372     373
     372     364     373     374     373     375     373     376
     377     379     377     380     377     378     380     382
     380     381     382     383     383     384     383     385
     383     386     386     387     387     390     387     388
     387     389     390     392     390     412     390     391
     392     393     393     395     393     409     393     394
     395     398     395     396     396     397     398     400
     398     399     400     401     400     402     402     404
     402     403     404     405     404     396     405     406
     405     407     405     408     409     411     409     412
     409     410     412     414     412     413     414     415
     415     416     415     417     415     418     418     419
     419     422     419     420     419     421     422     424
     422     444     422     423     424     425     425     427
     425     441     425     426     427     430     427     428
     428     429     430     432     430     431     432     433
     432     434     434     436     434     435     436     437
     436     428     437     438     437     439     437     440
     441     443     441     444     441     442     444     446
     444     445     446     447     447     448     447     449
     447     450     450     451     451     454     451     452
     451     453     454     456     454     476     454     455
     456     457     457     459     457     473     457     458
     459     462     459     460     460     461     462     464
     462     463     464     465     464     466     466     468
     466     467     468     469     468     460     469     470
     469     471     469     472     473     475     473     476
     473     474     476     478     476     477     478     479
     479     480     479     481     479     482     482     483
     483     486     483     484     483     485     486     488
     486     508     486     487     488     489     489     491
     489     505     489     490     491     494     491     492
     492     493     494     496     494     495     496     497
     496     498     498     500     498     499     500     501
     500     492     501     502     501     503     501     504
     505     507     505     508     505     506     508     510
     508     509     510     511     511     512     511     513
     511     514     514     515     515     518     515     516
     515     517     518     520     518     540     518     519
     520     521     521     523     521     537     521     522
     523     526     523     524     524     525     526     528
     526     527     528     529     528     530     530     532
     530     531     532     533     532     524     533     534
     533     535     533     536     537     539     537     540
     537     538     540     542     540     541     542     543
     543     544     543     545     543     546     546     547
     547     550     547     548     547     549     550     552
     550     572     550     551     552     553     553     555
     553     569     553     554     555     558     555     556
     556     557     558     560     558     559     560     561
     560     562     562     564     562     563     564     565
     564     556     565     566     565     567     565     568
     569     571     569     572     569     570     572     574
     572     573     574     575     575     576     575     577
     575     578     578     579     579     582     579     580
     579     581     582     584     582     604     582     583
     584     585     585     587     585     601     585     586
     587     590     587     588     588     589     590     592
     590     591     592     593     592     594     594     596
     594     595     596     597     596     588     597     598
     597     599     597     600     601     603     601     604
     601     602     604     606     604     605     606     607
     607     608     607     609     607     610     610     611
     611     614     611     612     611     613     614     616
     614     636     614     615     616     617     617     619
     617     633     617     618     619     622     619     620
     620     621     622     624     622     623     624     625
     624     626     626     628     626     627     628     629
     628     620     629     630     629     631     629     632
     633     635     633     636     633     634     636     638
     636     637     638     639     639     640     639     641
     639     642     642     643     643     646     643     644
     643     645     646     648     646     668     646     647
     648     649     649     651     649     665     649     650
     651     654     651     652     652     653     654     656
     654     655     656     657     656     658     658     660
     658     659     660     661     660     652     661     662
     661     663     661     664     665     667     665     668
     665     666     668     670     668     669     670     671
     671     672     671     673     671     674     674     675
     675     678     675     676     675     677     678     680
     678     700     678     679     680     681     681     683
     681     697     681     682     683     686     683     684
     684     685     686     688     686     687     688     689
     688     690     690     692     690     691     692     693
     692     684     693     694     693     695     693     696
     697     699     697     700     697     698     700     702
     700     701     702     703     703     704     703     705
     703     706     706     707     707     710     707     708
     707     709     710     712     710     732     710     711
     712     713     713     715     713     729     713     714
     715     718     715     716     716     717     718     720
     718     719     720     721     720     722     722     724
     722     723     724     725     724     716     725     726
     725     727     725     728     729     731     729     732
     729     730     732     734     732     733     734     735
     735     736     735     737     735     738     738     739
     739     742     739     740     739     741     742     744
     742     764     742     743     744     745     745     747
     745     761     745     746     747     750     747     748
     748     749     750     752     750     751     752     753
     752     754     754     756     754     755     756     757
     756     748     757     758     757     759     757     760
     761     763     761     764     761     762     764     766
     764     765     766     767     767     768     767     769
     767     770     770     771     771     774     771     772
     771     773     774     776     774     796     774     775
     776     777     777     779     777     793     777     778
     779     782     779     780     780     781     782     784
     782     783     784     785     784     786     786     788
     786     787     788     789     788     780     789     790
     789     791     789     792     793     795     793     796
     793     794     796     798     796     797     798     799
     799     800     799     801     799     802     802     803
     803     806     803     804     803     805     806     808
     806     828     806     807     808     809     809     811
     809     825     809     810     811     814     811     812
     812     813     814     816     814     815     816     817
     816     818     818     820     818     819     820     821
     820     812     821     822     821     823     821     824
     825     827     825     828     825     826     828     830
     828     829     830     831     831     832     831     833
     831     834     834     835     835     838     835     836
     835     837     838     840     838     860     838     839
     840     841     841     843     841     857     841     842
     843     846     843     844     844     845     846     848
     846     847     848     849     848     850     850     852
     850     851     852     853     852     844     853     854
     853     855     853     856     857     859     857     860
     857     858     860     862     860     861     862     863
     863     864     863     865     863     866     866     867
     867     870     867     868     867     869     870     872
     870     892     870     871     872     873     873     875
     873     889     873     874     875     878     875     876
     876     877     878     880     878     879     880     881
     880     882     882     884     882     883     884     885
     884     876     885     886     885     887     885     888
     889     891     889     892     889     890     892     894
     892     893     894     895     895     896     895     897
     895     898     898     899     899     902     899     900
     899     901     902     904     902     924     902     903
     904     905     905     907     905     921     905     906
     907     910     907     908     908     909     910     912
     910     911     912     913     912     914     914     916
     914     915     916     917     916     908     917     918
     917     919     917     920     921     923     921     924
     921     922     924     926     924     925     926     927
     927     928     927     929     927     930     930     931
     931     934     931     932     931     933     934     936
     934     956     934     935     936     937     937     939
     937     953     937     938     939     942     939     940
     940     941     942     944     942     943     944     945
     944     946     946     948     946     947     948     949
     948     940     949     950     949     951     949     952
     953     955     953     956     953     954     956     958
     956     957     958     959     959     960     959     961
     959     962     962     963     963     966     963     964
     963     965     966     968     966     988     966     967
     968     969     969     971     969     985     969     970
     971     974     971     972     972     973     974     976
     974     975     976     977     976     978     978     980
     978     979     980     981     980     972     981     982
     981     983     981     984     985     987     985     988
     985     986     988     990     988     989     990     991
     991     992     991     993     991     994     994     995
     995     998     995     996     995     997     998    1000
     998    1020     998     999    1000    1001    1001    1003
    1001    1017    1001    1002    1003    1006    1003    1004
    1004    1005    1006    1008    1006    1007    1008    1009
    1008    1010    1010    1012    1010    1011    1012    1013
    1012    1004    1013    1014    1013    1015    1013    1016
    1017    1019    1017    1020    1017    1018    1020    1022
    1020    1021    1022    1023    1023    1024    1023    1025
    1023    1026    1026    1027    1027    1030    1027    1028
    1027    1029    1030    1032    1030    1052    1030    1031
    1032    1033    1033    1035    1033    1049    1033    1034
    1035    1038    1035    1036    1036    1037    1038    1040
    1038    1039    1040    1041    1040    1042    1042    1044
    1042    1043    1044    1045    1044    1036    1045    1046
    1045    1047    1045    1048    1049    1051    1049    1052
    1049    1050    1052    1054    1052    1053    1054    1055
    1055    1056    1055    1057    1055    1058    1058    1059
    1059    1062    1059    1060    1059    1061    1062    1064
    1062    1084    1062    1063    1064    1065    1065    1067
    1065    1081    1065    1066    1067    1070    1067    1068
    1068    1069    1070    1072    1070    1071    1072    1073
    1072    1074    1074    1076    1074    1075    1076    1077
    1076    1068    1077    1078    1077    1079    1077    1080
    1081    1083    1081    1084    1081    1082    1084    1086
    1084    1085    1086    1087    1087    1088    1087    1089
    1087    1090    1090    1091    1091    1094    1091    1092
    1091    1093    1094    1096    1094    1116    1094    1095
    1096    1097    1097    1099    1097    1113    1097    1098
    1099    1102    1099    1100    1100    1101    1102    1104
    1102    1103    1104    1105    1104    1106    1106    1108
    1106    1107    1108    1109    1108    1100    1109    1110
    1109    1111    1109    1112    1113    1115    1113    1116
    1113    1114    1116    1118    1116    1117    1118    1119
    1119    1120    1119    1121    1119    1122    1122    1123
    1123    1126    1123    1124    1123    1125    1126    1128
    1126    1148    1126    1127    1128    1129    1129    1131
    1129    1145    1129    1130    1131    1134    1131    1132
    1132    1133    1134    1136    1134    1135    1136    1137
    1136    1138    1138    1140    1138    1139    1140    1141
    1140    1132    1141    1142    1141    1143    1141    1144
    1145    1147    1145    1148    1145    1146    1148    1150
    1148    1149    1150    1151    1151    1152    1151    1153
    1151    1154    1154    1155    1155    1158    1155    1156
    1155    1157    1158    1160    1158    1180    1158    1159
    1160    1161    1161    1163    1161    1177    1161    1162
    1163    1166    1163    1164    1164    1165    1166    1168
    1166    1167    1168    1169    1168    1170    1170    1172
    1170    1171    1172    1173    1172    1164    1173    1174
    1173    1175    1173    1176    1177    1179    1177    1180
    1177    1178    1180    1182    1180    1181    1182    1183
    1183    1184    1183    1185    1183    1186    1186    1187
    1187    1190    1187    1188    1187    1189    1190    1192
    1190    1212    1190    1191    1192    1193    1193    1195
    1193    1209    1193    1194    1195    1198    1195    1196
    1196    1197    1198    1200    1198    1199    1200    1201
    1200    1202    1202    1204    1202    1203    1204    1205
    1204    1196    1205    1206    1205    1207    1205    1208
    1209    1211    1209    1212    1209    1210    1212    1214
    1212    1213    1214    1215    1215    1216    1215    1217
    1215    1218    1218    1219    1219    1222    1219    1220
    1219    1221    1222    1224    1222    1244    1222    1223
    1224    1225    1225    1227    1225    1241    1225    1226
    1227    1230    1227    1228    1228    1229    1230    1232
    1230    1231    1232    1233    1232    1234    1234    1236
    1234    1235    1236    1237    1236    1228    1237    1238
    1237    1239    1237    1240    1241    1243    1241    1244
    1241    1242    1244    1246    1244    1245    1246    1247
    1247    1248    1247    1249    1247    1250    1250    1251
    1251    1254    1251    1252    1251    1253    1254    1256
    1254    1276    1254    1255    1256    1257    1257    1259
    1257    1273    1257    1258    1259    1262    1259    1260
    1260    1261    1262    1264    1262    1263    1264    1265
    1264    1266    1266    1268    1266    1267    1268    1269
    1268    1260    1269    1270    1269    1271    1269    1272
    1273    1275    1273    1276    1273    1274    1276    1278
    1276    1277    1278    1279    1280    1281    1280    1282
    1283    1284    1283    1285    1286    1287    1286    1288
    1289    1290    1289    1291    1292    1293    1292    1294
    1295    1296    1295    1297    1298    1299    1298    1300
    1301    1302    1301    1303    1304    1305    1304    1306
    1307    1308    1307    1309    1310    1311    1310    1312
    1313    1314    1313    1315    1316    1317    1316    1318
    1319    1320    1319    1321    1322    1323    1322    1324
    1325    1326    1325    1327    1328    1329    1328    1330
    1331    1332    1331    1333    1334    1335    1334    1336
    1337    1338    1337    1339    1340    1341    1340    1342
    1343    1344    1343    1345    1346    1347    1346    1348
    1349    1350    1349    1351    1352    1353    1352    1354
    1355    1356    1355    1357    1358    1359    1358    1360
    1361    1362    1361    1363    1364    1365    1364    1366
    1367    1368    1367    1369    1370    1371    1370    1372
    1373    1374    1373    1375    1376    1377    1376    1378
    1379    1380    1379    1381    1382    1383    1382    1384
    1385    1386    1385    1387    1388    1389    1388    1390
    1391    1392    1391    1393    1394    1395    1394    1396
    1397    1398    1397    1399    1400    1401    1400    1402
    1403    1404    1403    1405    1406    1407    1406    1408
    1409    1410    1409    1411    1412    1413    1412    1414
    1415    1416    1415    1417    1418    1419    1418    1420
    1421    1422    1421    1423    1424    1425    1424    1426
    1427    1428    1427    1429    1430    1431    1430    1432
    1433    1434    1433    1435    1436    1437    1436    1438
    1439    1440    1439    1441    1442    1443    1442    1444
    1445    1446    1445    1447    1448    1449    1448    1450
    1451    1452    1451    1453    1454    1455    1454    1456
    1457    1458    1457    1459    1460    1461    1460    1462
    1463    1464    1463    1465    1466    1467    1466    1468
    1469    1470    1469    1471    1472    1473    1472    1474
    1475    1476    1475    1477    1478    1479    1478    1480
    1481    1482    1481    1483    1484    1485    1484    1486
    1487    1488    1487    1489    1490    1491    1490    1492
    1493    1494    1493    1495    1496    1497    1496    1498
    1499    1500    1499    1501    1502    1503    1502    1504
    1505    1506    1505    1507    1508    1509    1508    1510
    1511    1512    1511    1513    1514    1515    1514    1516
    1517    1518    1517    1519    1520    1521    1520    1522
    1523    1524    1523    1525    1526    1527    1526    1528
    1529    1530    1529    1531    1532    1533    1532    1534
    1535    1536    1535    1537    1538    1539    1538    1540
    1541    1542    1541    1543    1544    1545    1544    1546
    1547    1548    1547    1549    1550    1551    1550    1552
    1553    1554    1553    1555    1556    1557    1556    1558
    1559    1560    1559    1561    1562    1563    1562    1564
    1565    1566    1565    1567    1568    1569    1568    1570
    1571    1572    1571    1573    1574    1575    1574    1576
    1577    1578    1577    1579    1580    1581    1580    1582
    1583    1584    1583    1585    1586    1587    1586    1588
    1589    1590    1589    1591    1592    1593    1592    1594
    1595    1596    1595    1597    1598    1599    1598    1600
    1601    1602    1601    1603    1604    1605    1604    1606
    1607    1608    1607    1609    1610    1611    1610    1612
    1613    1614    1613    1615    1616    1617    1616    1618
    1619    1620    1619    1621    1622    1623    1622    1624
    1625    1626    1625    1627    1628    1629    1628    1630
    1631    1632    1631    1633    1634    1635    1634    1636
    1637    1638    1637    1639    1640    1641    1640    1642
    1643    1644    1643    1645    1646    1647    1646    1648
    1649    1650    1649    1651    1652    1653    1652    1654
    1655    1656    1655    1657    1658    1659    1658    1660
    1661    1662    1661    1663    1664    1665    1664    1666
    1667    1668    1667    1669    1670    1671    1670    1672
    1673    1674    1673    1675    1676    1677    1676    1678
    1679    1680    1679    1681    1682    1683    1682    1684
    1685    1686    1685    1687    1688    1689    1688    1690
    1691    1692    1691    1693    1694    1695    1694    1696
    1697    1698    1697    1699    1700    1701    1700    1702
    1703    1704    1703    1705    1706    1707    1706    1708
    1709    1710    1709    1711    1712    1713    1712    1714
    1715    1716    1715    1717    1718    1719    1718    1720
    1721    1722    1721    1723    1724    1725    1724    1726
    1727    1728    1727    1729    1730    1731    1730    1732
    1733    1734    1733    1735    1736    1737    1736    1738
    1739    1740    1739    1741    1742    1743    1742    1744
    1745    1746    1745    1747    1748    1749    1748    1750
    1751    1752    1751    1753    1754    1755    1754    1756
    1757    1758    1757    1759    1760    1761    1760    1762
    1763    1764    1763    1765    1766    1767    1766    1768
    1769    1770    1769    1771    1772    1773    1772    1774
    1775    1776    1775    1777    1778    1779    1778    1780
    1781    1782    1781    1783    1784    1785    1784    1786
    1787    1788    1787    1789    1790    1791    1790    1792
    1793    1794    1793    1795    1796    1797    1796    1798
    1799    1800    1799    1801    1802    1803    1802    1804
    1805    1806    1805    1807    1808    1809    1808    1810
    1811    1812    1811    1813    1814    1815    1814    1816
    1817    1818    1817    1819    1820    1821    1820    1822
    1823    1824    1823    1825    1826    1827    1826    1828
    1829    1830    1829    1831    1832    1833    1832    1834
    1835    1836    1835    1837    1838    1839    1838    1840
    1841    1842    1841    1843    1844    1845    1844    1846
    1847    1848    1847    1849    1850    1851    1850    1852
    1853    1854    1853    1855    1856    1857    1856    1858
    1859    1860    1859    1861    1862    1863    1862    1864
    1865    1866    1865    1867    1868    1869    1868    1870
    1871    1872    1871    1873    1874    1875    1874    1876
    1877    1878    1877    1879    1880    1881    1880    1882
    1883    1884    1883    1885    1886    1887    1886    1888
    1889    1890    1889    1891    1892    1893    1892    1894
    1895    1896    1895    1897    1898    1899    1898    1900
    1901    1902    1901    1903    1904    1905    1904    1906
    1907    1908    1907    1909    1910    1911    1910    1912
    1913    1914    1913    1915    1916    1917    1916    1918
    1919    1920    1919    1921    1922    1923    1922    1924
    1925    1926    1925    1927    1928    1929    1928    1930
    1931    1932    1931    1933    1934    1935    1934    1936
    1937    1938    1937    1939    1940    1941    1940    1942
    1943    1944    1943    1945    1946    1947    1946    1948
    1949    1950    1949    1951    1952    1953    1952    1954
    1955    1956    1955    1957    1958    1959    1958    1960
    1961    1962    1961    1963    1964    1965    1964    1966
    1967    1968    1967    1969    1970    1971    1970    1972
    1973    1974    1973    1975    1976    1977    1976    1978
    1979    1980    1979    1981    1982    1983    1982    1984
    1985    1986    1985    1987    1988    1989    1988    1990
    1991    1992    1991    1993    1994    1995    1994    1996
    1997    1998    1997    1999    2000    2001    2000    2002
    2003    2004    2003    2005    2006    2007    2006    2008
    2009    2010    2009    2011    2012    2013    2012    2014
    2015    2016    2015    2017    2018    2019    2018    2020
    2021    2022    2021    2023    2024    2025    2024    2026
    2027    2028    2027    2029    2030    2031    2030    2032
    2033    2034    2033    2035    2036    2037    2036    2038
    2039    2040    2039    2041    2042    2043    2042    2044
    2045    2046    2045    2047    2048    2049    2048    2050
    2051    2052    2051    2053    2054    2055    2054    2056
    2057    2058    2057    2059    2060    2061    2060    2062
    2063    2064    2063    2065    2066    2067    2066    2068
    2069    2070    2069    2071    2072    2073    2072    2074
    2075    2076    2075    2077    2078    2079    2078    2080
    2081    2082    2081    2083    2084    2085    2084    2086
    2087    2088    2087    2089    2090    2091    2090    2092
    2093    2094    2093    2095    2096    2097    2096    2098
    2099    2100    2099    2101    2102    2103    2102    2104
    2105    2106    2105    2107    2108    2109    2108    2110
    2111    2112    2111    2113    2114    2115    2114    2116
    2117    2118    2117    2119    2120    2121    2120    2122
    2123    2124    2123    2125    2126    2127    2126    2128
    2129    2130    2129    2131    2132    2133    2132    2134
    2135    2136    2135    2137    2138    2139    2138    2140
    2141    2142    2141    2143    2144    2145    2144    2146
    2147    2148    2147    2149    2150    2151    2150    2152
    2153    2154    2153    2155    2156    2157    2156    2158
    2159    2160    2159    2161    2162    2163    2162    2164
    2165    2166    2165    2167    2168    2169    2168    2170
    2171    2172    2171    2173    2174    2175    2174    2176
    2177    2178    2177    2179    2180    2181    2180    2182
    2183    2184    2183    2185    2186    2187    2186    2188
    2189    2190    2189    2191    2192    2193    2192    2194
    2195    2196    2195    2197    2198    2199    2198    2200
    2201    2202    2201    2203    2204    2205    2204    2206
    2207    2208    2207    2209    2210    2211    2210    2212
    2213    2214    2213    2215    2216    2217    2216    2218
    2219    2220    2219    2221    2222    2223    2222    2224
    2225    2226    2225    2227    2228    2229    2228    2230
    2231    2232    2231    2233    2234    2235    2234    2236
    2237    2238    2237    2239    2240    2241    2240    2242
    2243    2244    2243    2245    2246    2247    2246    2248
    2249    2250    2249    2251    2252    2253    2252    2254
    2255    2256    2255    2257    2258    2259    2258    2260
    2261    2262    2261    2263    2264    2265    2264    2266
    2267    2268    2267    2269    2270    2271    2270    2272
    2273    2274    2273    2275    2276    2277    2276    2278
    2279    2280    2279    2281    2282    2283    2282    2284
    2285    2286    2285    2287    2288    2289    2288    2290
    2291    2292    2291    2293    2294    2295    2294    2296
    2297    2298    2297    2299    2300    2301    2300    2302
    2303    2304    2303    2305    2306    2307    2306    2308
    2309    2310    2309    2311    2312    2313    2312    2314
    2315    2316    2315    2317    2318    2319    2318    2320
    2321    2322    2321    2323    2324    2325    2324    2326
    2327    2328    2327    2329    2330    2331    2330    2332
    2333    2334    2333    2335    2336    2337    2336    2338
    2339    2340    2339    2341    2342    2343    2342    2344
    2345    2346    2345    2347    2348    2349    2348    2350
    2351    2352    2351    2353    2354    2355    2354    2356
    2357    2358    2357    2359    2360    2361    2360    2362
    2363    2364    2363    2365    2366    2367    2366    2368
    2369    2370    2369    2371    2372    2373    2372    2374
    2375    2376    2375    2377    2378    2379    2378    2380
    2381    2382    2381    2383    2384    2385    2384    2386
    2387    2388    2387    2389    2390    2391    2390    2392
    2393    2394    2393    2395    2396    2397    2396    2398
    2399    2400    2399    2401    2402    2403    2402    2404
    2405    2406    2405    2407    2408    2409    2408    2410
    2411    2412    2411    2413    2414    2415    2414    2416
    2417    2418    2417    2419    2420    2421    2420    2422
    2423    2424    2423    2425    2426    2427    2426    2428
    2429    2430    2429    2431    2432    2433    2432    2434
    2435    2436    2435    2437    2438    2439    2438    2440
    2441    2442    2441    2443    2444    2445    2444    2446
    2447    2448    2447    2449    2450    2451    2450    2452
    2453    2454    2453    2455    2456    2457    2456    2458
    2459    2460    2459    2461    2462    2463    2462    2464
    2465    2466    2465    2467    2468    2469    2468    2470
    2471    2472    2471    2473    2474    2475    2474    2476
    2477    2478    2477    2479    2480    2481    2480    2482
    2483    2484    2483    2485    2486    2487    2486    2488
    2489    2490    2489    2491    2492    2493    2492    2494
    2495    2496    2495    2497    2498    2499    2498    2500
    2501    2502    2501    2503    2504    2505    2504    2506
    2507    2508    2507    2509    2510    2511    2510    2512
    2513    2514    2513    2515    2516    2517    2516    2518
    2519    2520    2519    2521    2522    2523    2522    2524
    2525    2526    2525    2527    2528    2529    2528    2530
    2531    2532    2531    2533    2534    2535    2534    2536
    2537    2538    2537    2539    2540    2541    2540    2542
    2543    2544    2543    2545    2546    2547    2546    2548
    2549    2550    2549    2551    2552    2553    2552    2554
    2555    2556    2555    2557    2558    2559    2558    2560
    2561    2562    2561    2563    2564    2565    2564    2566
    2567    2568    2567    2569    2570    2571    2570    2572
    2573    2574    2573    2575    2576    2577    2576    2578
    2579    2580    2579    2581    2582    2583    2582    2584
    2585    2586    2585    2587    2588    2589    2588    2590
    2591    2592    2591    2593    2594    2595    2594    2596
    2597    2598    2597    2599    2600    2601    2600    2602
    2603    2604    2603    2605    2606    2607    2606    2608
    2609    2610    2609    2611    2612    2613    2612    2614
    2615    2616    2615    2617    2618    2619    2618    2620
    2621    2622    2621    2623    2624    2625    2624    2626
    2627    2628    2627    2629    2630    2631    2630    2632
    2633    2634    2633    2635    2636    2637    2636    2638
    2639    2640    2639    2641    2642    2643    2642    2644
    2645    2646    2645    2647    2648    2649    2648    2650
    2651    2652    2651    2653    2654    2655    2654    2656
    2657    2658    2657    2659    2660    2661    2660    2662
    2663    2664    2663    2665    2666    2667    2666    2668
    2669    2670    2669    2671    2672    2673    2672    2674
    2675    2676    2675    2677    2678    2679    2678    2680
    2681    2682    2681    2683    2684    2685    2684    2686
    2687    2688    2687    2689    2690    2691    2690    2692
    2693    2694    2693    2695    2696    2697    2696    2698
    2699    2700    2699    2701    2702    2703    2702    2704
    2705    2706    2705    2707    2708    2709    2708    2710
    2711    2712    2711    2713    2714    2715    2714    2716
    2717    2718    2717    2719    2720    2721    2720    2722
    2723    2724    2723    2725    2726    2727    2726    2728
    2729    2730    2729    2731    2732    2733    2732    2734
    2735    2736    2735    2737    2738    2739    2738    2740
    2741    2742    2741    2743    2744    2745    2744    2746
    2747    2748    2747    2749    2750    2751    2750    2752
    2753    2754    2753    2755    2756    2757    2756    2758
    2759    2760    2759    2761    2762    2763    2762    2764
    2765    2766    2765    2767    2768    2769    2768    2770
    2771    2772    2771    2773    2774    2775    2774    2776
    2777    2778    2777    2779    2780    2781    2780    2782
    2783    2784    2783    2785    2786    2787    2786    2788
    2789    2790    2789    2791    2792    2793    2792    2794
    2795    2796    2795    2797    2798    2799    2798    2800
    2801    2802    2801    2803    2804    2805    2804    2806
    2807    2808    2807    2809    2810    2811    2810    2812
    2813    2814    2813    2815    2816    2817    2816    2818
    2819    2820    2819    2821    2822    2823    2822    2824
    2825    2826    2825    2827    2828    2829    2828    2830
    2831    2832    2831    2833    2834    2835    2834    2836
    2837    2838    2837    2839    2840    2841    2840    2842
    2843    2844    2843    2845    2846    2847    2846    2848
    2849    2850    2849    2851    2852    2853    2852    2854
    2855    2856    2855    2857    2858    2859    2858    2860
    2861    2862    2861    2863    2864    2865    2864    2866
    2867    2868    2867    2869    2870    2871    2870    2872
    2873    2874    2873    2875    2876    2877    2876    2878
    2879    2880    2879    2881    2882    2883    2882    2884
    2885    2886    2885    2887    2888    2889    2888    2890
    2891    2892    2891    2893    2894    2895    2894    2896
    2897    2898    2897    2899    2900    2901    2900    2902
    2903    2904    2903    2905    2906    2907    2906    2908
    2909    2910    2909    2911    2912    2913    2912    2914
    2915    2916    2915    2917    2918    2919    2918    2920
    2921    2922    2921    2923    2924    2925    2924    2926
    2927    2928    2927    2929    2930    2931    2930    2932
    2933    2934    2933    2935    2936    2937    2936    2938
    2939    2940    2939    2941    2942    2943    2942    2944
    2945    2946    2945    2947    2948    2949    2948    2950
    2951    2952    2951    2953    2954    2955    2954    2956
    2957    2958    2957    2959    2960    2961    2960    2962
    2963    2964    2963    2965    2966    2967    2966    2968
    2969    2970    2969    2971    2972    2973    2972    2974
    2975    2976    2975    2977    2978    2979    2978    2980
    2981    2982    2981    2983    2984    2985    2984    2986
    2987    2988    2987    2989    2990    2991    2990    2992
    2993    2994    2993    2995    2996    2997    2996    2998
    2999    3000    2999    3001    3002    3003    3002    3004
    3005    3006    3005    3007    3008    3009    3008    3010
    3011    3012    3011    3013    3014    3015    3014    3016
    3017    3018    3017    3019    3020    3021    3020    3022
    3023    3024    3023    3025    3026    3027    3026    3028
    3029    3030    3029    3031    3032    3033    3032    3034
    3035    3036    3035    3037    3038    3039    3038    3040
    3041    3042    3041    3043    3044    3045    3044    3046
    3047    3048    3047    3049    3050    3051    3050    3052
    3053    3054    3053    3055    3056    3057    3056    3058
    3059    3060    3059    3061    3062    3063    3062    3064
    3065    3066    3065    3067    3068    3069    3068    3070
    3071    3072    3071    3073    3074    3075    3074    3076
    3077    3078    3077    3079    3080    3081    3080    3082
    3083    3084    3083    3085    3086    3087    3086    3088
    3089    3090    3089    3091    3092    3093    3092    3094
    3095    3096    3095    3097    3098    3099    3098    3100
    3101    3102    3101    3103    3104    3105    3104    3106
    3107    3108    3107    3109    3110    3111    3110    3112
    3113    3114    3113    3115    3116    3117    3116    3118
    3119    3120    3119    3121    3122    3123    3122    3124
    3125    3126    3125    3127    3128    3129    3128    3130
    3131    3132    3131    3133    3134    3135    3134    3136
    3137    3138    3137    3139    3140    3141    3140    3142
    3143    3144    3143    3145    3146    3147    3146    3148
    3149    3150    3149    3151    3152    3153    3152    3154
    3155    3156    3155    3157    3158    3159    3158    3160
    3161    3162    3161    3163    3164    3165    3164    3166
    3167    3168    3167    3169    3170    3171    3170    3172
    3173    3174    3173    3175    3176    3177    3176    3178
    3179    3180    3179    3181    3182    3183    3182    3184
    3185    3186    3185    3187    3188    3189    3188    3190
    3191    3192    3191    3193    3194    3195    3194    3196
    3197    3198    3197    3199    3200    3201    3200    3202
    3203    3204    3203    3205    3206    3207    3206    3208
    3209    3210    3209    3211    3212    3213    3212    3214
    3215    3216    3215    3217    3218    3219    3218    3220
    3221    3222    3221    3223    3224    3225    3224    3226
    3227    3228    3227    3229    3230    3231    3230    3232
    3233    3234    3233    3235    3236    3237    3236    3238
    3239    3240    3239    3241    3242    3243    3242    3244
    3245    3246    3245    3247    3248    3249    3248    3250
    3251    3252    3251    3253    3254    3255    3254    3256
    3257    3258    3257    3259    3260    3261    3260    3262
    3263    3264    3263    3265    3266    3267    3266    3268
    3269    3270    3269    3271    3272    3273    3272    3274
    3275    3276    3275    3277    3278    3279    3278    3280
    3281    3282    3281    3283    3284    3285    3284    3286
    3287    3288    3287    3289    3290    3291    3290    3292
    3293    3294    3293    3295    3296    3297    3296    3298
    3299    3300    3299    3301    3302    3303    3302    3304
    3305    3306    3305    3307    3308    3309    3308    3310
    3311    3312    3311    3313    3314    3315    3314    3316
    3317    3318    3317    3319    3320    3321    3320    3322
    3323    3324    3323    3325    3326    3327    3326    3328
    3329    3330    3329    3331    3332    3333    3332    3334
    3335    3336    3335    3337    3338    3339    3338    3340
    3341    3342    3341    3343    3344    3345    3344    3346
    3347    3348    3347    3349    3350    3351    3350    3352
    3353    3354    3353    3355    3356    3357    3356    3358
    3359    3360    3359    3361    3362    3363    3362    3364
    3365    3366    3365    3367    3368    3369    3368    3370
    3371    3372    3371    3373    3374    3375    3374    3376
    3377    3378    3377    3379    3380    3381    3380    3382
    3383    3384    3383    3385    3386    3387    3386    3388
    3389    3390    3389    3391    3392    3393    3392    3394
    3395    3396    3395    3397    3398    3399    3398    3400
    3401    3402    3401    3403    3404    3405    3404    3406
    3407    3408    3407    3409    3410    3411    3410    3412
    3413    3414    3413    3415    3416    3417    3416    3418
    3419    3420    3419    3421    3422    3423    3422    3424
    3425    3426    3425    3427    3428    3429    3428    3430
    3431    3432    3431    3433    3434    3435    3434    3436
    3437    3438    3437    3439    3440    3441    3440    3442
    3443    3444    3443    3445    3446    3447    3446    3448
    3449    3450    3449    3451    3452    3453    3452    3454
    3455    3456    3455    3457    3458    3459    3458    3460
    3461    3462    3461    3463    3464    3465    3464    3466
    3467    3468    3467    3469    3470    3471    3470    3472
    3473    3474    3473    3475    3476    3477    3476    3478
    3479    3480    3479    3481    3482    3483    3482    3484
    3485    3486    3485    3487    3488    3489    3488    3490
    3491    3492    3491    3493    3494    3495    3494    3496
    3497    3498    3497    3499    3500    3501    3500    3502
    3503    3504    3503    3505    3506    3507    3506    3508
    3509    3510    3509    3511    3512    3513    3512    3514
    3515    3516    3515    3517    3518    3519    3518    3520
    3521    3522    3521    3523    3524    3525    3524    3526
    3527    3528    3527    3529    3530    3531    3530    3532
    3533    3534    3533    3535    3536    3537    3536    3538
    3539    3540    3539    3541    3542    3543    3542    3544
    3545    3546    3545    3547    3548    3549    3548    3550
    3551    3552    3551    3553    3554    3555    3554    3556
    3557    3558    3557    3559    3560    3561    3560    3562
    3563    3564    3563    3565    3566    3567    3566    3568
    3569    3570    3569    3571    3572    3573    3572    3574
    3575    3576    3575    3577    3578    3579    3578    3580
    3581    3582    3581    3583    3584    3585    3584    3586
    3587    3588    3587    3589    3590    3591    3590    3592
    3593    3594    3593    3595    3596    3597    3596    3598
    3599    3600    3599    3601    3602    3603    3602    3604
    3605    3606    3605    3607    3608    3609    3608    3610
    3611    3612    3611    3613    3614    3615    3614    3616
    3617    3618    3617    3619    3620    3621    3620    3622
    3623    3624    3623    3625    3626    3627    3626    3628
    3629    3630    3629    3631    3632    3633    3632    3634
    3635    3636    3635    3637    3638    3639    3638    3640
    3641    3642    3641    3643    3644    3645    3644    3646
    3647    3648    3647    3649    3650    3651    3650    3652
    3653    3654    3653    3655    3656    3657    3656    3658
    3659    3660    3659    3661    3662    3663    3662    3664
    3665    3666    3665    3667    3668    3669    3668    3670
    3671    3672    3671    3673    3674    3675    3674    3676
    3677    3678    3677    3679    3680    3681    3680    3682
    3683    3684    3683    3685    3686    3687    3686    3688
    3689    3690    3689    3691    3692    3693    3692    3694
    3695    3696    3695    3697    3698    3699    3698    3700
    3701    3702    3701    3703    3704    3705    3704    3706
    3707    3708    3707    3709    3710    3711    3710    3712
    3713    3714    3713    3715    3716    3717    3716    3718
    3719    3720    3719    3721    3722    3723    3722    3724
    3725    3726    3725    3727    3728    3729    3728    3730
    3731    3732    3731    3733    3734    3735    3734    3736
    3737    3738    3737    3739    3740    3741    3740    3742
    3743    3744    3743    3745    3746    3747    3746    3748
    3749    3750    3749    3751    3752    3753    3752    3754
    3755    3756    3755    3757    3758    3759    3758    3760
    3761    3762    3761    3763    3764    3765    3764    3766
    3767    3768    3767    3769    3770    3771    3770    3772
    3773    3774    3773    3775    3776    3777    3776    3778
    3779    3780    3779    3781    3782    3783    3782    3784
    3785    3786    3785    3787    3788    3789    3788    3790
    3791    3792    3791    3793    3794    3795    3794    3796
    3797    3798    3797    3799    3800    3801    3800    3802
    3803    3804    3803    3805    3806    3807    3806    3808
    3809    3810    3809    3811    3812    3813    3812    3814
    3815    3816    3815    3817    3818    3819    3818    3820
    3821    3822    3821    3823    3824    3825    3824    3826
    3827    3828    3827    3829    3830    3831    3830    3832
    3833    3834    3833    3835    3836    3837    3836    3838
    3839    3840    3839    3841    3842    3843    3842    3844
    3845    3846    3845    3847    3848    3849    3848    3850
    3851    3852    3851    3853    3854    3855    3854    3856
    3857    3858    3857    3859    3860    3861    3860    3862
    3863    3864    3863    3865    3866    3867    3866    3868
    3869    3870    3869    3871    3872    3873    3872    3874
    3875    3876    3875    3877    3878    3879    3878    3880
    3881    3882    3881    3883    3884    3885    3884    3886
    3887    3888    3887    3889    3890    3891    3890    3892
    3893    3894    3893    3895    3896    3897    3896    3898
    3899    3900    3899    3901    3902    3903    3902    3904
    3905    3906    3905    3907    3908    3909    3908    3910
    3911    3912    3911    3913    3914    3915    3914    3916
    3917    3918    3917    3919    3920    3921    3920    3922
    3923    3924    3923    3925    3926    3927    3926    3928
    3929    3930    3929    3931    3932    3933    3932    3934
    3935    3936    3935    3937    3938    3939    3938    3940
    3941    3942    3941    3943    3944    3945    3944    3946
    3947    3948    3947    3949    3950    3951    3950    3952
    3953    3954    3953    3955    3956    3957    3956    3958
    3959    3960    3959    3961    3962    3963    3962    3964
    3965    3966    3965    3967    3968    3969    3968    3970
    3971    3972    3971    3973    3974    3975    3974    3976
    3977    3978    3977    3979    3980    3981    3980    3982
    3983    3984    3983    3985    3986    3987    3986    3988
    3989    3990    3989    3991    3992    3993    3992    3994
    3995    3996    3995    3997    3998    3999    3998    4000
    4001    4002    4001    4003    4004    4005    4004    4006
    4007    4008    4007    4009    4010    4011    4010    4012
    4013    4014    4013    4015    4016    4017    4016    4018
    4019    4020    4019    4021    4022    4023    4022    4024
    4025    4026    4025    4027    4028    4029    4028    4030
    4031    4032    4031    4033    4034    4035    4034    4036
    4037    4038    4037    4039    4040    4041    4040    4042
    4043    4044    4043    4045    4046    4047    4046    4048
    4049    4050    4049    4051    4052    4053    4052    4054
    4055    4056    4055    4057    4058    4059    4058    4060
    4061    4062    4061    4063    4064    4065    4064    4066
    4067    4068    4067    4069    4070    4071    4070    4072
    4073    4074    4073    4075    4076    4077    4076    4078
    4079    4080    4079    4081    4082    4083    4082    4084
    4085    4086    4085    4087    4088    4089    4088    4090
    4091    4092    4091    4093    4094    4095    4094    4096
    4097    4098    4097    4099    4100    4101    4100    4102
    4103    4104    4103    4105    4106    4107    4106    4108
    4109    4110    4109    4111    4112    4113    4112    4114
    4115    4116    4115    4117    4118    4119    4118    4120
    4121    4122    4121    4123    4124    4125    4124    4126
    4127    4128    4127    4129    4130    4131    4130    4132
    4133    4134    4133    4135    4136    4137    4136    4138
    4139    4140    4139    4141    4142    4143    4142    4144
    4145    4146    4145    4147    4148    4149    4148    4150
    4151    4152    4151    4153    4154    4155    4154    4156
    4157    4158    4157    4159    4160    4161    4160    4162
    4163    4164    4163    4165    4166    4167    4166    4168
    4169    4170    4169    4171    4172    4173    4172    4174
    4175    4176    4175    4177    4178    4179    4178    4180
    4181    4182    4181    4183    4184    4185    4184    4186
    4187    4188    4187    4189    4190    4191    4190    4192
    4193    4194    4193    4195    4196    4197    4196    4198
    4199    4200    4199    4201    4202    4203    4202    4204
    4205    4206    4205    4207    4208    4209    4208    4210
    4211    4212    4211    4213    4214    4215    4214    4216
    4217    4218    4217    4219    4220    4221    4220    4222
    4223    4224    4223    4225    4226    4227    4226    4228
    4229    4230    4229    4231    4232    4233    4232    4234
    4235    4236    4235    4237    4238    4239    4238    4240
    4241    4242    4241    4243    4244    4245    4244    4246
    4247    4248    4247    4249    4250    4251    4250    4252
    4253    4254    4253    4255    4256    4257    4256    4258
    4259    4260    4259    4261    4262    4263    4262    4264
    4265    4266    4265    4267    4268    4269    4268    4270
    4271    4272    4271    4273    4274    4275    4274    4276
    4277    4278    4277    4279    4280    4281    4280    4282
    4283    4284    4283    4285    4286    4287    4286    4288
    4289    4290    4289    4291    4292    4293    4292    4294
    4295    4296    4295    4297    4298    4299    4298    4300
    4301    4302    4301    4303    4304    4305    4304    4306
    4307    4308    4307    4309    4310    4311    4310    4312
    4313    4314    4313    4315    4316    4317    4316    4318
    4319    4320    4319    4321    4322    4323    4322    4324
    4325    4326    4325    4327    4328    4329    4328    4330
    4331    4332    4331    4333    4334    4335    4334    4336
    4337    4338    4337    4339    4340    4341    4340    4342
    4343    4344    4343    4345    4346    4347    4346    4348
    4349    4350    4349    4351    4352    4353    4352    4354
    4355    4356    4355    4357    4358    4359    4358    4360
    4361    4362    4361    4363    4364    4365    4364    4366
    4367    4368    4367    4369    4370    4371    4370    4372
    4373    4374    4373    4375    4376    4377    4376    4378
    4379    4380    4379    4381    4382    4383    4382    4384
    4385    4386    4385    4387    4388    4389    4388    4390
    4391    4392    4391    4393    4394    4395    4394    4396
    4397    4398    4397    4399    4400    4401    4400    4402
    4403    4404    4403    4405    4406    4407    4406    4408
    4409    4410    4409    4411    4412    4413    4412    4414
    4415    4416    4415    4417    4418    4419    4418    4420
    4421    4422    4421    4423    4424    4425    4424    4426
    4427    4428    4427    4429    4430    4431    4430    4432
    4433    4434    4433    4435    4436    4437    4436    4438
    4439    4440    4439    4441    4442    4443    4442    4444
    4445    4446    4445    4447    4448    4449    4448    4450
    4451    4452    4451    4453    4454    4455    4454    4456
    4457    4458    4457    4459    4460    4461    4460    4462
    4463    4464    4463    4465    4466    4467    4466    4468
    4469    4470    4469    4471    4472    4473    4472    4474
    4475    4476    4475    4477    4478    4479    4478    4480
    4481    4482    4481    4483    4484    4485    4484    4486
    4487    4488    4487    4489    4490    4491    4490    4492
    4493    4494    4493    4495    4496    4497    4496    4498
    4499    4500    4499    4501    4502    4503    4502    4504
    4505    4506    4505    4507    4508    4509    4508    4510
    4511    4512    4511    4513    4514    4515    4514    4516
    4517    4518    4517    4519    4520    4521    4520    4522
    4523    4524    4523    4525    4526    4527    4526    4528
    4529    4530    4529    4531    4532    4533    4532    4534
    4535    4536    4535    4537    4538    4539    4538    4540
    4541    4542    4541    4543    4544    4545    4544    4546
    4547    4548    4547    4549    4550    4551    4550    4552
    4553    4554    4553    4555    4556    4557    4556    4558
    4559    4560    4559    4561    4562    4563    4562    4564
    4565    4566    4565    4567    4568    4569    4568    4570
    4571    4572    4571    4573    4574    4575    4574    4576
    4577    4578    4577    4579    4580    4581    4580    4582
    4583    4584    4583    4585    4586    4587    4586    4588
    4589    4590    4589    4591    4592    4593    4592    4594
    4595    4596    4595    4597    4598    4599    4598    4600
    4601    4602    4601    4603    4604    4605    4604    4606
    4607    4608    4607    4609    4610    4611    4610    4612
    4613    4614    4613    4615    4616    4617    4616    4618
    4619    4620    4619    4621    4622    4623    4622    4624
    4625    4626    4625    4627    4628    4629    4628    4630
    4631    4632    4631    4633    4634    4635    4634    4636
    4637    4638    4637    4639    4640    4641    4640    4642
    4643    4644    4643    4645    4646    4647    4646    4648
    4649    4650    4649    4651    4652    4653    4652    4654
    4655    4656    4655    4657    4658    4659    4658    4660
    4661    4662    4661    4663    4664    4665    4664    4666
    4667    4668    4667    4669    4670    4671    4670    4672
    4673    4674    4673    4675    4676    4677    4676    4678
    4679    4680    4679    4681    4682    4683    4682    4684
    4685    4686    4685    4687    4688    4689    4688    4690
    4691    4692    4691    4693    4694    4695    4694    4696
    4697    4698    4697    4699    4700    4701    4700    4702
    4703    4704    4703    4705    4706    4707    4706    4708
    4709    4710    4709    4711    4712    4713    4712    4714
    4715    4716    4715    4717    4718    4719    4718    4720
    4721    4722    4721    4723    4724    4725    4724    4726
    4727    4728    4727    4729    4730    4731    4730    4732
    4733    4734    4733    4735    4736    4737    4736    4738
    4739    4740    4739    4741    4742    4743    4742    4744
    4745    4746    4745    4747    4748    4749    4748    4750
    4751    4752    4751    4753    4754    4755    4754    4756
    4757    4758    4757    4759    4760    4761    4760    4762
    4763    4764    4763    4765    4766    4767    4766    4768
    4769    4770    4769    4771    4772    4773    4772    4774
    4775    4776    4775    4777    4778    4779    4778    4780
    4781    4782    4781    4783    4784    4785    4784    4786
    4787    4788    4787    4789    4790    4791    4790    4792
    4793    4794    4793    4795    4796    4797    4796    4798
    4799    4800    4799    4801    4802    4803    4802    4804
    4805    4806    4805    4807    4808    4809    4808    4810
    4811    4812    4811    4813    4814    4815    4814    4816
    4817    4818    4817    4819    4820    4821    4820    4822
    4823    4824    4823    4825    4826    4827    4826    4828
    4829    4830    4829    4831    4832    4833    4832    4834
    4835    4836    4835    4837    4838    4839    4838    4840
    4841    4842    4841    4843    4844    4845    4844    4846
    4847    4848    4847    4849    4850    4851    4850    4852
    4853    4854    4853    4855    4856    4857    4856    4858
    4859    4860    4859    4861    4862    4863    4862    4864
    4865    4866    4865    4867    4868    4869    4868    4870
    4871    4872    4871    4873    4874    4875    4874    4876
    4877    4878    4877    4879    4880    4881    4880    4882
    4883    4884    4883    4885    4886    4887    4886    4888
    4889    4890    4889    4891    4892    4893    4892    4894
    4895    4896    4895    4897    4898    4899    4898    4900
    4901    4902    4901    4903    4904    4905    4904    4906
    4907    4908    4907    4909    4910    4911    4910    4912
    4913    4914    4913    4915    4916    4917    4916    4918
    4919    4920    4919    4921    4922    4923    4922    4924
    4925    4926    4925    4927    4928    4929    4928    4930
    4931    4932    4931    4933    4934    4935    4934    4936
    4937    4938    4937    4939    4940    4941    4940    4942
    4943    4944    4943    4945    4946    4947    4946    4948
    4949    4950    4949    4951    4952    4953    4952    4954
    4955    4956    4955    4957    4958    4959    4958    4960
    4961    4962    4961    4963    4964    4965    4964    4966
    4967    4968    4967    4969    4970    4971    4970    4972
    4973    4974    4973    4975    4976    4977    4976    4978
    4979    4980    4979    4981    4982    4983    4982    4984
    4985    4986    4985    4987    4988    4989    4988    4990
    4991    4992    4991    4993    4994    4995    4994    4996
    4997    4998    4997    4999    5000    5001    5000    5002
    5003    5004    5003    5005    5006    5007    5006    5008
    5009    5010    5009    5011    5012    5013    5012    5014
    5015    5016    5015    5017    5018    5019    5018    5020
    5021    5022    5021    5023    5024    5025    5024    5026
    5027    5028    5027    5029    5030    5031    5030    5032
    5033    5034    5033    5035    5036    5037    5036    5038
    5039    5040    5039    5041    5042    5043    5042    5044
    5045    5046    5045    5047    5048    5049    5048    5050
    5051    5052    5051    5053    5054    5055    5054    5056
    5057    5058    5057    5059    5060    5061    5060    5062
    5063    5064    5063    5065    5066    5067    5066    5068
    5069    5070    5069    5071    5072    5073    5072    5074
    5075    5076    5075    5077    5078    5079    5078    5080
    5081    5082    5081    5083    5084    5085    5084    5086
    5087    5088    5087    5089    5090    5091    5090    5092
    5093    5094    5093    5095    5096    5097    5096    5098
    5099    5100    5099    5101    5102    5103    5102    5104
    5105    5106    5105    5107    5108    5109    5108    5110
    5111    5112    5111    5113    5114    5115    5114    5116
    5117    5118    5117    5119    5120    5121    5120    5122
    5123    5124    5123    5125    5126    5127    5126    5128
    5129    5130    5129    5131    5132    5133    5132    5134
    5135    5136    5135    5137    5138    5139    5138    5140
    5141    5142    5141    5143    5144    5145    5144    5146
    5147    5148    5147    5149    5150    5151    5150    5152
    5153    5154    5153    5155    5156    5157    5156    5158
    5159    5160    5159    5161    5162    5163    5162    5164
    5165    5166    5165    5167    5168    5169    5168    5170
    5171    5172    5171    5173    5174    5175    5174    5176
    5177    5178    5177    5179    5180    5181    5180    5182
    5183    5184    5183    5185    5186    5187    5186    5188
    5189    5190    5189    5191    5192    5193    5192    5194
    5195    5196    5195    5197    5198    5199    5198    5200
    5201    5202    5201    5203    5204    5205    5204    5206
    5207    5208    5207    5209    5210    5211    5210    5212
    5213    5214    5213    5215    5216    5217    5216    5218
    5219    5220    5219    5221    5222    5223    5222    5224
    5225    5226    5225    5227    5228    5229    5228    5230
    5231    5232    5231    5233    5234    5235    5234    5236
    5237    5238    5237    5239    5240    5241    5240    5242
    5243    5244    5243    5245    5246    5247    5246    5248
    5249    5250    5249    5251    5252    5253    5252    5254
    5255    5256    5255    5257    5258    5259    5258    5260
    5261    5262    5261    5263    5264    5265    5264    5266
    5267    5268    5267    5269    5270    5271    5270    5272
    5273    5274    5273    5275    5276    5277    5276    5278
    5279    5280    5279    5281    5282    5283    5282    5284
    5285    5286    5285    5287    5288    5289    5288    5290
    5291    5292    5291    5293    5294    5295    5294    5296
    5297    5298    5297    5299    5300    5301    5300    5302
    5303    5304    5303    5305    5306    5307    5306    5308
    5309    5310    5309    5311    5312    5313    5312    5314
    5315    5316    5315    5317    5318    5319    5318    5320
    5321    5322    5321    5323    5324    5325    5324    5326
    5327    5328    5327    5329    5330    5331    5330    5332
    5333    5334    5333    5335    5336    5337    5336    5338
    5339    5340    5339    5341    5342    5343    5342    5344
    5345    5346    5345    5347    5348    5349    5348    5350
    5351    5352    5351    5353    5354    5355    5354    5356
    5357    5358    5357    5359    5360    5361    5360    5362
    5363    5364    5363    5365    5366    5367    5366    5368
    5369    5370    5369    5371    5372    5373    5372    5374
    5375    5376    5375    5377    5378    5379    5378    5380
    5381    5382    5381    5383    5384    5385    5384    5386
    5387    5388    5387    5389    5390    5391    5390    5392
    5393    5394    5393    5395    5396    5397    5396    5398
    5399    5400    5399    5401    5402    5403    5402    5404
    5405    5406    5405    5407    5408    5409    5408    5410
    5411    5412    5411    5413    5414    5415    5414    5416
    5417    5418    5417    5419    5420    5421    5420    5422
    5423    5424    5423    5425    5426    5427    5426    5428
    5429    5430    5429    5431    5432    5433    5432    5434
    5435    5436    5435    5437    5438    5439    5438    5440
    5441    5442    5441    5443    5444    5445    5444    5446
    5447    5448    5447    5449    5450    5451    5450    5452
    5453    5454    5453    5455    5456    5457    5456    5458
    5459    5460    5459    5461    5462    5463    5462    5464
    5465    5466    5465    5467    5468    5469    5468    5470
    5471    5472    5471    5473    5474    5475    5474    5476
    5477    5478    5477    5479    5480    5481    5480    5482
    5483    5484    5483    5485    5486    5487    5486    5488
    5489    5490    5489    5491    5492    5493    5492    5494
    5495    5496    5495    5497    5498    5499    5498    5500
    5501    5502    5501    5503    5504    5505    5504    5506
    5507    5508    5507    5509    5510    5511    5510    5512
    5513    5514    5513    5515    5516    5517    5516    5518
    5519    5520    5519    5521    5522    5523    5522    5524
    5525    5526    5525    5527    5528    5529    5528    5530
    5531    5532    5531    5533    5534    5535    5534    5536
    5537    5538    5537    5539    5540    5541    5540    5542
    5543    5544    5543    5545    5546    5547    5546    5548
    5549    5550    5549    5551    5552    5553    5552    5554
    5555    5556    5555    5557    5558    5559    5558    5560
    5561    5562    5561    5563    5564    5565    5564    5566
    5567    5568    5567    5569    5570    5571    5570    5572
    5573    5574    5573    5575    5576    5577    5576    5578
    5579    5580    5579    5581    5582    5583    5582    5584
    5585    5586    5585    5587    5588    5589    5588    5590
    5591    5592    5591    5593    5594    5595    5594    5596
    5597    5598    5597    5599    5600    5601    5600    5602
    5603    5604    5603    5605    5606    5607    5606    5608
    5609    5610    5609    5611    5612    5613    5612    5614
    5615    5616    5615    5617    5618    5619    5618    5620
    5621    5622    5621    5623    5624    5625    5624    5626
    5627    5628    5627    5629    5630    5631    5630    5632
    5633    5634    5633    5635    5636    5637    5636    5638
    5639    5640    5639    5641    5642    5643    5642    5644
    5645    5646    5645    5647    5648    5649    5648    5650
    5651    5652    5651    5653    5654    5655    5654    5656
    5657    5658    5657    5659    5660    5661    5660    5662
    5663    5664    5663    5665    5666    5667    5666    5668
    5669    5670    5669    5671    5672    5673    5672    5674
    5675    5676    5675    5677    5678    5679    5678    5680
    5681    5682    5681    5683    5684    5685    5684    5686
    5687    5688    5687    5689    5690    5691    5690    5692
    5693    5694    5693    5695    5696    5697    5696    5698
    5699    5700    5699    5701    5702    5703    5702    5704
    5705    5706    5705    5707    5708    5709    5708    5710
    5711    5712    5711    5713    5714    5715    5714    5716
    5717    5718    5717    5719    5720    5721    5720    5722
    5723    5724    5723    5725    5726    5727    5726    5728
    5729    5730    5729    5731    5732    5733    5732    5734
    5735    5736    5735    5737    5738    5739    5738    5740
    5741    5742    5741    5743    5744    5745    5744    5746
    5747    5748    5747    5749    5750    5751    5750    5752
    5753    5754    5753    5755    5756    5757    5756    5758
    5759    5760    5759    5761    5762    5763    5762    5764
    5765    5766    5765    5767    5768    5769    5768    5770
    5771    5772    5771    5773    5774    5775    5774    5776
    5777    5778    5777    5779    5780    5781    5780    5782
    5783    5784    5783    5785    5786    5787    5786    5788
    5789    5790    5789    5791    5792    5793    5792    5794
    5795    5796    5795    5797    5798    5799    5798    5800
    5801    5802    5801    5803    5804    5805    5804    5806
    5807    5808    5807    5809    5810    5811    5810    5812
    5813    5814    5813    5815    5816    5817    5816    5818
    5819    5820    5819    5821    5822    5823    5822    5824
    5825    5826    5825    5827    5828    5829    5828    5830
    5831    5832    5831    5833    5834    5835    5834    5836
    5837    5838    5837    5839    5840    5841    5840    5842
    5843    5844    5843    5845    5846    5847    5846    5848
    5849    5850    5849    5851    5852    5853    5852    5854
    5855    5856    5855    5857    5858    5859    5858    5860
    5861    5862    5861    5863    5864    5865    5864    5866
    5867    5868    5867    5869    5870    5871    5870    5872
    5873    5874    5873    5875    5876    5877    5876    5878
    5879    5880    5879    5881    5882    5883    5882    5884
    5885    5886    5885    5887    5888    5889    5888    5890
    5891    5892    5891    5893    5894    5895    5894    5896
    5897    5898    5897    5899    5900    5901    5900    5902
    5903    5904    5903    5905    5906    5907    5906    5908
    5909    5910    5909    5911    5912    5913    5912    5914
    5915    5916    5915    5917    5918    5919    5918    5920
    5921    5922    5921    5923    5924    5925    5924    5926
    5927    5928    5927    5929    5930    5931    5930    5932
    5933    5934    5933    5935    5936    5937    5936    5938
    5939    5940    5939    5941    5942    5943    5942    5944
    5945    5946    5945    5947    5948    5949    5948    5950
    5951    5952    5951    5953    5954    5955    5954    5956
    5957    5958    5957    5959    5960    5961    5960    5962
    5963    5964    5963    5965    5966    5967    5966    5968
    5969    5970    5969    5971    5972    5973    5972    5974
    5975    5976    5975    5977    5978    5979    5978    5980
    5981    5982    5981    5983    5984    5985    5984    5986
    5987    5988    5987    5989    5990    5991    5990    5992
    5993    5994    5993    5995    5996    5997    5996    5998
    5999    6000    5999    6001    6002    6003    6002    6004
    6005    6006    6005    6007    6008    6009    6008    6010
    6011    6012    6011    6013    6014    6015    6014    6016
    6017    6018    6017    6019    6020    6021    6020    6022
    6023    6024    6023    6025    6026    6027    6026    6028
    6029    6030    6029    6031    6032    6033    6032    6034
    6035    6036    6035    6037    6038    6039    6038    6040
    6041    6042    6041    6043    6044    6045    6044    6046
    6047    6048    6047    6049    6050    6051    6050    6052
    6053    6054    6053    6055    6056    6057    6056    6058
    6059    6060    6059    6061    6062    6063    6062    6064
    6065    6066    6065    6067    6068    6069    6068    6070
    6071    6072    6071    6073    6074    6075    6074    6076
    6077    6078    6077    6079    6080    6081    6080    6082
    6083    6084    6083    6085    6086    6087    6086    6088
    6089    6090    6089    6091    6092    6093    6092    6094
    6095    6096    6095    6097    6098    6099    6098    6100
    6101    6102    6101    6103    6104    6105    6104    6106
    6107    6108    6107    6109    6110    6111    6110    6112
    6113    6114    6113    6115    6116    6117    6116    6118
    6119    6120    6119    6121    6122    6123    6122    6124
    6125    6126    6125    6127    6128    6129    6128    6130
    6131    6132    6131    6133    6134    6135    6134    6136
    6137    6138    6137    6139    6140    6141    6140    6142
    6143    6144    6143    6145    6146    6147    6146    6148
    6149    6150    6149    6151    6152    6153    6152    6154
    6155    6156    6155    6157    6158    6159    6158    6160
    6161    6162    6161    6163    6164    6165    6164    6166
    6167    6168    6167    6169    6170    6171    6170    6172
    6173    6174    6173    6175    6176    6177    6176    6178
    6179    6180    6179    6181    6182    6183    6182    6184
    6185    6186    6185    6187    6188    6189    6188    6190
    6191    6192    6191    6193    6194    6195    6194    6196
    6197    6198    6197    6199    6200    6201    6200    6202
    6203    6204    6203    6205    6206    6207    6206    6208
    6209    6210    6209    6211    6212    6213    6212    6214
    6215    6216    6215    6217    6218    6219    6218    6220
    6221    6222    6221    6223    6224    6225    6224    6226
    6227    6228    6227    6229    6230    6231    6230    6232
    6233    6234    6233    6235    6236    6237    6236    6238
    6239    6240    6239    6241    6242    6243    6242    6244
    6245    6246    6245    6247    6248    6249    6248    6250
    6251    6252    6251    6253    6254    6255    6254    6256
    6257    6258    6257    6259    6260    6261    6260    6262
    6263    6264    6263    6265    6266    6267    6266    6268
    6269    6270    6269    6271    6272    6273    6272    6274
    6275    6276    6275    6277    6278    6279    6278    6280
    6281    6282    6281    6283    6284    6285    6284    6286
    6287    6288    6287    6289    6290    6291    6290    6292
    6293    6294    6293    6295    6296    6297    6296    6298
    6299    6300    6299    6301    6302    6303    6302    6304
    6305    6306    6305    6307    6308    6309    6308    6310
    6311    6312    6311    6313    6314    6315    6314    6316
    6317    6318    6317    6319    6320    6321    6320    6322
    6323    6324    6323    6325    6326    6327    6326    6328
    6329    6330    6329    6331    6332    6333    6332    6334
    6335    6336    6335    6337    6338    6339    6338    6340
    6341    6342    6341    6343    6344    6345    6344    6346
    6347    6348    6347    6349    6350    6351    6350    6352
    6353    6354    6353    6355    6356    6357    6356    6358
    6359    6360    6359    6361    6362    6363    6362    6364
    6365    6366    6365    6367    6368    6369    6368    6370
    6371    6372    6371    6373    6374    6375    6374    6376
    6377    6378    6377    6379    6380    6381    6380    6382
    6383    6384    6383    6385    6386    6387    6386    6388
    6389    6390    6389    6391    6392    6393    6392    6394
    6395    6396    6395    6397    6398    6399    6398    6400
    6401    6402    6401    6403    6404    6405    6404    6406
    6407    6408    6407    6409    6410    6411    6410    6412
    6413    6414    6413    6415    6416    6417    6416    6418
    6419    6420    6419    6421    6422    6423    6422    6424
    6425    6426    6425    6427    6428    6429    6428    6430
    6431    6432    6431    6433    6434    6435    6434    6436
    6437    6438    6437    6439    6440    6441    6440    6442
    6443    6444    6443    6445    6446    6447    6446    6448
    6449    6450    6449    6451    6452    6453    6452    6454
    6455    6456    6455    6457    6458    6459    6458    6460
    6461    6462    6461    6463    6464    6465    6464    6466
    6467    6468    6467    6469    6470    6471    6470    6472
    6473    6474    6473    6475    6476    6477    6476    6478
    6479    6480    6479    6481    6482    6483    6482    6484
    6485    6486    6485    6487    6488    6489    6488    6490
    6491    6492    6491    6493    6494    6495    6494    6496
    6497    6498    6497    6499    6500    6501    6500    6502
    6503    6504    6503    6505    6506    6507    6506    6508
    6509    6510    6509    6511    6512    6513    6512    6514
    6515    6516    6515    6517    6518    6519    6518    6520
    6521    6522    6521    6523    6524    6525    6524    6526
    6527    6528    6527    6529    6530    6531    6530    6532
    6533    6534    6533    6535    6536    6537    6536    6538
    6539    6540    6539    6541    6542    6543    6542    6544
    6545    6546    6545    6547    6548    6549    6548    6550
    6551    6552    6551    6553    6554    6555    6554    6556
    6557    6558    6557    6559    6560    6561    6560    6562
    6563    6564    6563    6565    6566    6567    6566    6568
    6569    6570    6569    6571    6572    6573    6572    6574
    6575    6576    6575    6577    6578    6579    6578    6580
    6581    6582    6581    6583    6584    6585    6584    6586
    6587    6588    6587    6589    6590    6591    6590    6592
    6593    6594    6593    6595    6596    6597    6596    6598
    6599    6600    6599    6601    6602    6603    6602    6604
    6605    6606    6605    6607    6608    6609    6608    6610
    6611    6612    6611    6613    6614    6615    6614    6616
    6617    6618    6617    6619    6620    6621    6620    6622
    6623    6624    6623    6625    6626    6627    6626    6628
    6629    6630    6629    6631    6632    6633    6632    6634
    6635    6636    6635    6637    6638    6639    6638    6640
    6641    6642    6641    6643    6644    6645    6644    6646
    6647    6648    6647    6649    6650    6651    6650    6652
    6653    6654    6653    6655    6656    6657    6656    6658
    6659    6660    6659    6661    6662    6663    6662    6664
    6665    6666    6665    6667    6668    6669    6668    6670
    6671    6672    6671    6673    6674    6675    6674    6676
    6677    6678    6677    6679    6680    6681    6680    6682
    6683    6684    6683    6685    6686    6687    6686    6688
    6689    6690    6689    6691    6692    6693    6692    6694
    6695    6696    6695    6697    6698    6699    6698    6700
    6701    6702    6701    6703    6704    6705    6704    6706
    6707    6708    6707    6709    6710    6711    6710    6712
    6713    6714    6713    6715    6716    6717    6716    6718
    6719    6720    6719    6721    6722    6723    6722    6724
    6725    6726    6725    6727    6728    6729    6728    6730
    6731    6732    6731    6733    6734    6735    6734    6736
    6737    6738    6737    6739    6740    6741    6740    6742
    6743    6744    6743    6745    6746    6747    6746    6748
    6749    6750    6749    6751    6752    6753    6752    6754
    6755    6756    6755    6757    6758    6759    6758    6760
    6761    6762    6761    6763    6764    6765    6764    6766
    6767    6768    6767    6769    6770    6771    6770    6772
    6773    6774    6773    6775    6776    6777    6776    6778
    6779    6780    6779    6781    6782    6783    6782    6784
    6785    6786    6785    6787    6788    6789    6788    6790
    6791    6792    6791    6793    6794    6795    6794    6796
    6797    6798    6797    6799    6800    6801    6800    6802
    6803    6804    6803    6805    6806    6807    6806    6808
    6809    6810    6809    6811    6812    6813    6812    6814
    6815    6816    6815    6817    6818    6819    6818    6820
    6821    6822    6821    6823    6824    6825    6824    6826
    6827    6828    6827    6829    6830    6831    6830    6832
    6833    6834    6833    6835    6836    6837    6836    6838
    6839    6840    6839    6841    6842    6843    6842    6844
    6845    6846    6845    6847    6848    6849    6848    6850
    6851    6852    6851    6853    6854    6855    6854    6856
    6857    6858    6857    6859    6860    6861    6860    6862
    6863    6864    6863    6865    6866    6867    6866    6868
    6869    6870    6869    6871    6872    6873    6872    6874
    6875    6876    6875    6877    6878    6879    6878    6880
    6881    6882    6881    6883    6884    6885    6884    6886
    6887    6888    6887    6889    6890    6891    6890    6892
    6893    6894    6893    6895    6896    6897    6896    6898
    6899    6900    6899    6901    6902    6903    6902    6904
    6905    6906    6905    6907    6908    6909    6908    6910
    6911    6912    6911    6913    6914    6915    6914    6916
    6917    6918    6917    6919    6920    6921    6920    6922
    6923    6924    6923    6925    6926    6927    6926    6928
    6929    6930    6929    6931    6932    6933    6932    6934
    6935    6936    6935    6937    6938    6939    6938    6940
    6941    6942    6941    6943    6944    6945    6944    6946
    6947    6948    6947    6949    6950    6951    6950    6952
    6953    6954    6953    6955    6956    6957    6956    6958
    6959    6960    6959    6961    6962    6963    6962    6964
    6965    6966    6965    6967    6968    6969    6968    6970
    6971    6972    6971    6973    6974    6975    6974    6976
    6977    6978    6977    6979    6980    6981    6980    6982
    6983    6984    6983    6985    6986    6987    6986    6988
    6989    6990    6989    6991    6992    6993    6992    6994
    6995    6996    6995    6997    6998    6999    6998    7000
    7001    7002    7001    7003    7004    7005    7004    7006
    7007    7008    7007    7009    7010    7011    7010    7012
    7013    7014    7013    7015    7016    7017    7016    7018
    7019    7020    7019    7021    7022    7023    7022    7024
    7025    7026    7025    7027    7028    7029    7028    7030
    7031    7032    7031    7033    7034    7035    7034    7036
    7037    7038    7037    7039    7040    7041    7040    7042
    7043    7044    7043    7045    7046    7047    7046    7048
    7049    7050    7049    7051    7052    7053    7052    7054
    7055    7056    7055    7057    7058    7059    7058    7060
    7061    7062    7061    7063    7064    7065    7064    7066
    7067    7068    7067    7069    7070    7071    7070    7072
    7073    7074    7073    7075    7076    7077    7076    7078
    7079    7080    7079    7081    7082    7083    7082    7084
    7085    7086    7085    7087    7088    7089    7088    7090
    7091    7092    7091    7093    7094    7095    7094    7096
    7097    7098    7097    7099    7100    7101    7100    7102
    7103    7104    7103    7105    7106    7107    7106    7108
    7109    7110    7109    7111    7112    7113    7112    7114
    7115    7116    7115    7117    7118    7119    7118    7120
    7121    7122    7121    7123    7124    7125    7124    7126
    7127    7128    7127    7129    7130    7131    7130    7132
    7133    7134    7133    7135    7136    7137    7136    7138
    7139    7140    7139    7141    7142    7143    7142    7144
    7145    7146    7145    7147    7148    7149    7148    7150
    7151    7152    7151    7153    7154    7155    7154    7156
    7157    7158    7157    7159    7160    7161    7160    7162
    7163    7164    7163    7165    7166    7167    7166    7168
    7169    7170    7169    7171    7172    7173    7172    7174
    7175    7176    7175    7177    7178    7179    7178    7180
    7181    7182    7181    7183    7184    7185    7184    7186
    7187    7188    7187    7189    7190    7191    7190    7192
    7193    7194    7193    7195    7196    7197    7196    7198
    7199    7200    7199    7201    7202    7203    7202    7204
    7205    7206    7205    7207    7208    7209    7208    7210
    7211    7212    7211    7213    7214    7215    7214    7216
    7217    7218    7217    7219    7220    7221    7220    7222
    7223    7224    7223    7225    7226    7227    7226    7228
    7229    7230    7229    7231    7232    7233    7232    7234
    7235    7236    7235    7237    7238    7239    7238    7240
    7241    7242    7241    7243    7244    7245    7244    7246
    7247    7248    7247    7249    7250    7251    7250    7252
    7253    7254    7253    7255    7256    7257    7256    7258
    7259    7260    7259    7261    7262    7263    7262    7264
    7265    7266    7265    7267    7268    7269    7268    7270
    7271    7272    7271    7273    7274    7275    7274    7276
    7277    7278    7277    7279    7280    7281    7280    7282
    7283    7284    7283    7285    7286    7287    7286    7288
    7289    7290    7289    7291    7292    7293    7292    7294
    7295    7296    7295    7297    7298    7299    7298    7300
    7301    7302    7301    7303    7304    7305    7304    7306
    7307    7308    7307    7309    7310    7311    7310    7312
    7313    7314    7313    7315    7316    7317    7316    7318
    7319    7320    7319    7321    7322    7323    7322    7324
    7325    7326    7325    7327    7328    7329    7328    7330
    7331    7332    7331    7333    7334    7335    7334    7336
    7337    7338    7337    7339    7340    7341    7340    7342
    7343    7344    7343    7345    7346    7347    7346    7348
    7349    7350    7349    7351    7352    7353    7352    7354
    7355    7356    7355    7357    7358    7359    7358    7360
    7361    7362    7361    7363    7364    7365    7364    7366
    7367    7368    7367    7369    7370    7371    7370    7372
    7373    7374    7373    7375    7376    7377    7376    7378
    7379    7380    7379    7381    7382    7383    7382    7384
    7385    7386    7385    7387    7388    7389    7388    7390
    7391    7392    7391    7393    7394    7395    7394    7396
    7397    7398    7397    7399    7400    7401    7400    7402
    7403    7404    7403    7405    7406    7407    7406    7408
    7409    7410    7409    7411    7412    7413    7412    7414
    7415    7416    7415    7417    7418    7419    7418    7420
    7421    7422    7421    7423    7424    7425    7424    7426
    7427    7428    7427    7429    7430    7431    7430    7432
    7433    7434    7433    7435    7436    7437    7436    7438
    7439    7440    7439    7441    7442    7443    7442    7444
    7445    7446    7445    7447    7448    7449    7448    7450
    7451    7452    7451    7453    7454    7455    7454    7456
    7457    7458    7457    7459    7460    7461    7460    7462
    7463    7464    7463    7465    7466    7467    7466    7468
    7469    7470    7469    7471    7472    7473    7472    7474
    7475    7476    7475    7477    7478    7479    7478    7480
    7481    7482    7481    7483    7484    7485    7484    7486
    7487    7488    7487    7489    7490    7491    7490    7492
    7493    7494    7493    7495    7496    7497    7496    7498
    7499    7500    7499    7501    7502    7503    7502    7504
    7505    7506    7505    7507    7508    7509    7508    7510
    7511    7512    7511    7513    7514    7515    7514    7516
    7517    7518    7517    7519    7520    7521    7520    7522
    7523    7524    7523    7525    7526    7527    7526    7528
    7529    7530    7529    7531    7532    7533    7532    7534
    7535    7536    7535    7537    7538    7539    7538    7540
    7541    7542    7541    7543    7544    7545    7544    7546
    7547    7548    7547    7549    7550    7551    7550    7552
    7553    7554    7553    7555    7556    7557    7556    7558
    7559    7560    7559    7561    7562    7563    7562    7564
    7565    7566    7565    7567    7568    7569    7568    7570
    7571    7572    7571    7573    7574    7575    7574    7576
    7577    7578    7577    7579    7580    7581    7580    7582
    7583    7584    7583    7585    7586    7587    7586    7588
    7589    7590    7589    7591    7592    7593    7592    7594
    7595    7596    7595    7597    7598    7599    7598    7600
    7601    7602    7601    7603    7604    7605    7604    7606
    7607    7608    7607    7609    7610    7611    7610    7612
    7613    7614    7613    7615    7616    7617    7616    7618
    7619    7620    7619    7621    7622    7623    7622    7624
    7625    7626    7625    7627    7628    7629    7628    7630
    7631    7632    7631    7633    7634    7635    7634    7636
    7637    7638    7637    7639    7640    7641    7640    7642
    7643    7644    7643    7645    7646    7647    7646    7648
    7649    7650    7649    7651    7652    7653    7652    7654
    7655    7656    7655    7657    7658    7659    7658    7660
    7661    7662    7661    7663    7664    7665    7664    7666
    7667    7668    7667    7669    7670    7671    7670    7672
    7673    7674    7673    7675    7676    7677    7676    7678
    7679    7680    7679    7681    7682    7683    7682    7684
    7685    7686    7685    7687    7688    7689    7688    7690
    7691    7692    7691    7693    7694    7695    7694    7696
    7697    7698    7697    7699    7700    7701    7700    7702
    7703    7704    7703    7705    7706    7707    7706    7708
    7709    7710    7709    7711    7712    7713    7712    7714
    7715    7716    7715    7717    7718    7719    7718    7720
    7721    7722    7721    7723    7724    7725    7724    7726
    7727    7728    7727    7729    7730    7731    7730    7732
    7733    7734    7733    7735    7736    7737    7736    7738
    7739    7740    7739    7741    7742    7743    7742    7744
    7745    7746    7745    7747    7748    7749    7748    7750
    7751    7752    7751    7753    7754    7755    7754    7756
    7757    7758    7757    7759    7760    7761    7760    7762
    7763    7764    7763    7765    7766    7767    7766    7768
    7769    7770    7769    7771    7772    7773    7772    7774
    7775    7776    7775    7777    7778    7779    7778    7780
    7781    7782    7781    7783    7784    7785    7784    7786
    7787    7788    7787    7789    7790    7791    7790    7792
    7793    7794    7793    7795    7796    7797    7796    7798
    7799    7800    7799    7801    7802    7803    7802    7804
    7805    7806    7805    7807    7808    7809    7808    7810
    7811    7812    7811    7813    7814    7815    7814    7816
    7817    7818    7817    7819    7820    7821    7820    7822
    7823    7824    7823    7825    7826    7827    7826    7828
    7829    7830    7829    7831    7832    7833    7832    7834
    7835    7836    7835    7837    7838    7839    7838    7840
    7841    7842    7841    7843    7844    7845    7844    7846
    7847    7848    7847    7849    7850    7851    7850    7852
    7853    7854    7853    7855    7856    7857    7856    7858
    7859    7860    7859    7861    7862    7863    7862    7864
    7865    7866    7865    7867    7868    7869    7868    7870
    7871    7872    7871    7873    7874    7875    7874    7876
    7877    7878    7877    7879    7880    7881    7880    7882
    7883    7884    7883    7885    7886    7887    7886    7888
    7889    7890    7889    7891    7892    7893    7892    7894
    7895    7896    7895    7897    7898    7899    7898    7900
    7901    7902    7901    7903    7904    7905    7904    7906
    7907    7908    7907    7909    7910    7911    7910    7912
    7913    7914    7913    7915    7916    7917    7916    7918
    7919    7920    7919    7921    7922    7923    7922    7924
    7925    7926    7925    7927    7928    7929    7928    7930
    7931    7932    7931    7933    7934    7935    7934    7936
    7937    7938    7937    7939    7940    7941    7940    7942
    7943    7944    7943    7945    7946    7947    7946    7948
    7949    7950    7949    7951    7952    7953    7952    7954
    7955    7956    7955    7957    7958    7959    7958    7960
    7961    7962    7961    7963    7964    7965    7964    7966
    7967    7968    7967    7969    7970    7971    7970    7972
    7973    7974    7973    7975    7976    7977    7976    7978
    7979    7980    7979    7981    7982    7983    7982    7984
    7985    7986    7985    7987    7988    7989    7988    7990
    7991    7992    7991    7993    7994    7995    7994    7996
    7997    7998    7997    7999    8000    8001    8000    8002
    8003    8004    8003    8005    8006    8007    8006    8008
    8009    8010    8009    8011    8012    8013    8012    8014
    8015    8016    8015    8017    8018    8019    8018    8020
    8021    8022    8021    8023    8024    8025    8024    8026
    8027    8028    8027    8029    8030    8031    8030    8032
    8033    8034    8033    8035    8036    8037    8036    8038
    8039    8040    8039    8041    8042    8043    8042    8044
    8045    8046    8045    8047    8048    8049    8048    8050
    8051    8052    8051    8053    8054    8055    8054    8056
    8057    8058    8057    8059    8060    8061    8060    8062
    8063    8064    8063    8065    8066    8067    8066    8068
    8069    8070    8069    8071    8072    8073    8072    8074
    8075    8076    8075    8077    8078    8079    8078    8080
    8081    8082    8081    8083    8084    8085    8084    8086
    8087    8088    8087    8089    8090    8091    8090    8092
    8093    8094    8093    8095    8096    8097    8096    8098
    8099    8100    8099    8101    8102    8103    8102    8104
    8105    8106    8105    8107    8108    8109    8108    8110
    8111    8112    8111    8113    8114    8115    8114    8116
    8117    8118    8117    8119    8120    8121    8120    8122
    8123    8124    8123    8125    8126    8127    8126    8128
    8129    8130    8129    8131    8132    8133    8132    8134
    8135    8136    8135    8137    8138    8139    8138    8140
    8141    8142    8141    8143    8144    8145    8144    8146
    8147    8148    8147    8149    8150    8151    8150    8152
    8153    8154    8153    8155    8156    8157    8156    8158
    8159    8160    8159    8161    8162    8163    8162    8164
    8165    8166    8165    8167    8168    8169    8168    8170
    8171    8172    8171    8173    8174    8175    8174    8176
    8177    8178    8177    8179    8180    8181    8180    8182
    8183    8184    8183    8185    8186    8187    8186    8188
    8189    8190    8189    8191    8192    8193    8192    8194
    8195    8196    8195    8197    8198    8199    8198    8200
    8201    8202    8201    8203    8204    8205    8204    8206
    8207    8208    8207    8209    8210    8211    8210    8212
    8213    8214    8213    8215    8216    8217    8216    8218
    8219    8220    8219    8221    8222    8223    8222    8224
    8225    8226    8225    8227    8228    8229    8228    8230
    8231    8232    8231    8233    8234    8235    8234    8236
    8237    8238    8237    8239    8240    8241    8240    8242
    8243    8244    8243    8245    8246    8247    8246    8248
    8249    8250    8249    8251    8252    8253    8252    8254
    8255    8256    8255    8257    8258    8259    8258    8260
    8261    8262    8261    8263    8264    8265    8264    8266
    8267    8268    8267    8269    8270    8271    8270    8272
    8273    8274    8273    8275    8276    8277    8276    8278
    8279    8280    8279    8281    8282    8283    8282    8284
    8285    8286    8285    8287    8288    8289    8288    8290
    8291    8292    8291    8293    8294    8295    8294    8296
    8297    8298    8297    8299    8300    8301    8300    8302
    8303    8304    8303    8305    8306    8307    8306    8308
    8309    8310    8309    8311    8312    8313    8312    8314
    8315    8316    8315    8317    8318    8319    8318    8320
    8321    8322    8321    8323    8324    8325    8324    8326
    8327    8328    8327    8329    8330    8331    8330    8332
    8333    8334    8333    8335    8336    8337    8336    8338
    8339    8340    8339    8341    8342    8343    8342    8344
    8345    8346    8345    8347    8348    8349    8348    8350
    8351    8352    8351    8353    8354    8355    8354    8356
    8357    8358    8357    8359    8360    8361    8360    8362
    8363    8364    8363    8365    8366    8367    8366    8368
    8369    8370    8369    8371    8372    8373    8372    8374
    8375    8376    8375    8377    8378    8379    8378    8380
    8381    8382    8381    8383    8384    8385    8384    8386
    8387    8388    8387    8389    8390    8391    8390    8392
    8393    8394    8393    8395    8396    8397    8396    8398
    8399    8400    8399    8401    8402    8403    8402    8404
    8405    8406    8405    8407    8408    8409    8408    8410
    8411    8412    8411    8413    8414    8415    8414    8416
    8417    8418    8417    8419    8420    8421    8420    8422
    8423    8424    8423    8425    8426    8427    8426    8428
    8429    8430    8429    8431    8432    8433    8432    8434
    8435    8436    8435    8437    8438    8439    8438    8440
    8441    8442    8441    8443    8444    8445    8444    8446
    8447    8448    8447    8449    8450    8451    8450    8452
    8453    8454    8453    8455    8456    8457    8456    8458
    8459    8460    8459    8461    8462    8463    8462    8464
    8465    8466    8465    8467    8468    8469    8468    8470
    8471    8472    8471    8473    8474    8475    8474    8476
    8477    8478    8477    8479    8480    8481    8480    8482
    8483    8484    8483    8485    8486    8487    8486    8488
    8489    8490    8489    8491    8492    8493    8492    8494
    8495    8496    8495    8497    8498    8499    8498    8500
    8501    8502    8501    8503    8504    8505    8504    8506
    8507    8508    8507    8509    8510    8511    8510    8512
    8513    8514    8513    8515    8516    8517    8516    8518
    8519    8520    8519    8521    8522    8523    8522    8524
    8525    8526    8525    8527    8528    8529    8528    8530
    8531    8532    8531    8533    8534    8535    8534    8536
    8537    8538    8537    8539    8540    8541    8540    8542
    8543    8544    8543    8545    8546    8547    8546    8548
    8549    8550    8549    8551    8552    8553    8552    8554
    8555    8556    8555    8557    8558    8559    8558    8560
    8561    8562    8561    8563    8564    8565    8564    8566
    8567    8568    8567    8569    8570    8571    8570    8572
    8573    8574    8573    8575    8576    8577    8576    8578
    8579    8580    8579    8581    8582    8583    8582    8584
    8585    8586    8585    8587    8588    8589    8588    8590
    8591    8592    8591    8593    8594    8595    8594    8596
    8597    8598    8597    8599    8600    8601    8600    8602
    8603    8604    8603    8605    8606    8607    8606    8608
    8609    8610    8609    8611    8612    8613    8612    8614
    8615    8616    8615    8617    8618    8619    8618    8620
    8621    8622    8621    8623    8624    8625    8624    8626
    8627    8628    8627    8629    8630    8631    8630    8632
    8633    8634    8633    8635    8636    8637    8636    8638
    8639    8640    8639    8641    8642    8643    8642    8644
    8645    8646    8645    8647    8648    8649    8648    8650
    8651    8652    8651    8653    8654    8655    8654    8656
    8657    8658    8657    8659    8660    8661    8660    8662
    8663    8664    8663    8665    8666    8667    8666    8668
    8669    8670    8669    8671    8672    8673    8672    8674
    8675    8676    8675    8677    8678    8679    8678    8680
    8681    8682    8681    8683    8684    8685    8684    8686
    8687    8688    8687    8689    8690    8691    8690    8692
    8693    8694    8693    8695    8696    8697    8696    8698
    8699    8700    8699    8701    8702    8703    8702    8704
    8705    8706    8705    8707    8708    8709    8708    8710
    8711    8712    8711    8713    8714    8715    8714    8716
    8717    8718    8717    8719    8720    8721    8720    8722
    8723    8724    8723    8725    8726    8727    8726    8728
    8729    8730    8729    8731    8732    8733    8732    8734
    8735    8736    8735    8737    8738    8739    8738    8740
    8741    8742    8741    8743    8744    8745    8744    8746
    8747    8748    8747    8749    8750    8751    8750    8752
    8753    8754    8753    8755    8756    8757    8756    8758
    8759    8760    8759    8761    8762    8763    8762    8764
    8765    8766    8765    8767    8768    8769    8768    8770
    8771    8772    8771    8773    8774    8775    8774    8776
    8777    8778    8777    8779    8780    8781    8780    8782
    8783    8784    8783    8785    8786    8787    8786    8788
    8789    8790    8789    8791    8792    8793    8792    8794
    8795    8796    8795    8797    8798    8799    8798    8800
    8801    8802    8801    8803    8804    8805    8804    8806
    8807    8808    8807    8809    8810    8811    8810    8812
    8813    8814    8813    8815    8816    8817    8816    8818
    8819    8820    8819    8821    8822    8823    8822    8824
    8825    8826    8825    8827    8828    8829    8828    8830
    8831    8832    8831    8833    8834    8835    8834    8836
    8837    8838    8837    8839    8840    8841    8840    8842
    8843    8844    8843    8845    8846    8847    8846    8848
    8849    8850    8849    8851    8852    8853    8852    8854
    8855    8856    8855    8857    8858    8859    8858    8860
    8861    8862    8861    8863    8864    8865    8864    8866
    8867    8868    8867    8869    8870    8871    8870    8872
    8873    8874    8873    8875    8876    8877    8876    8878
    8879    8880    8879    8881    8882    8883    8882    8884
    8885    8886    8885    8887    8888    8889    8888    8890
    8891    8892    8891    8893    8894    8895    8894    8896
    8897    8898    8897    8899    8900    8901    8900    8902
    8903    8904    8903    8905    8906    8907    8906    8908
    8909    8910    8909    8911    8912    8913    8912    8914
    8915    8916    8915    8917    8918    8919    8918    8920
    8921    8922    8921    8923    8924    8925    8924    8926
    8927    8928    8927    8929    8930    8931    8930    8932
    8933    8934    8933    8935    8936    8937    8936    8938
    8939    8940    8939    8941    8942    8943    8942    8944
    8945    8946    8945    8947    8948    8949    8948    8950
    8951    8952    8951    8953    8954    8955    8954    8956
    8957    8958    8957    8959    8960    8961    8960    8962
    8963    8964    8963    8965    8966    8967    8966    8968
    8969    8970    8969    8971    8972    8973    8972    8974
    8975    8976    8975    8977    8978    8979    8978    8980
    8981    8982    8981    8983    8984    8985    8984    8986
    8987    8988    8987    8989    8990    8991    8990    8992
    8993    8994    8993    8995    8996    8997    8996    8998
    8999    9000    8999    9001    9002    9003    9002    9004
    9005    9006    9005    9007    9008    9009    9008    9010
    9011    9012    9011    9013    9014    9015    9014    9016
    9017    9018    9017    9019    9020    9021    9020    9022
    9023    9024    9023    9025    9026    9027    9026    9028
    9029    9030    9029    9031    9032    9033    9032    9034
    9035    9036    9035    9037    9038    9039    9038    9040
    9041    9042    9041    9043    9044    9045    9044    9046
    9047    9048    9047    9049    9050    9051    9050    9052
    9053    9054    9053    9055    9056    9057    9056    9058
    9059    9060    9059    9061    9062    9063    9062    9064
    9065    9066    9065    9067    9068    9069    9068    9070
    9071    9072    9071    9073    9074    9075    9074    9076
    9077    9078    9077    9079    9080    9081    9080    9082
    9083    9084    9083    9085    9086    9087    9086    9088
    9089    9090    9089    9091    9092    9093    9092    9094
    9095    9096    9095    9097    9098    9099    9098    9100
    9101    9102    9101    9103    9104    9105    9104    9106
    9107    9108    9107    9109    9110    9111    9110    9112
    9113    9114    9113    9115    9116    9117    9116    9118
    9119    9120    9119    9121    9122    9123    9122    9124
    9125    9126    9125    9127    9128    9129    9128    9130
    9131    9132    9131    9133    9134    9135    9134    9136
    9137    9138    9137    9139    9140    9141    9140    9142
    9143    9144    9143    9145    9146    9147    9146    9148
    9149    9150    9149    9151    9152    9153    9152    9154
    9155    9156    9155    9157    9158    9159    9158    9160
    9161    9162    9161    9163    9164    9165    9164    9166
    9167    9168    9167    9169    9170    9171    9170    9172
    9173    9174    9173    9175    9176    9177    9176    9178
    9179    9180    9179    9181    9182    9183    9182    9184
    9185    9186    9185    9187    9188    9189    9188    9190
    9191    9192    9191    9193    9194    9195    9194    9196
    9197    9198    9197    9199    9200    9201    9200    9202
    9203    9204    9203    9205    9206    9207    9206    9208
    9209    9210    9209    9211    9212    9213    9212    9214
    9215    9216    9215    9217    9218    9219    9218    9220
    9221    9222    9221    9223    9224    9225    9224    9226
    9227    9228    9227    9229    9230    9231    9230    9232
    9233    9234    9233    9235    9236    9237    9236    9238
    9239    9240    9239    9241    9242    9243    9242    9244
    9245    9246    9245    9247    9248    9249    9248    9250
    9251    9252    9251    9253    9254    9255    9254    9256
    9257    9258    9257    9259    9260    9261    9260    9262
    9263    9264    9263    9265    9266    9267    9266    9268
    9269    9270    9269    9271    9272    9273    9272    9274
    9275    9276    9275    9277    9278    9279    9278    9280
    9281    9282    9281    9283    9284    9285    9284    9286
    9287    9288    9287    9289    9290    9291    9290    9292
    9293    9294    9293    9295    9296    9297    9296    9298
    9299    9300    9299    9301    9302    9303    9302    9304
    9305    9306    9305    9307    9308    9309    9308    9310
    9311    9312    9311    9313    9314    9315    9314    9316
    9317    9318    9317    9319    9320    9321    9320    9322
    9323    9324    9323    9325    9326    9327    9326    9328
    9329    9330    9329    9331    9332    9333    9332    9334
    9335    9336    9335    9337    9338    9339    9338    9340
    9341    9342    9341    9343    9344    9345    9344    9346
    9347    9348    9347    9349    9350    9351    9350    9352
    9353    9354    9353    9355    9356    9357    9356    9358
    9359    9360    9359    9361    9362    9363    9362    9364
    9365    9366    9365    9367    9368    9369    9368    9370
    9371    9372    9371    9373    9374    9375    9374    9376
    9377    9378    9377    9379    9380    9381    9380    9382
    9383    9384    9383    9385    9386    9387    9386    9388
    9389    9390    9389    9391    9392    9393    9392    9394
    9395    9396    9395    9397    9398    9399    9398    9400
    9401    9402    9401    9403    9404    9405    9404    9406
    9407    9408    9407    9409    9410    9411    9410    9412
    9413    9414    9413    9415    9416    9417    9416    9418
    9419    9420    9419    9421    9422    9423    9422    9424
    9425    9426    9425    9427    9428    9429    9428    9430
    9431    9432    9431    9433    9434    9435    9434    9436
    9437    9438    9437    9439    9440    9441    9440    9442
    9443    9444    9443    9445    9446    9447    9446    9448
    9449    9450    9449    9451    9452    9453    9452    9454
    9455    9456    9455    9457    9458    9459    9458    9460
    9461    9462    9461    9463    9464    9465    9464    9466
    9467    9468    9467    9469    9470    9471    9470    9472
    9473    9474    9473    9475    9476    9477    9476    9478
    9479    9480    9479    9481    9482    9483    9482    9484
    9485    9486    9485    9487    9488    9489    9488    9490
    9491    9492    9491    9493    9494    9495    9494    9496
    9497    9498    9497    9499    9500    9501    9500    9502
    9503    9504    9503    9505    9506    9507    9506    9508
    9509    9510    9509    9511    9512    9513    9512    9514
    9515    9516    9515    9517    9518    9519    9518    9520
    9521    9522    9521    9523    9524    9525    9524    9526
    9527    9528    9527    9529    9530    9531    9530    9532
    9533    9534    9533    9535    9536    9537    9536    9538
    9539    9540    9539    9541    9542    9543    9542    9544
    9545    9546    9545    9547    9548    9549    9548    9550
    9551    9552    9551    9553    9554    9555    9554    9556
    9557    9558    9557    9559    9560    9561    9560    9562
    9563    9564    9563    9565    9566    9567    9566    9568
    9569    9570    9569    9571    9572    9573    9572    9574
    9575    9576    9575    9577    9578    9579    9578    9580
    9581    9582    9581    9583    9584    9585    9584    9586
    9587    9588    9587    9589    9590    9591    9590    9592
    9593    9594    9593    9595    9596    9597    9596    9598
    9599    9600    9599    9601    9602    9603    9602    9604
    9605    9606    9605    9607    9608    9609    9608    9610
    9611    9612    9611    9613    9614    9615    9614    9616
    9617    9618    9617    9619    9620    9621    9620    9622
    9623    9624    9623    9625    9626    9627    9626    9628
    9629    9630    9629    9631    9632    9633    9632    9634
    9635    9636    9635    9637    9638    9639    9638    9640
    9641    9642    9641    9643    9644    9645    9644    9646
    9647    9648    9647    9649    9650    9651    9650    9652
    9653    9654    9653    9655    9656    9657    9656    9658
    9659    9660    9659    9661    9662    9663    9662    9664
    9665    9666    9665    9667    9668    9669    9668    9670
    9671    9672    9671    9673    9674    9675    9674    9676
    9677    9678    9677    9679    9680    9681    9680    9682
    9683    9684    9683    9685    9686    9687    9686    9688
    9689    9690    9689    9691    9692    9693    9692    9694
    9695    9696    9695    9697    9698    9699    9698    9700
    9701    9702    9701    9703    9704    9705    9704    9706
    9707    9708    9707    9709    9710    9711    9710    9712
    9713    9714    9713    9715    9716    9717    9716    9718
    9719    9720    9719    9721    9722    9723    9722    9724
    9725    9726    9725    9727    9728    9729    9728    9730
    9731    9732    9731    9733    9734    9735    9734    9736
    9737    9738    9737    9739    9740    9741    9740    9742
    9743    9744    9743    9745    9746    9747    9746    9748
    9749    9750    9749    9751    9752    9753    9752    9754
    9755    9756    9755    9757    9758    9759    9758    9760
    9761    9762    9761    9763    9764    9765    9764    9766
    9767    9768    9767    9769    9770    9771    9770    9772
    9773    9774    9773    9775    9776    9777    9776    9778
    9779    9780    9779    9781    9782    9783    9782    9784
    9785    9786    9785    9787    9788    9789    9788    9790
    9791    9792    9791    9793    9794    9795    9794    9796
    9797    9798    9797    9799    9800    9801    9800    9802
    9803    9804    9803    9805    9806    9807    9806    9808
    9809    9810    9809    9811    9812    9813    9812    9814
    9815    9816    9815    9817    9818    9819    9818    9820
    9821    9822    9821    9823    9824    9825    9824    9826
    9827    9828    9827    9829    9830    9831    9830    9832
    9833    9834    9833    9835    9836    9837    9836    9838
    9839    9840    9839    9841    9842    9843    9842    9844
    9845    9846    9845    9847    9848    9849    9848    9850
    9851    9852    9851    9853    9854    9855    9854    9856
    9857    9858    9857    9859    9860    9861    9860    9862
    9863    9864    9863    9865    9866    9867    9866    9868
    9869    9870    9869    9871    9872    9873    9872    9874
    9875    9876    9875    9877    9878    9879    9878    9880
    9881    9882    9881    9883    9884    9885    9884    9886
    9887    9888    9887    9889    9890    9891    9890    9892
    9893    9894    9893    9895    9896    9897    9896    9898
    9899    9900    9899    9901    9902    9903    9902    9904
    9905    9906    9905    9907    9908    9909    9908    9910
    9911    9912    9911    9913    9914    9915    9914    9916
    9917    9918    9917    9919    9920    9921    9920    9922
    9923    9924    9923    9925    9926    9927    9926    9928
    9929    9930    9929    9931    9932    9933    9932    9934
    9935    9936    9935    9937    9938    9939    9938    9940
    9941    9942    9941    9943    9944    9945    9944    9946
    9947    9948    9947    9949    9950    9951    9950    9952
    9953    9954    9953    9955    9956    9957    9956    9958
    9959    9960    9959    9961    9962    9963    9962    9964
    9965    9966    9965    9967    9968    9969    9968    9970
    9971    9972    9971    9973    9974    9975    9974    9976
    9977    9978    9977    9979    9980    9981    9980    9982
    9983    9984    9983    9985    9986    9987    9986    9988
    9989    9990    9989    9991    9992    9993    9992    9994
    9995    9996    9995    9997    9998    9999    9998   10000
   10001   10002   10001   10003   10004   10005   10004   10006
   10007   10008   10007   10009   10010   10011   10010   10012
   10013   10014   10013   10015   10016   10017   10016   10018
   10019   10020   10019   10021   10022   10023   10022   10024
   10025   10026   10025   10027   10028   10029   10028   10030
   10031   10032   10031   10033   10034   10035   10034   10036
   10037   10038   10037   10039   10040   10041   10040   10042
   10043   10044   10043   10045   10046   10047   10046   10048
   10049   10050   10049   10051   10052   10053   10052   10054
   10055   10056   10055   10057   10058   10059   10058   10060
   10061   10062   10061   10063   10064   10065   10064   10066
   10067   10068   10067   10069   10070   10071   10070   10072
   10073   10074   10073   10075   10076   10077   10076   10078
   10079   10080   10079   10081   10082   10083   10082   10084
   10085   10086   10085   10087   10088   10089   10088   10090
   10091   10092   10091   10093   10094   10095   10094   10096
   10097   10098   10097   10099   10100   10101   10100   10102
   10103   10104   10103   10105   10106   10107   10106   10108
   10109   10110   10109   10111   10112   10113   10112   10114
   10115   10116   10115   10117   10118   10119   10118   10120
   10121   10122   10121   10123   10124   10125   10124   10126
   10127   10128   10127   10129   10130   10131   10130   10132
   10133   10134   10133   10135   10136   10137   10136   10138
   10139   10140   10139   10141   10142   10143   10142   10144
   10145   10146   10145   10147   10148   10149   10148   10150
   10151   10152   10151   10153   10154   10155   10154   10156
   10157   10158   10157   10159   10160   10161   10160   10162
   10163   10164   10163   10165   10166   10167   10166   10168
   10169   10170   10169   10171   10172   10173   10172   10174
   10175   10176   10175   10177   10178   10179   10178   10180
   10181   10182   10181   10183   10184   10185   10184   10186
   10187   10188   10187   10189   10190   10191   10190   10192
   10193   10194   10193   10195   10196   10197   10196   10198
   10199   10200   10199   10201   10202   10203   10202   10204
   10205   10206   10205   10207   10208   10209   10208   10210
   10211   10212   10211   10213   10214   10215   10214   10216
   10217   10218   10217   10219   10220   10221   10220   10222
   10223   10224   10223   10225   10226   10227   10226   10228
   10229   10230   10229   10231   10232   10233   10232   10234
   10235   10236   10235   10237   10238   10239   10238   10240
   10241   10242   10241   10243   10244   10245   10244   10246
   10247   10248   10247   10249   10250   10251   10250   10252
   10253   10254   10253   10255   10256   10257   10256   10258
   10259   10260   10259   10261   10262   10263   10262   10264
   10265   10266   10265   10267   10268   10269   10268   10270
   10271   10272   10271   10273   10274   10275   10274   10276
   10277   10278   10277   10279   10280   10281   10280   10282
   10283   10284   10283   10285   10286   10287   10286   10288
   10289   10290   10289   10291   10292   10293   10292   10294
   10295   10296   10295   10297   10298   10299   10298   10300
   10301   10302   10301   10303   10304   10305   10304   10306
   10307   10308   10307   10309   10310   10311   10310   10312
   10313   10314   10313   10315   10316   10317   10316   10318
   10319   10320   10319   10321   10322   10323   10322   10324
   10325   10326   10325   10327   10328   10329   10328   10330
   10331   10332   10331   10333   10334   10335   10334   10336
   10337   10338   10337   10339   10340   10341   10340   10342
   10343   10344   10343   10345   10346   10347   10346   10348
   10349   10350   10349   10351   10352   10353   10352   10354
   10355   10356   10355   10357   10358   10359   10358   10360
   10361   10362   10361   10363   10364   10365   10364   10366
   10367   10368   10367   10369   10370   10371   10370   10372
   10373   10374   10373   10375   10376   10377   10376   10378
   10379   10380   10379   10381   10382   10383   10382   10384
   10385   10386   10385   10387   10388   10389   10388   10390
   10391   10392   10391   10393   10394   10395   10394   10396
   10397   10398   10397   10399   10400   10401   10400   10402
   10403   10404   10403   10405   10406   10407   10406   10408
   10409   10410   10409   10411   10412   10413   10412   10414
   10415   10416   10415   10417   10418   10419   10418   10420
   10421   10422   10421   10423   10424   10425   10424   10426
   10427   10428   10427   10429   10430   10431   10430   10432
   10433   10434   10433   10435   10436   10437   10436   10438
   10439   10440   10439   10441   10442   10443   10442   10444
   10445   10446   10445   10447   10448   10449   10448   10450
   10451   10452   10451   10453   10454   10455   10454   10456
   10457   10458   10457   10459   10460   10461   10460   10462
   10463   10464   10463   10465   10466   10467   10466   10468
   10469   10470   10469   10471   10472   10473   10472   10474
   10475   10476   10475   10477   10478   10479   10478   10480
   10481   10482   10481   10483   10484   10485   10484   10486
   10487   10488   10487   10489   10490   10491   10490   10492
   10493   10494   10493   10495   10496   10497   10496   10498
   10499   10500   10499   10501   10502   10503   10502   10504
   10505   10506   10505   10507   10508   10509   10508   10510
   10511   10512   10511   10513   10514   10515   10514   10516
   10517   10518   10517   10519   10520   10521   10520   10522
   10523   10524   10523   10525   10526   10527   10526   10528
   10529   10530   10529   10531   10532   10533   10532   10534
   10535   10536   10535   10537   10538   10539   10538   10540
   10541   10542   10541   10543   10544   10545   10544   10546
   10547   10548   10547   10549   10550   10551   10550   10552
   10553   10554   10553   10555   10556   10557   10556   10558
   10559   10560   10559   10561   10562   10563   10562   10564
   10565   10566   10565   10567   10568   10569   10568   10570
   10571   10572   10571   10573   10574   10575   10574   10576
   10577   10578   10577   10579   10580   10581   10580   10582
   10583   10584   10583   10585   10586   10587   10586   10588
   10589   10590   10589   10591   10592   10593   10592   10594
   10595   10596   10595   10597   10598   10599   10598   10600
   10601   10602   10601   10603   10604   10605   10604   10606
   10607   10608   10607   10609   10610   10611   10610   10612
   10613   10614   10613   10615   10616   10617   10616   10618
   10619   10620   10619   10621   10622   10623   10622   10624
   10625   10626   10625   10627   10628   10629   10628   10630
   10631   10632   10631   10633   10634   10635   10634   10636
   10637   10638   10637   10639   10640   10641   10640   10642
   10643   10644   10643   10645   10646   10647   10646   10648
   10649   10650   10649   10651   10652   10653   10652   10654
   10655   10656   10655   10657   10658   10659   10658   10660
   10661   10662   10661   10663   10664   10665   10664   10666
   10667   10668   10667   10669   10670   10671   10670   10672
   10673   10674   10673   10675   10676   10677   10676   10678
   10679   10680   10679   10681   10682   10683   10682   10684
   10685   10686   10685   10687   10688   10689   10688   10690
   10691   10692   10691   10693   10694   10695   10694   10696
   10697   10698   10697   10699   10700   10701   10700   10702
   10703   10704   10703   10705   10706   10707   10706   10708
   10709   10710   10709   10711   10712   10713   10712   10714
   10715   10716   10715   10717   10718   10719   10718   10720
   10721   10722   10721   10723   10724   10725   10724   10726
   10727   10728   10727   10729   10730   10731   10730   10732
   10733   10734   10733   10735   10736   10737   10736   10738
   10739   10740   10739   10741   10742   10743   10742   10744
   10745   10746   10745   10747   10748   10749   10748   10750
   10751   10752   10751   10753   10754   10755   10754   10756
   10757   10758   10757   10759   10760   10761   10760   10762
   10763   10764   10763   10765   10766   10767   10766   10768
   10769   10770   10769   10771   10772   10773   10772   10774
   10775   10776   10775   10777   10778   10779   10778   10780
   10781   10782   10781   10783   10784   10785   10784   10786
   10787   10788   10787   10789   10790   10791   10790   10792
   10793   10794   10793   10795   10796   10797   10796   10798
   10799   10800   10799   10801   10802   10803   10802   10804
   10805   10806   10805   10807   10808   10809   10808   10810
   10811   10812   10811   10813   10814   10815   10814   10816
   10817   10818   10817   10819   10820   10821   10820   10822
   10823   10824   10823   10825   10826   10827   10826   10828
   10829   10830   10829   10831   10832   10833   10832   10834
   10835   10836   10835   10837   10838   10839   10838   10840
   10841   10842   10841   10843   10844   10845   10844   10846
   10847   10848   10847   10849   10850   10851   10850   10852
   10853   10854   10853   10855   10856   10857   10856   10858
   10859   10860   10859   10861   10862   10863   10862   10864
   10865   10866   10865   10867   10868   10869   10868   10870
   10871   10872   10871   10873   10874   10875   10874   10876
   10877   10878   10877   10879   10880   10881   10880   10882
   10883   10884   10883   10885   10886   10887   10886   10888
   10889   10890   10889   10891   10892   10893   10892   10894
   10895   10896   10895   10897   10898   10899   10898   10900
   10901   10902   10901   10903   10904   10905   10904   10906
   10907   10908   10907   10909   10910   10911   10910   10912
   10913   10914   10913   10915   10916   10917   10916   10918
   10919   10920   10919   10921   10922   10923   10922   10924
   10925   10926   10925   10927   10928   10929   10928   10930
   10931   10932   10931   10933   10934   10935   10934   10936
   10937   10938   10937   10939   10940   10941   10940   10942
   10943   10944   10943   10945   10946   10947   10946   10948
   10949   10950   10949   10951   10952   10953   10952   10954
   10955   10956   10955   10957   10958   10959   10958   10960
   10961   10962   10961   10963   10964   10965   10964   10966
   10967   10968   10967   10969   10970   10971   10970   10972
   10973   10974   10973   10975   10976   10977   10976   10978
   10979   10980   10979   10981   10982   10983   10982   10984
   10985   10986   10985   10987   10988   10989   10988   10990
   10991   10992   10991   10993   10994   10995   10994   10996
   10997   10998   10997   10999   11000   11001   11000   11002
   11003   11004   11003   11005   11006   11007   11006   11008
   11009   11010   11009   11011   11012   11013   11012   11014
   11015   11016   11015   11017   11018   11019   11018   11020
   11021   11022   11021   11023   11024   11025   11024   11026
   11027   11028   11027   11029   11030   11031   11030   11032
   11033   11034   11033   11035   11036   11037   11036   11038
   11039   11040   11039   11041   11042   11043   11042   11044
   11045   11046   11045   11047   11048   11049   11048   11050
   11051   11052   11051   11053   11054   11055   11054   11056
   11057   11058   11057   11059   11060   11061   11060   11062
   11063   11064   11063   11065   11066   11067   11066   11068
   11069   11070   11069   11071   11072   11073   11072   11074
   11075   11076   11075   11077   11078   11079   11078   11080
   11081   11082   11081   11083   11084   11085   11084   11086
   11087   11088   11087   11089   11090   11091   11090   11092
   11093   11094   11093   11095   11096   11097   11096   11098
   11099   11100   11099   11101   11102   11103   11102   11104
   11105   11106   11105   11107   11108   11109   11108   11110
   11111   11112   11111   11113   11114   11115   11114   11116
   11117   11118   11117   11119   11120   11121   11120   11122
   11123   11124   11123   11125   11126   11127   11126   11128
   11129   11130   11129   11131   11132   11133   11132   11134
   11135   11136   11135   11137   11138   11139   11138   11140
   11141   11142   11141   11143   11144   11145   11144   11146
   11147   11148   11147   11149   11150   11151   11150   11152
   11153   11154   11153   11155   11156   11157   11156   11158
   11159   11160   11159   11161   11162   11163   11162   11164
   11165   11166   11165   11167   11168   11169   11168   11170
   11171   11172   11171   11173   11174   11175   11174   11176
   11177   11178   11177   11179   11180   11181   11180   11182
   11183   11184   11183   11185   11186   11187   11186   11188
   11189   11190   11189   11191   11192   11193   11192   11194
   11195   11196   11195   11197   11198   11199   11198   11200
   11201   11202   11201   11203   11204   11205   11204   11206
   11207   11208   11207   11209   11210   11211   11210   11212
   11213   11214   11213   11215   11216   11217   11216   11218
   11219   11220   11219   11221   11222   11223   11222   11224
   11225   11226   11225   11227   11228   11229   11228   11230
   11231   11232   11231   11233   11234   11235   11234   11236
   11237   11238   11237   11239   11240   11241   11240   11242
   11243   11244   11243   11245   11246   11247   11246   11248
   11249   11250   11249   11251   11252   11253   11252   11254
   11255   11256   11255   11257   11258   11259   11258   11260
   11261   11262   11261   11263   11264   11265   11264   11266
   11267   11268   11267   11269   11270   11271   11270   11272
   11273   11274   11273   11275   11276   11277   11276   11278
   11279   11280   11279   11281   11282   11283   11282   11284
   11285   11286   11285   11287   11288   11289   11288   11290
   11291   11292   11291   11293   11294   11295   11294   11296
   11297   11298   11297   11299   11300   11301   11300   11302
   11303   11304   11303   11305   11306   11307   11306   11308
   11309   11310   11309   11311   11312   11313   11312   11314
   11315   11316   11315   11317   11318   11319   11318   11320
   11321   11322   11321   11323   11324   11325   11324   11326
   11327   11328   11327   11329   11330   11331   11330   11332
   11333   11334   11333   11335   11336   11337   11336   11338
   11339   11340   11339   11341   11342   11343   11342   11344
   11345   11346   11345   11347   11348   11349   11348   11350
   11351   11352   11351   11353   11354   11355   11354   11356
   11357   11358   11357   11359   11360   11361   11360   11362
   11363   11364   11363   11365   11366   11367   11366   11368
   11369   11370   11369   11371   11372   11373   11372   11374
   11375   11376   11375   11377   11378   11379   11378   11380
   11381   11382   11381   11383   11384   11385   11384   11386
   11387   11388   11387   11389   11390   11391   11390   11392
   11393   11394   11393   11395   11396   11397   11396   11398
   11399   11400   11399   11401   11402   11403   11402   11404
   11405   11406   11405   11407   11408   11409   11408   11410
   11411   11412   11411   11413   11414   11415   11414   11416
   11417   11418   11417   11419   11420   11421   11420   11422
   11423   11424   11423   11425   11426   11427   11426   11428
   11429   11430   11429   11431   11432   11433   11432   11434
   11435   11436   11435   11437   11438   11439   11438   11440
   11441   11442   11441   11443   11444   11445   11444   11446
   11447   11448   11447   11449   11450   11451   11450   11452
   11453   11454   11453   11455   11456   11457   11456   11458
   11459   11460   11459   11461   11462   11463   11462   11464
   11465   11466   11465   11467   11468   11469   11468   11470
   11471   11472   11471   11473   11474   11475   11474   11476
   11477   11478   11477   11479   11480   11481   11480   11482
   11483   11484   11483   11485   11486   11487   11486   11488
   11489   11490   11489   11491   11492   11493   11492   11494
   11495   11496   11495   11497   11498   11499   11498   11500
   11501   11502   11501   11503   11504   11505   11504   11506
   11507   11508   11507   11509   11510   11511   11510   11512
   11513   11514   11513   11515   11516   11517   11516   11518
   11519   11520   11519   11521   11522   11523   11522   11524
   11525   11526   11525   11527   11528   11529   11528   11530
   11531   11532   11531   11533   11534   11535   11534   11536
   11537   11538   11537   11539   11540   11541   11540   11542
   11543   11544   11543   11545   11546   11547   11546   11548
   11549   11550   11549   11551   11552   11553   11552   11554
   11555   11556   11555   11557   11558   11559   11558   11560
   11561   11562   11561   11563   11564   11565   11564   11566
   11567   11568   11567   11569   11570   11571   11570   11572
   11573   11574   11573   11575   11576   11577   11576   11578
   11579   11580   11579   11581   11582   11583   11582   11584
   11585   11586   11585   11587   11588   11589   11588   11590
   11591   11592   11591   11593   11594   11595   11594   11596
   11597   11598   11597   11599   11600   11601   11600   11602
   11603   11604   11603   11605   11606   11607   11606   11608
   11609   11610   11609   11611   11612   11613   11612   11614
   11615   11616   11615   11617   11618   11619   11618   11620
   11621   11622   11621   11623   11624   11625   11624   11626
   11627   11628   11627   11629   11630   11631   11630   11632
   11633   11634   11633   11635   11636   11637   11636   11638
   11639   11640   11639   11641   11642   11643   11642   11644
   11645   11646   11645   11647   11648   11649   11648   11650
   11651   11652   11651   11653   11654   11655   11654   11656
   11657   11658   11657   11659   11660   11661   11660   11662
   11663   11664   11663   11665   11666   11667   11666   11668
   11669   11670   11669   11671   11672   11673   11672   11674
   11675   11676   11675   11677   11678   11679   11678   11680
   11681   11682   11681   11683   11684   11685   11684   11686
   11687   11688   11687   11689   11690   11691   11690   11692
   11693   11694   11693   11695   11696   11697   11696   11698
   11699   11700   11699   11701   11702   11703   11702   11704
   11705   11706   11705   11707   11708   11709   11708   11710
   11711   11712   11711   11713   11714   11715   11714   11716
   11717   11718   11717   11719   11720   11721   11720   11722
   11723   11724   11723   11725   11726   11727   11726   11728
   11729   11730   11729   11731   11732   11733   11732   11734
   11735   11736   11735   11737   11738   11739   11738   11740
   11741   11742   11741   11743   11744   11745   11744   11746
   11747   11748   11747   11749   11750   11751   11750   11752
   11753   11754   11753   11755   11756   11757   11756   11758
   11759   11760   11759   11761   11762   11763   11762   11764
   11765   11766   11765   11767   11768   11769   11768   11770
   11771   11772   11771   11773   11774   11775   11774   11776
   11777   11778   11777   11779   11780   11781   11780   11782
   11783   11784   11783   11785   11786   11787   11786   11788
   11789   11790   11789   11791   11792   11793   11792   11794
   11795   11796   11795   11797   11798   11799   11798   11800
   11801   11802   11801   11803   11804   11805   11804   11806
   11807   11808   11807   11809   11810   11811   11810   11812
   11813   11814   11813   11815   11816   11817   11816   11818
   11819   11820   11819   11821   11822   11823   11822   11824
   11825   11826   11825   11827   11828   11829   11828   11830
   11831   11832   11831   11833   11834   11835   11834   11836
   11837   11838   11837   11839   11840   11841   11840   11842
   11843   11844   11843   11845   11846   11847   11846   11848
   11849   11850   11849   11851   11852   11853   11852   11854
   11855   11856   11855   11857   11858   11859   11858   11860
   11861   11862   11861   11863   11864   11865   11864   11866
   11867   11868   11867   11869   11870   11871   11870   11872
   11873   11874   11873   11875   11876   11877   11876   11878
   11879   11880   11879   11881   11882   11883   11882   11884
   11885   11886   11885   11887   11888   11889   11888   11890
   11891   11892   11891   11893   11894   11895   11894   11896
   11897   11898   11897   11899   11900   11901   11900   11902
   11903   11904   11903   11905   11906   11907   11906   11908
   11909   11910   11909   11911   11912   11913   11912   11914
   11915   11916   11915   11917   11918   11919   11918   11920
   11921   11922   11921   11923   11924   11925   11924   11926
   11927   11928   11927   11929   11930   11931   11930   11932
   11933   11934   11933   11935   11936   11937   11936   11938
   11939   11940   11939   11941   11942   11943   11942   11944
   11945   11946   11945   11947   11948   11949   11948   11950
   11951   11952   11951   11953   11954   11955   11954   11956
   11957   11958   11957   11959   11960   11961   11960   11962
   11963   11964   11963   11965   11966   11967   11966   11968
   11969   11970   11969   11971   11972   11973   11972   11974
   11975   11976   11975   11977   11978   11979   11978   11980
   11981   11982   11981   11983   11984   11985   11984   11986
   11987   11988   11987   11989   11990   11991   11990   11992
   11993   11994   11993   11995   11996   11997   11996   11998
   11999   12000   11999   12001   12002   12003   12002   12004
   12005   12006   12005   12007   12008   12009   12008   12010
   12011   12012   12011   12013   12014   12015   12014   12016
   12017   12018   12017   12019   12020   12021   12020   12022
   12023   12024   12023   12025   12026   12027   12026   12028
   12029   12030   12029   12031   12032   12033   12032   12034
   12035   12036   12035   12037   12038   12039   12038   12040
   12041   12042   12041   12043   12044   12045   12044   12046
   12047   12048   12047   12049   12050   12051   12050   12052
   12053   12054   12053   12055   12056   12057   12056   12058
   12059   12060   12059   12061   12062   12063   12062   12064
   12065   12066   12065   12067   12068   12069   12068   12070
   12071   12072   12071   12073   12074   12075   12074   12076
   12077   12078   12077   12079   12080   12081   12080   12082
   12083   12084   12083   12085   12086   12087   12086   12088
   12089   12090   12089   12091   12092   12093   12092   12094
   12095   12096   12095   12097   12098   12099   12098   12100
   12101   12102   12101   12103   12104   12105   12104   12106
   12107   12108   12107   12109   12110   12111   12110   12112
   12113   12114   12113   12115   12116   12117   12116   12118
   12119   12120   12119   12121   12122   12123   12122   12124
   12125   12126   12125   12127   12128   12129   12128   12130
   12131   12132   12131   12133   12134   12135   12134   12136
   12137   12138   12137   12139   12140   12141   12140   12142
   12143   12144   12143   12145   12146   12147   12146   12148
   12149   12150   12149   12151   12152   12153   12152   12154
   12155   12156   12155   12157   12158   12159   12158   12160
   12161   12162   12161   12163   12164   12165   12164   12166
   12167   12168   12167   12169   12170   12171   12170   12172
   12173   12174   12173   12175   12176   12177   12176   12178
   12179   12180   12179   12181   12182   12183   12182   12184
   12185   12186   12185   12187   12188   12189   12188   12190
   12191   12192   12191   12193   12194   12195   12194   12196
   12197   12198   12197   12199   12200   12201   12200   12202
   12203   12204   12203   12205   12206   12207   12206   12208
   12209   12210   12209   12211   12212   12213   12212   12214
   12215   12216   12215   12217   12218   12219   12218   12220
   12221   12222   12221   12223   12224   12225   12224   12226
   12227   12228   12227   12229   12230   12231   12230   12232
   12233   12234   12233   12235   12236   12237   12236   12238
   12239   12240   12239   12241   12242   12243   12242   12244
   12245   12246   12245   12247   12248   12249   12248   12250
   12251   12252   12251   12253   12254   12255   12254   12256
   12257   12258   12257   12259   12260   12261   12260   12262
   12263   12264   12263   12265   12266   12267   12266   12268
   12269   12270   12269   12271   12272   12273   12272   12274
   12275   12276   12275   12277   12278   12279   12278   12280
   12281   12282   12281   12283   12284   12285   12284   12286
   12287   12288   12287   12289   12290   12291   12290   12292
   12293   12294   12293   12295   12296   12297   12296   12298
   12299   12300   12299   12301   12302   12303   12302   12304
   12305   12306   12305   12307   12308   12309   12308   12310
   12311   12312   12311   12313   12314   12315   12314   12316
   12317   12318   12317   12319   12320   12321   12320   12322
   12323   12324   12323   12325   12326   12327   12326   12328
   12329   12330   12329   12331   12332   12333   12332   12334
   12335   12336   12335   12337   12338   12339   12338   12340
   12341   12342   12341   12343   12344   12345   12344   12346
   12347   12348   12347   12349   12350   12351   12350   12352
   12353   12354   12353   12355   12356   12357   12356   12358
   12359   12360   12359   12361   12362   12363   12362   12364
   12365   12366   12365   12367   12368   12369   12368   12370
   12371   12372   12371   12373   12374   12375   12374   12376
   12377   12378   12377   12379   12380   12381   12380   12382
   12383   12384   12383   12385   12386   12387   12386   12388
   12389   12390   12389   12391   12392   12393   12392   12394
   12395   12396   12395   12397   12398   12399   12398   12400
   12401   12402   12401   12403   12404   12405   12404   12406
   12407   12408   12407   12409   12410   12411   12410   12412
   12413   12414   12413   12415   12416   12417   12416   12418
   12419   12420   12419   12421   12422   12423   12422   12424
   12425   12426   12425   12427   12428   12429   12428   12430
   12431   12432   12431   12433   12434   12435   12434   12436
   12437   12438   12437   12439   12440   12441   12440   12442
   12443   12444   12443   12445   12446   12447   12446   12448
   12449   12450   12449   12451   12452   12453   12452   12454
   12455   12456   12455   12457   12458   12459   12458   12460
   12461   12462   12461   12463   12464   12465   12464   12466
   12467   12468   12467   12469   12470   12471   12470   12472
   12473   12474   12473   12475   12476   12477   12476   12478
   12479   12480   12479   12481   12482   12483   12482   12484
   12485   12486   12485   12487   12488   12489   12488   12490
   12491   12492   12491   12493   12494   12495   12494   12496
   12497   12498   12497   12499   12500   12501   12500   12502
   12503   12504   12503   12505   12506   12507   12506   12508
   12509   12510   12509   12511   12512   12513   12512   12514
   12515   12516   12515   12517   12518   12519   12518   12520
   12521   12522   12521   12523   12524   12525   12524   12526
   12527   12528   12527   12529   12530   12531   12530   12532
   12533   12534   12533   12535   12536   12537   12536   12538
   12539   12540   12539   12541   12542   12543   12542   12544
   12545   12546   12545   12547   12548   12549   12548   12550
   12551   12552   12551   12553   12554   12555   12554   12556
   12557   12558   12557   12559   12560   12561   12560   12562
   12563   12564   12563   12565   12566   12567   12566   12568
   12569   12570   12569   12571   12572   12573   12572   12574
   12575   12576   12575   12577   12578   12579   12578   12580
   12581   12582   12581   12583   12584   12585   12584   12586
   12587   12588   12587   12589   12590   12591   12590   12592
   12593   12594   12593   12595   12596   12597   12596   12598
   12599   12600   12599   12601   12602   12603   12602   12604
   12605   12606   12605   12607   12608   12609   12608   12610
   12611   12612   12611   12613   12614   12615   12614   12616
   12617   12618   12617   12619   12620   12621   12620   12622
   12623   12624   12623   12625   12626   12627   12626   12628
   12629   12630   12629   12631   12632   12633   12632   12634
   12635   12636   12635   12637   12638   12639   12638   12640
   12641   12642   12641   12643   12644   12645   12644   12646
   12647   12648   12647   12649   12650   12651   12650   12652
   12653   12654   12653   12655   12656   12657   12656   12658
   12659   12660   12659   12661   12662   12663   12662   12664
   12665   12666   12665   12667   12668   12669   12668   12670
   12671   12672   12671   12673   12674   12675   12674   12676
   12677   12678   12677   12679   12680   12681   12680   12682
   12683   12684   12683   12685   12686   12687   12686   12688
   12689   12690   12689   12691   12692   12693   12692   12694
   12695   12696   12695   12697   12698   12699   12698   12700
   12701   12702   12701   12703   12704   12705   12704   12706
   12707   12708   12707   12709   12710   12711   12710   12712
   12713   12714   12713   12715   12716   12717   12716   12718
   12719   12720   12719   12721   12722   12723   12722   12724
   12725   12726   12725   12727   12728   12729   12728   12730
   12731   12732   12731   12733   12734   12735   12734   12736
   12737   12738   12737   12739   12740   12741   12740   12742
   12743   12744   12743   12745   12746   12747   12746   12748
   12749   12750   12749   12751   12752   12753   12752   12754
   12755   12756   12755   12757   12758   12759   12758   12760
   12761   12762   12761   12763   12764   12765   12764   12766
   12767   12768   12767   12769   12770   12771   12770   12772
   12773   12774   12773   12775   12776   12777   12776   12778
   12779   12780   12779   12781   12782   12783   12782   12784
   12785   12786   12785   12787   12788   12789   12788   12790
   12791   12792   12791   12793   12794   12795   12794   12796
   12797   12798   12797   12799   12800   12801   12800   12802
   12803   12804   12803   12805   12806   12807   12806   12808
   12809   12810   12809   12811   12812   12813   12812   12814
   12815   12816   12815   12817   12818   12819   12818   12820
   12821   12822   12821   12823   12824   12825   12824   12826
   12827   12828   12827   12829   12830   12831   12830   12832
   12833   12834   12833   12835   12836   12837   12836   12838
   12839   12840   12839   12841   12842   12843   12842   12844
   12845   12846   12845   12847   12848   12849   12848   12850
   12851   12852   12851   12853   12854   12855   12854   12856
   12857   12858   12857   12859   12860   12861   12860   12862
   12863   12864   12863   12865   12866   12867   12866   12868
   12869   12870   12869   12871   12872   12873   12872   12874
   12875   12876   12875   12877   12878   12879   12878   12880
   12881   12882   12881   12883   12884   12885   12884   12886
   12887   12888   12887   12889   12890   12891   12890   12892
   12893   12894   12893   12895   12896   12897   12896   12898
   12899   12900   12899   12901   12902   12903   12902   12904
   12905   12906   12905   12907   12908   12909   12908   12910
   12911   12912   12911   12913   12914   12915   12914   12916
   12917   12918   12917   12919   12920   12921   12920   12922
   12923   12924   12923   12925   12926   12927   12926   12928
   12929   12930   12929   12931   12932   12933   12932   12934
   12935   12936   12935   12937   12938   12939   12938   12940
   12941   12942   12941   12943   12944   12945   12944   12946
   12947   12948   12947   12949   12950   12951   12950   12952
   12953   12954   12953   12955   12956   12957   12956   12958
   12959   12960   12959   12961   12962   12963   12962   12964
   12965   12966   12965   12967   12968   12969   12968   12970
   12971   12972   12971   12973   12974   12975   12974   12976
   12977   12978   12977   12979   12980   12981   12980   12982
   12983   12984   12983   12985   12986   12987   12986   12988
   12989   12990   12989   12991   12992   12993   12992   12994
   12995   12996   12995   12997   12998   12999   12998   13000
   13001   13002   13001   13003   13004   13005   13004   13006
   13007   13008   13007   13009   13010   13011   13010   13012
   13013   13014   13013   13015   13016   13017   13016   13018
   13019   13020   13019   13021   13022   13023   13022   13024
   13025   13026   13025   13027   13028   13029   13028   13030
   13031   13032   13031   13033   13034   13035   13034   13036
   13037   13038   13037   13039   13040   13041   13040   13042
   13043   13044   13043   13045   13046   13047   13046   13048
   13049   13050   13049   13051   13052   13053   13052   13054
   13055   13056   13055   13057   13058   13059   13058   13060
   13061   13062   13061   13063   13064   13065   13064   13066
   13067   13068   13067   13069   13070   13071   13070   13072
   13073   13074   13073   13075   13076   13077   13076   13078
   13079   13080   13079   13081   13082   13083   13082   13084
   13085   13086   13085   13087   13088   13089   13088   13090
   13091   13092   13091   13093   13094   13095   13094   13096
   13097   13098   13097   13099   13100   13101   13100   13102
   13103   13104   13103   13105   13106   13107   13106   13108
   13109   13110   13109   13111   13112   13113   13112   13114
   13115   13116   13115   13117   13118   13119   13118   13120
   13121   13122   13121   13123   13124   13125   13124   13126
   13127   13128   13127   13129   13130   13131   13130   13132
   13133   13134   13133   13135   13136   13137   13136   13138
   13139   13140   13139   13141   13142   13143   13142   13144
   13145   13146   13145   13147   13148   13149   13148   13150
   13151   13152   13151   13153   13154   13155   13154   13156
   13157   13158   13157   13159   13160   13161   13160   13162
   13163   13164   13163   13165   13166   13167   13166   13168
   13169   13170   13169   13171   13172   13173   13172   13174
   13175   13176   13175   13177   13178   13179   13178   13180
   13181   13182   13181   13183   13184   13185   13184   13186
   13187   13188   13187   13189   13190   13191   13190   13192
   13193   13194   13193   13195   13196   13197   13196   13198
   13199   13200   13199   13201   13202   13203   13202   13204
   13205   13206   13205   13207   13208   13209   13208   13210
   13211   13212   13211   13213   13214   13215   13214   13216
   13217   13218   13217   13219   13220   13221   13220   13222
   13223   13224   13223   13225   13226   13227   13226   13228
   13229   13230   13229   13231   13232   13233   13232   13234
   13235   13236   13235   13237   13238   13239   13238   13240
   13241   13242   13241   13243   13244   13245   13244   13246
   13247   13248   13247   13249   13250   13251   13250   13252
   13253   13254   13253   13255   13256   13257   13256   13258
   13259   13260   13259   13261   13262   13263   13262   13264
   13265   13266   13265   13267   13268   13269   13268   13270
   13271   13272   13271   13273   13274   13275   13274   13276
   13277   13278   13277   13279   13280   13281   13280   13282
   13283   13284   13283   13285   13286   13287   13286   13288
   13289   13290   13289   13291   13292   13293   13292   13294
   13295   13296   13295   13297   13298   13299   13298   13300
   13301   13302   13301   13303   13304   13305   13304   13306
   13307   13308   13307   13309   13310   13311   13310   13312
   13313   13314   13313   13315   13316   13317   13316   13318
   13319   13320   13319   13321   13322   13323   13322   13324
   13325   13326   13325   13327   13328   13329   13328   13330
   13331   13332   13331   13333   13334   13335   13334   13336
   13337   13338   13337   13339   13340   13341   13340   13342
   13343   13344   13343   13345   13346   13347   13346   13348
   13349   13350   13349   13351   13352   13353   13352   13354
   13355   13356   13355   13357   13358   13359   13358   13360
   13361   13362   13361   13363   13364   13365   13364   13366
   13367   13368   13367   13369   13370   13371   13370   13372
   13373   13374   13373   13375   13376   13377   13376   13378
   13379   13380   13379   13381   13382   13383   13382   13384
   13385   13386   13385   13387   13388   13389   13388   13390
   13391   13392   13391   13393   13394   13395   13394   13396
   13397   13398   13397   13399   13400   13401   13400   13402
   13403   13404   13403   13405   13406   13407   13406   13408
   13409   13410   13409   13411   13412   13413   13412   13414
   13415   13416   13415   13417   13418   13419   13418   13420
   13421   13422   13421   13423   13424   13425   13424   13426
   13427   13428   13427   13429   13430   13431   13430   13432
   13433   13434   13433   13435   13436   13437   13436   13438
   13439   13440   13439   13441   13442   13443   13442   13444
   13445   13446   13445   13447   13448   13449   13448   13450
   13451   13452   13451   13453   13454   13455   13454   13456
   13457   13458   13457   13459   13460   13461   13460   13462
   13463   13464   13463   13465   13466   13467   13466   13468
   13469   13470   13469   13471   13472   13473   13472   13474
   13475   13476   13475   13477   13478   13479   13478   13480
   13481   13482   13481   13483   13484   13485   13484   13486
   13487   13488   13487   13489   13490   13491   13490   13492
   13493   13494   13493   13495   13496   13497   13496   13498
   13499   13500   13499   13501   13502   13503   13502   13504
   13505   13506   13505   13507   13508   13509   13508   13510
   13511   13512   13511   13513   13514   13515   13514   13516
   13517   13518   13517   13519   13520   13521   13520   13522
   13523   13524   13523   13525   13526   13527   13526   13528
   13529   13530   13529   13531   13532   13533   13532   13534
   13535   13536   13535   13537   13538   13539   13538   13540
   13541   13542   13541   13543   13544   13545   13544   13546
   13547   13548   13547   13549   13550   13551   13550   13552
   13553   13554   13553   13555   13556   13557   13556   13558
   13559   13560   13559   13561   13562   13563   13562   13564
   13565   13566   13565   13567   13568   13569   13568   13570
   13571   13572   13571   13573   13574   13575   13574   13576
   13577   13578   13577   13579   13580   13581   13580   13582
   13583   13584   13583   13585   13586   13587   13586   13588
   13589   13590   13589   13591   13592   13593   13592   13594
   13595   13596   13595   13597   13598   13599   13598   13600
   13601   13602   13601   13603   13604   13605   13604   13606
   13607   13608   13607   13609   13610   13611   13610   13612
   13613   13614   13613   13615   13616   13617   13616   13618
   13619   13620   13619   13621   13622   13623   13622   13624
   13625   13626   13625   13627   13628   13629   13628   13630
   13631   13632   13631   13633   13634   13635   13634   13636
   13637   13638   13637   13639   13640   13641   13640   13642
   13643   13644   13643   13645   13646   13647   13646   13648
   13649   13650   13649   13651   13652   13653   13652   13654
   13655   13656   13655   13657   13658   13659   13658   13660
   13661   13662   13661   13663   13664   13665   13664   13666
   13667   13668   13667   13669   13670   13671   13670   13672
   13673   13674   13673   13675   13676   13677   13676   13678
   13679   13680   13679   13681   13682   13683   13682   13684
   13685   13686   13685   13687   13688   13689   13688   13690
   13691   13692   13691   13693   13694   13695   13694   13696
   13697   13698   13697   13699   13700   13701   13700   13702
   13703   13704   13703   13705   13706   13707   13706   13708
   13709   13710   13709   13711   13712   13713   13712   13714
   13715   13716   13715   13717   13718   13719   13718   13720
   13721   13722   13721   13723   13724   13725   13724   13726
   13727   13728   13727   13729   13730   13731   13730   13732
   13733   13734   13733   13735   13736   13737   13736   13738
   13739   13740   13739   13741   13742   13743   13742   13744
   13745   13746   13745   13747   13748   13749   13748   13750
   13751   13752   13751   13753   13754   13755   13754   13756
   13757   13758   13757   13759   13760   13761   13760   13762
   13763   13764   13763   13765   13766   13767   13766   13768
   13769   13770   13769   13771   13772   13773   13772   13774
   13775   13776   13775   13777   13778   13779   13778   13780
   13781   13782   13781   13783   13784   13785   13784   13786
   13787   13788   13787   13789   13790   13791   13790   13792
   13793   13794   13793   13795   13796   13797   13796   13798
   13799   13800   13799   13801   13802   13803   13802   13804
   13805   13806   13805   13807   13808   13809   13808   13810
   13811   13812   13811   13813   13814   13815   13814   13816
   13817   13818   13817   13819   13820   13821   13820   13822
   13823   13824   13823   13825   13826   13827   13826   13828
   13829   13830   13829   13831   13832   13833   13832   13834
   13835   13836   13835   13837   13838   13839   13838   13840
   13841   13842   13841   13843   13844   13845   13844   13846
   13847   13848   13847   13849   13850   13851   13850   13852
   13853   13854   13853   13855   13856   13857   13856   13858
   13859   13860   13859   13861   13862   13863   13862   13864
   13865   13866   13865   13867   13868   13869   13868   13870
   13871   13872   13871   13873   13874   13875   13874   13876
   13877   13878   13877   13879   13880   13881   13880   13882
   13883   13884   13883   13885   13886   13887   13886   13888
   13889   13890   13889   13891   13892   13893   13892   13894
   13895   13896   13895   13897   13898   13899   13898   13900
   13901   13902   13901   13903   13904   13905   13904   13906
   13907   13908   13907   13909   13910   13911   13910   13912
   13913   13914   13913   13915   13916   13917   13916   13918
   13919   13920   13919   13921   13922   13923   13922   13924
   13925   13926   13925   13927   13928   13929   13928   13930
   13931   13932   13931   13933   13934   13935   13934   13936
   13937   13938   13937   13939   13940   13941   13940   13942
   13943   13944   13943   13945   13946   13947   13946   13948
   13949   13950   13949   13951   13952   13953   13952   13954
   13955   13956   13955   13957   13958   13959   13958   13960
   13961   13962   13961   13963   13964   13965   13964   13966
   13967   13968   13967   13969   13970   13971   13970   13972
   13973   13974   13973   13975   13976   13977   13976   13978
   13979   13980   13979   13981   13982   13983   13982   13984
   13985   13986   13985   13987   13988   13989   13988   13990
   13991   13992   13991   13993   13994   13995   13994   13996
   13997   13998   13997   13999   14000   14001   14000   14002
   14003   14004   14003   14005   14006   14007   14006   14008
   14009   14010   14009   14011   14012   14013   14012   14014
   14015   14016   14015   14017   14018   14019   14018   14020
   14021   14022   14021   14023   14024   14025   14024   14026
   14027   14028   14027   14029   14030   14031   14030   14032
   14033   14034   14033   14035   14036   14037   14036   14038
   14039   14040   14039   14041   14042   14043   14042   14044
   14045   14046   14045   14047   14048   14049   14048   14050
   14051   14052   14051   14053   14054   14055   14054   14056
   14057   14058   14057   14059   14060   14061   14060   14062
   14063   14064   14063   14065   14066   14067   14066   14068
   14069   14070   14069   14071   14072   14073   14072   14074
   14075   14076   14075   14077   14078   14079   14078   14080
   14081   14082   14081   14083   14084   14085   14084   14086
   14087   14088   14087   14089   14090   14091   14090   14092
   14093   14094   14093   14095   14096   14097   14096   14098
   14099   14100   14099   14101   14102   14103   14102   14104
   14105   14106   14105   14107   14108   14109   14108   14110
   14111   14112   14111   14113   14114   14115   14114   14116
   14117   14118   14117   14119   14120   14121   14120   14122
   14123   14124   14123   14125   14126   14127   14126   14128
   14129   14130   14129   14131   14132   14133   14132   14134
   14135   14136   14135   14137   14138   14139   14138   14140
   14141   14142   14141   14143   14144   14145   14144   14146
   14147   14148   14147   14149   14150   14151   14150   14152
   14153   14154   14153   14155   14156   14157   14156   14158
   14159   14160   14159   14161   14162   14163   14162   14164
   14165   14166   14165   14167   14168   14169   14168   14170
   14171   14172   14171   14173   14174   14175   14174   14176
   14177   14178   14177   14179   14180   14181   14180   14182
   14183   14184   14183   14185   14186   14187   14186   14188
   14189   14190   14189   14191   14192   14193   14192   14194
   14195   14196   14195   14197   14198   14199   14198   14200
   14201   14202   14201   14203   14204   14205   14204   14206
   14207   14208   14207   14209   14210   14211   14210   14212
   14213   14214   14213   14215   14216   14217   14216   14218
   14219   14220   14219   14221   14222   14223   14222   14224
   14225   14226   14225   14227   14228   14229   14228   14230
   14231   14232   14231   14233   14234   14235   14234   14236
   14237   14238   14237   14239   14240   14241   14240   14242
   14243   14244   14243   14245   14246   14247   14246   14248
   14249   14250   14249   14251   14252   14253   14252   14254
   14255   14256   14255   14257   14258   14259   14258   14260
   14261   14262   14261   14263   14264   14265   14264   14266
   14267   14268   14267   14269   14270   14271   14270   14272
   14273   14274   14273   14275   14276   14277   14276   14278
   14279   14280   14279   14281   14282   14283   14282   14284
   14285   14286   14285   14287   14288   14289   14288   14290
   14291   14292   14291   14293   14294   14295   14294   14296
   14297   14298   14297   14299   14300   14301   14300   14302
   14303   14304   14303   14305   14306   14307   14306   14308
   14309   14310   14309   14311   14312   14313   14312   14314
   14315   14316   14315   14317   14318   14319   14318   14320
   14321   14322   14321   14323   14324   14325   14324   14326
   14327   14328   14327   14329   14330   14331   14330   14332
   14333   14334   14333   14335   14336   14337   14336   14338
   14339   14340   14339   14341   14342   14343   14342   14344
   14345   14346   14345   14347   14348   14349   14348   14350
   14351   14352   14351   14353   14354   14355   14354   14356
   14357   14358   14357   14359   14360   14361   14360   14362
   14363   14364   14363   14365   14366   14367   14366   14368
   14369   14370   14369   14371   14372   14373   14372   14374
   14375   14376   14375   14377   14378   14379   14378   14380
   14381   14382   14381   14383   14384   14385   14384   14386
   14387   14388   14387   14389   14390   14391   14390   14392
   14393   14394   14393   14395   14396   14397   14396   14398
   14399   14400   14399   14401   14402   14403   14402   14404
   14405   14406   14405   14407   14408   14409   14408   14410
   14411   14412   14411   14413   14414   14415   14414   14416
   14417   14418   14417   14419   14420   14421   14420   14422
   14423   14424   14423   14425   14426   14427   14426   14428
   14429   14430   14429   14431   14432   14433   14432   14434
   14435   14436   14435   14437   14438   14439   14438   14440
   14441   14442   14441   14443   14444   14445   14444   14446
   14447   14448   14447   14449   14450   14451   14450   14452
   14453   14454   14453   14455   14456   14457   14456   14458
   14459   14460   14459   14461   14462   14463   14462   14464
   14465   14466   14465   14467   14468   14469   14468   14470
   14471   14472   14471   14473   14474   14475   14474   14476
   14477   14478   14477   14479   14480   14481   14480   14482
   14483   14484   14483   14485   14486   14487   14486   14488
   14489   14490   14489   14491   14492   14493   14492   14494
   14495   14496   14495   14497   14498   14499   14498   14500
   14501   14502   14501   14503   14504   14505   14504   14506
   14507   14508   14507   14509   14510   14511   14510   14512
   14513   14514   14513   14515   14516   14517   14516   14518
   14519   14520   14519   14521   14522   14523   14522   14524
   14525   14526   14525   14527   14528   14529   14528   14530
   14531   14532   14531   14533   14534   14535   14534   14536
   14537   14538   14537   14539   14540   14541   14540   14542
   14543   14544   14543   14545   14546   14547   14546   14548
   14549   14550   14549   14551   14552   14553   14552   14554
   14555   14556   14555   14557   14558   14559   14558   14560
   14561   14562   14561   14563   14564   14565   14564   14566
   14567   14568   14567   14569   14570   14571   14570   14572
   14573   14574   14573   14575   14576   14577   14576   14578
   14579   14580   14579   14581   14582   14583   14582   14584
   14585   14586   14585   14587   14588   14589   14588   14590
   14591   14592   14591   14593   14594   14595   14594   14596
   14597   14598   14597   14599   14600   14601   14600   14602
   14603   14604   14603   14605   14606   14607   14606   14608
   14609   14610   14609   14611   14612   14613   14612   14614
   14615   14616   14615   14617   14618   14619   14618   14620
   14621   14622   14621   14623   14624   14625   14624   14626
   14627   14628   14627   14629   14630   14631   14630   14632
   14633   14634   14633   14635   14636   14637   14636   14638
   14639   14640   14639   14641   14642   14643   14642   14644
   14645   14646   14645   14647   14648   14649   14648   14650
   14651   14652   14651   14653   14654   14655   14654   14656
   14657   14658   14657   14659   14660   14661   14660   14662
   14663   14664   14663   14665   14666   14667   14666   14668
   14669   14670   14669   14671   14672   14673   14672   14674
   14675   14676   14675   14677   14678   14679   14678   14680
   14681   14682   14681   14683   14684   14685   14684   14686
   14687   14688   14687   14689   14690   14691   14690   14692
   14693   14694   14693   14695   14696   14697   14696   14698
   14699   14700   14699   14701   14702   14703   14702   14704
   14705   14706   14705   14707   14708   14709   14708   14710
   14711   14712   14711   14713   14714   14715   14714   14716
   14717   14718   14717   14719   14720   14721   14720   14722
   14723   14724   14723   14725   14726   14727   14726   14728
   14729   14730   14729   14731   14732   14733   14732   14734
   14735   14736   14735   14737   14738   14739   14738   14740
   14741   14742   14741   14743   14744   14745   14744   14746
   14747   14748   14747   14749   14750   14751   14750   14752
   14753   14754   14753   14755   14756   14757   14756   14758
   14759   14760   14759   14761   14762   14763   14762   14764
   14765   14766   14765   14767   14768   14769   14768   14770
   14771   14772   14771   14773   14774   14775   14774   14776
   14777   14778   14777   14779   14780   14781   14780   14782
   14783   14784   14783   14785   14786   14787   14786   14788
   14789   14790   14789   14791   14792   14793   14792   14794
   14795   14796   14795   14797   14798   14799   14798   14800
   14801   14802   14801   14803   14804   14805   14804   14806
   14807   14808   14807   14809   14810   14811   14810   14812
   14813   14814   14813   14815   14816   14817   14816   14818
   14819   14820   14819   14821   14822   14823   14822   14824
   14825   14826   14825   14827   14828   14829   14828   14830
   14831   14832   14831   14833   14834   14835   14834   14836
   14837   14838   14837   14839   14840   14841   14840   14842
   14843   14844   14843   14845   14846   14847   14846   14848
   14849   14850   14849   14851   14852   14853   14852   14854
   14855   14856   14855   14857   14858   14859   14858   14860
   14861   14862   14861   14863   14864   14865   14864   14866
   14867   14868   14867   14869   14870   14871   14870   14872
   14873   14874   14873   14875   14876   14877   14876   14878
   14879   14880   14879   14881   14882   14883   14882   14884
   14885   14886   14885   14887   14888   14889   14888   14890
   14891   14892   14891   14893   14894   14895   14894   14896
   14897   14898   14897   14899   14900   14901   14900   14902
   14903   14904   14903   14905   14906   14907   14906   14908
   14909   14910   14909   14911   14912   14913   14912   14914
   14915   14916   14915   14917   14918   14919   14918   14920
   14921   14922   14921   14923   14924   14925   14924   14926
   14927   14928   14927   14929   14930   14931   14930   14932
   14933   14934   14933   14935   14936   14937   14936   14938
   14939   14940   14939   14941   14942   14943   14942   14944
   14945   14946   14945   14947   14948   14949   14948   14950
   14951   14952   14951   14953   14954   14955   14954   14956
   14957   14958   14957   14959   14960   14961   14960   14962
   14963   14964   14963   14965   14966   14967   14966   14968
   14969   14970   14969   14971   14972   14973   14972   14974
   14975   14976   14975   14977   14978   14979   14978   14980
   14981   14982   14981   14983   14984   14985   14984   14986
   14987   14988   14987   14989   14990   14991   14990   14992
   14993   14994   14993   14995   14996   14997   14996   14998
   14999   15000   14999   15001   15002   15003   15002   15004
   15005   15006   15005   15007   15008   15009   15008   15010
   15011   15012   15011   15013   15014   15015   15014   15016
   15017   15018   15017   15019   15020   15021   15020   15022
   15023   15024   15023   15025   15026   15027   15026   15028
   15029   15030   15029   15031   15032   15033   15032   15034
   15035   15036   15035   15037   15038   15039   15038   15040
   15041   15042   15041   15043   15044   15045   15044   15046
   15047   15048   15047   15049   15050   15051   15050   15052
   15053   15054   15053   15055   15056   15057   15056   15058
   15059   15060   15059   15061   15062   15063   15062   15064
   15065   15066   15065   15067   15068   15069   15068   15070
   15071   15072   15071   15073   15074   15075   15074   15076
   15077   15078   15077   15079   15080   15081   15080   15082
   15083   15084   15083   15085   15086   15087   15086   15088
   15089   15090   15089   15091   15092   15093   15092   15094
   15095   15096   15095   15097   15098   15099   15098   15100
   15101   15102   15101   15103   15104   15105   15104   15106
   15107   15108   15107   15109   15110   15111   15110   15112
   15113   15114   15113   15115   15116   15117   15116   15118
   15119   15120   15119   15121   15122   15123   15122   15124
   15125   15126   15125   15127   15128   15129   15128   15130
   15131   15132   15131   15133   15134   15135   15134   15136
   15137   15138   15137   15139   15140   15141   15140   15142
   15143   15144   15143   15145   15146   15147   15146   15148
   15149   15150   15149   15151   15152   15153   15152   15154
   15155   15156   15155   15157   15158   15159   15158   15160
   15161   15162   15161   15163   15164   15165   15164   15166
   15167   15168   15167   15169   15170   15171   15170   15172
   15173   15174   15173   15175   15176   15177   15176   15178
   15179   15180   15179   15181   15182   15183   15182   15184
   15185   15186   15185   15187   15188   15189   15188   15190
   15191   15192   15191   15193   15194   15195   15194   15196
   15197   15198   15197   15199   15200   15201   15200   15202
   15203   15204   15203   15205   15206   15207   15206   15208
   15209   15210   15209   15211   15212   15213   15212   15214
   15215   15216   15215   15217   15218   15219   15218   15220
   15221   15222   15221   15223   15224   15225   15224   15226
   15227   15228   15227   15229   15230   15231   15230   15232
   15233   15234   15233   15235   15236   15237   15236   15238
   15239   15240   15239   15241   15242   15243   15242   15244
   15245   15246   15245   15247   15248   15249   15248   15250
   15251   15252   15251   15253   15254   15255   15254   15256
   15257   15258   15257   15259   15260   15261   15260   15262
   15263   15264   15263   15265   15266   15267   15266   15268
   15269   15270   15269   15271   15272   15273   15272   15274
   15275   15276   15275   15277   15278   15279   15278   15280
   15281   15282   15281   15283   15284   15285   15284   15286
   15287   15288   15287   15289   15290   15291   15290   15292
   15293   15294   15293   15295   15296   15297   15296   15298
   15299   15300   15299   15301   15302   15303   15302   15304
   15305   15306   15305   15307   15308   15309   15308   15310
   15311   15312   15311   15313   15314   15315   15314   15316
   15317   15318   15317   15319   15320   15321   15320   15322
   15323   15324   15323   15325   15326   15327   15326   15328
   15329   15330   15329   15331   15332   15333   15332   15334
   15335   15336   15335   15337   15338   15339   15338   15340
   15341   15342   15341   15343   15344   15345   15344   15346
   15347   15348   15347   15349   15350   15351   15350   15352
   15353   15354   15353   15355   15356   15357   15356   15358
   15359   15360   15359   15361   15362   15363   15362   15364
   15365   15366   15365   15367   15368   15369   15368   15370
   15371   15372   15371   15373   15374   15375   15374   15376
   15377   15378   15377   15379   15380   15381   15380   15382
   15383   15384   15383   15385   15386   15387   15386   15388
   15389   15390   15389   15391   15392   15393   15392   15394
   15395   15396   15395   15397   15398   15399   15398   15400
   15401   15402   15401   15403   15404   15405   15404   15406
   15407   15408   15407   15409   15410   15411   15410   15412
   15413   15414   15413   15415   15416   15417   15416   15418
   15419   15420   15419   15421   15422   15423   15422   15424
   15425   15426   15425   15427   15428   15429   15428   15430
   15431   15432   15431   15433   15434   15435   15434   15436
   15437   15438   15437   15439   15440   15441   15440   15442
   15443   15444   15443   15445   15446   15447   15446   15448
   15449   15450   15449   15451   15452   15453   15452   15454
   15455   15456   15455   15457   15458   15459   15458   15460
   15461   15462   15461   15463   15464   15465   15464   15466
   15467   15468   15467   15469   15470   15471   15470   15472
   15473   15474   15473   15475   15476   15477   15476   15478
   15479   15480   15479   15481   15482   15483   15482   15484
   15485   15486   15485   15487   15488   15489   15488   15490
   15491   15492   15491   15493   15494   15495   15494   15496
   15497   15498   15497   15499   15500   15501   15500   15502
   15503   15504   15503   15505   15506   15507   15506   15508
   15509   15510   15509   15511   15512   15513   15512   15514
   15515   15516   15515   15517   15518   15519   15518   15520
   15521   15522   15521   15523   15524   15525   15524   15526
   15527   15528   15527   15529   15530   15531   15530   15532
   15533   15534   15533   15535   15536   15537   15536   15538
   15539   15540   15539   15541   15542   15543   15542   15544
   15545   15546   15545   15547   15548   15549   15548   15550
   15551   15552   15551   15553   15554   15555   15554   15556
   15557   15558   15557   15559   15560   15561   15560   15562
   15563   15564   15563   15565   15566   15567   15566   15568
   15569   15570   15569   15571   15572   15573   15572   15574
   15575   15576   15575   15577   15578   15579   15578   15580
   15581   15582   15581   15583   15584   15585   15584   15586
   15587   15588   15587   15589   15590   15591   15590   15592
   15593   15594   15593   15595   15596   15597   15596   15598
   15599   15600   15599   15601   15602   15603   15602   15604
   15605   15606   15605   15607   15608   15609   15608   15610
   15611   15612   15611   15613   15614   15615   15614   15616
   15617   15618   15617   15619   15620   15621   15620   15622
   15623   15624   15623   15625   15626   15627   15626   15628
   15629   15630   15629   15631   15632   15633   15632   15634
   15635   15636   15635   15637   15638   15639   15638   15640
   15641   15642   15641   15643   15644   15645   15644   15646
   15647   15648   15647   15649   15650   15651   15650   15652
   15653   15654   15653   15655   15656   15657   15656   15658
   15659   15660   15659   15661   15662   15663   15662   15664
   15665   15666   15665   15667   15668   15669   15668   15670
   15671   15672   15671   15673   15674   15675   15674   15676
   15677   15678   15677   15679   15680   15681   15680   15682
   15683   15684   15683   15685   15686   15687   15686   15688
   15689   15690   15689   15691   15692   15693   15692   15694
   15695   15696   15695   15697   15698   15699   15698   15700
   15701   15702   15701   15703   15704   15705   15704   15706
   15707   15708   15707   15709   15710   15711   15710   15712
   15713   15714   15713   15715   15716   15717   15716   15718
   15719   15720   15719   15721   15722   15723   15722   15724
   15725   15726   15725   15727   15728   15729   15728   15730
   15731   15732   15731   15733   15734   15735   15734   15736
   15737   15738   15737   15739   15740   15741   15740   15742
   15743   15744   15743   15745   15746   15747   15746   15748
   15749   15750   15749   15751   15752   15753   15752   15754
   15755   15756   15755   15757   15758   15759   15758   15760
   15761   15762   15761   15763   15764   15765   15764   15766
   15767   15768   15767   15769   15770   15771   15770   15772
   15773   15774   15773   15775   15776   15777   15776   15778
   15779   15780   15779   15781   15782   15783   15782   15784
   15785   15786   15785   15787   15788   15789   15788   15790
   15791   15792   15791   15793   15794   15795   15794   15796
   15797   15798   15797   15799   15800   15801   15800   15802
   15803   15804   15803   15805   15806   15807   15806   15808
   15809   15810   15809   15811   15812   15813   15812   15814
   15815   15816   15815   15817   15818   15819   15818   15820
   15821   15822   15821   15823   15824   15825   15824   15826
   15827   15828   15827   15829   15830   15831   15830   15832
   15833   15834   15833   15835   15836   15837   15836   15838
   15839   15840   15839   15841   15842   15843   15842   15844
   15845   15846   15845   15847   15848   15849   15848   15850
   15851   15852   15851   15853   15854   15855   15854   15856
   15857   15858   15857   15859   15860   15861   15860   15862
   15863   15864   15863   15865   15866   15867   15866   15868
   15869   15870   15869   15871   15872   15873   15872   15874
   15875   15876   15875   15877   15878   15879   15878   15880
   15881   15882   15881   15883   15884   15885   15884   15886
   15887   15888   15887   15889   15890   15891   15890   15892
   15893   15894   15893   15895   15896   15897   15896   15898
   15899   15900   15899   15901   15902   15903   15902   15904
   15905   15906   15905   15907   15908   15909   15908   15910
   15911   15912   15911   15913   15914   15915   15914   15916
   15917   15918   15917   15919   15920   15921   15920   15922
   15923   15924   15923   15925   15926   15927   15926   15928
   15929   15930   15929   15931   15932   15933   15932   15934
   15935   15936   15935   15937   15938   15939   15938   15940
   15941   15942   15941   15943   15944   15945   15944   15946
   15947   15948   15947   15949   15950   15951   15950   15952
   15953   15954   15953   15955   15956   15957   15956   15958
   15959   15960   15959   15961   15962   15963   15962   15964
   15965   15966   15965   15967   15968   15969   15968   15970
   15971   15972   15971   15973   15974   15975   15974   15976
   15977   15978   15977   15979   15980   15981   15980   15982
   15983   15984   15983   15985   15986   15987   15986   15988
   15989   15990   15989   15991   15992   15993   15992   15994
   15995   15996   15995   15997   15998   15999   15998   16000
   16001   16002   16001   16003   16004   16005   16004   16006
   16007   16008   16007   16009   16010   16011   16010   16012
   16013   16014   16013   16015   16016   16017   16016   16018
   16019   16020   16019   16021   16022   16023   16022   16024
   16025   16026   16025   16027   16028   16029   16028   16030
   16031   16032   16031   16033   16034   16035   16034   16036
   16037   16038   16037   16039   16040   16041   16040   16042
   16043   16044   16043   16045   16046   16047   16046   16048
   16049   16050   16049   16051   16052   16053   16052   16054
   16055   16056   16055   16057   16058   16059   16058   16060
   16061   16062   16061   16063   16064   16065   16064   16066
   16067   16068   16067   16069   16070   16071   16070   16072
   16073   16074   16073   16075   16076   16077   16076   16078
   16079   16080   16079   16081   16082   16083   16082   16084
   16085   16086   16085   16087   16088   16089   16088   16090
   16091   16092   16091   16093   16094   16095   16094   16096
   16097   16098   16097   16099   16100   16101   16100   16102
   16103   16104   16103   16105   16106   16107   16106   16108
   16109   16110   16109   16111   16112   16113   16112   16114
   16115   16116   16115   16117   16118   16119   16118   16120
   16121   16122   16121   16123   16124   16125   16124   16126
   16127   16128   16127   16129   16130   16131   16130   16132
   16133   16134   16133   16135   16136   16137   16136   16138
   16139   16140   16139   16141   16142   16143   16142   16144
   16145   16146   16145   16147   16148   16149   16148   16150
   16151   16152   16151   16153   16154   16155   16154   16156
   16157   16158   16157   16159   16160   16161   16160   16162
   16163   16164   16163   16165   16166   16167   16166   16168
   16169   16170   16169   16171   16172   16173   16172   16174
   16175   16176   16175   16177   16178   16179   16178   16180
   16181   16182   16181   16183   16184   16185   16184   16186
   16187   16188   16187   16189   16190   16191   16190   16192
   16193   16194   16193   16195   16196   16197   16196   16198
   16199   16200   16199   16201   16202   16203   16202   16204
   16205   16206   16205   16207   16208   16209   16208   16210
   16211   16212   16211   16213   16214   16215   16214   16216
   16217   16218   16217   16219   16220   16221   16220   16222
   16223   16224   16223   16225   16226   16227   16226   16228
   16229   16230   16229   16231   16232   16233   16232   16234
   16235   16236   16235   16237   16238   16239   16238   16240
   16241   16242   16241   16243   16244   16245   16244   16246
   16247   16248   16247   16249   16250   16251   16250   16252
   16253   16254   16253   16255   16256   16257   16256   16258
   16259   16260   16259   16261   16262   16263   16262   16264
   16265   16266   16265   16267   16268   16269   16268   16270
   16271   16272   16271   16273   16274   16275   16274   16276
   16277   16278   16277   16279   16280   16281   16280   16282
   16283   16284   16283   16285   16286   16287   16286   16288
   16289   16290   16289   16291   16292   16293   16292   16294
   16295   16296   16295   16297   16298   16299   16298   16300
   16301   16302   16301   16303   16304   16305   16304   16306
   16307   16308   16307   16309   16310   16311   16310   16312
   16313   16314   16313   16315   16316   16317   16316   16318
   16319   16320   16319   16321   16322   16323   16322   16324
   16325   16326   16325   16327   16328   16329   16328   16330
   16331   16332   16331   16333   16334   16335   16334   16336
   16337   16338   16337   16339   16340   16341   16340   16342
   16343   16344   16343   16345   16346   16347   16346   16348
   16349   16350   16349   16351   16352   16353   16352   16354
   16355   16356   16355   16357   16358   16359   16358   16360
   16361   16362   16361   16363   16364   16365   16364   16366
   16367   16368   16367   16369   16370   16371   16370   16372
   16373   16374   16373   16375   16376   16377   16376   16378
   16379   16380   16379   16381   16382   16383   16382   16384
   16385   16386   16385   16387   16388   16389   16388   16390
   16391   16392   16391   16393   16394   16395   16394   16396
   16397   16398   16397   16399   16400   16401   16400   16402
   16403   16404   16403   16405   16406   16407   16406   16408
   16409   16410   16409   16411   16412   16413   16412   16414
   16415   16416   16415   16417   16418   16419   16418   16420
   16421   16422   16421   16423   16424   16425   16424   16426
   16427   16428   16427   16429   16430   16431   16430   16432
   16433   16434   16433   16435   16436   16437   16436   16438
   16439   16440   16439   16441   16442   16443   16442   16444
   16445   16446   16445   16447   16448   16449   16448   16450
   16451   16452   16451   16453   16454   16455   16454   16456
   16457   16458   16457   16459   16460   16461   16460   16462
   16463   16464   16463   16465   16466   16467   16466   16468
   16469   16470   16469   16471   16472   16473   16472   16474
   16475   16476   16475   16477   16478   16479   16478   16480
   16481   16482   16481   16483   16484   16485   16484   16486
   16487   16488   16487   16489   16490   16491   16490   16492
   16493   16494   16493   16495   16496   16497   16496   16498
   16499   16500   16499   16501   16502   16503   16502   16504
   16505   16506   16505   16507   16508   16509   16508   16510
   16511   16512   16511   16513   16514   16515   16514   16516
   16517   16518   16517   16519   16520   16521   16520   16522
   16523   16524   16523   16525   16526   16527   16526   16528
   16529   16530   16529   16531   16532   16533   16532   16534
   16535   16536   16535   16537   16538   16539   16538   16540
   16541   16542   16541   16543   16544   16545   16544   16546
   16547   16548   16547   16549   16550   16551   16550   16552
   16553   16554   16553   16555   16556   16557   16556   16558
   16559   16560   16559   16561   16562   16563   16562   16564
   16565   16566   16565   16567   16568   16569   16568   16570
   16571   16572   16571   16573   16574   16575   16574   16576
   16577   16578   16577   16579   16580   16581   16580   16582
   16583   16584   16583   16585   16586   16587   16586   16588
   16589   16590   16589   16591   16592   16593   16592   16594
   16595   16596   16595   16597   16598   16599   16598   16600
   16601   16602   16601   16603   16604   16605   16604   16606
   16607   16608   16607   16609   16610   16611   16610   16612
   16613   16614   16613   16615   16616   16617   16616   16618
   16619   16620   16619   16621   16622   16623   16622   16624
   16625   16626   16625   16627   16628   16629   16628   16630
   16631   16632   16631   16633   16634   16635   16634   16636
   16637   16638   16637   16639   16640   16641   16640   16642
   16643   16644   16643   16645   16646   16647   16646   16648
   16649   16650   16649   16651   16652   16653   16652   16654
   16655   16656   16655   16657   16658   16659   16658   16660
   16661   16662   16661   16663   16664   16665   16664   16666
   16667   16668   16667   16669   16670   16671   16670   16672
   16673   16674   16673   16675   16676   16677   16676   16678
   16679   16680   16679   16681   16682   16683   16682   16684
   16685   16686   16685   16687   16688   16689   16688   16690
   16691   16692   16691   16693   16694   16695   16694   16696
   16697   16698   16697   16699   16700   16701   16700   16702
   16703   16704   16703   16705   16706   16707   16706   16708
   16709   16710   16709   16711   16712   16713   16712   16714
   16715   16716   16715   16717   16718   16719   16718   16720
   16721   16722   16721   16723   16724   16725   16724   16726
   16727   16728   16727   16729   16730   16731   16730   16732
   16733   16734   16733   16735   16736   16737   16736   16738
   16739   16740   16739   16741   16742   16743   16742   16744
   16745   16746   16745   16747   16748   16749   16748   16750
   16751   16752   16751   16753   16754   16755   16754   16756
   16757   16758   16757   16759   16760   16761   16760   16762
   16763   16764   16763   16765   16766   16767   16766   16768
   16769   16770   16769   16771   16772   16773   16772   16774
   16775   16776   16775   16777   16778   16779   16778   16780
   16781   16782   16781   16783   16784   16785   16784   16786
   16787   16788   16787   16789   16790   16791   16790   16792
   16793   16794   16793   16795   16796   16797   16796   16798
   16799   16800   16799   16801   16802   16803   16802   16804
   16805   16806   16805   16807   16808   16809   16808   16810
   16811   16812   16811   16813   16814   16815   16814   16816
   16817   16818   16817   16819   16820   16821   16820   16822
   16823   16824   16823   16825   16826   16827   16826   16828
   16829   16830   16829   16831   16832   16833   16832   16834
   16835   16836   16835   16837   16838   16839   16838   16840
   16841   16842   16841   16843   16844   16845   16844   16846
   16847   16848   16847   16849   16850   16851   16850   16852
   16853   16854   16853   16855   16856   16857   16856   16858
   16859   16860   16859   16861   16862   16863   16862   16864
   16865   16866   16865   16867   16868   16869   16868   16870
   16871   16872   16871   16873   16874   16875   16874   16876
   16877   16878   16877   16879   16880   16881   16880   16882
   16883   16884   16883   16885   16886   16887   16886   16888
   16889   16890   16889   16891   16892   16893   16892   16894
   16895   16896   16895   16897   16898   16899   16898   16900
   16901   16902   16901   16903   16904   16905   16904   16906
   16907   16908   16907   16909   16910   16911   16910   16912
   16913   16914   16913   16915   16916   16917   16916   16918
   16919   16920   16919   16921   16922   16923   16922   16924
   16925   16926   16925   16927   16928   16929   16928   16930
   16931   16932   16931   16933   16934   16935   16934   16936
   16937   16938   16937   16939   16940   16941   16940   16942
   16943   16944   16943   16945   16946   16947   16946   16948
   16949   16950   16949   16951   16952   16953   16952   16954
   16955   16956   16955   16957   16958   16959   16958   16960
   16961   16962   16961   16963   16964   16965   16964   16966
   16967   16968   16967   16969   16970   16971   16970   16972
   16973   16974   16973   16975   16976   16977   16976   16978
   16979   16980   16979   16981   16982   16983   16982   16984
   16985   16986   16985   16987   16988   16989   16988   16990
   16991   16992   16991   16993   16994   16995   16994   16996
   16997   16998   16997   16999   17000   17001   17000   17002
   17003   17004   17003   17005   17006   17007   17006   17008
   17009   17010   17009   17011   17012   17013   17012   17014
   17015   17016   17015   17017   17018   17019   17018   17020
   17021   17022   17021   17023   17024   17025   17024   17026
   17027   17028   17027   17029   17030   17031   17030   17032
   17033   17034   17033   17035   17036   17037   17036   17038
   17039   17040   17039   17041   17042   17043   17042   17044
   17045   17046   17045   17047   17048   17049   17048   17050
   17051   17052   17051   17053   17054   17055   17054   17056
   17057   17058   17057   17059   17060   17061   17060   17062
   17063   17064   17063   17065   17066   17067   17066   17068
   17069   17070   17069   17071   17072   17073   17072   17074
   17075   17076   17075   17077   17078   17079   17078   17080
   17081   17082   17081   17083   17084   17085   17084   17086
   17087   17088   17087   17089   17090   17091   17090   17092
   17093   17094   17093   17095   17096   17097   17096   17098
   17099   17100   17099   17101   17102   17103   17102   17104
   17105   17106   17105   17107   17108   17109   17108   17110
   17111   17112   17111   17113   17114   17115   17114   17116
   17117   17118   17117   17119   17120   17121   17120   17122
   17123   17124   17123   17125   17126   17127   17126   17128
   17129   17130   17129   17131   17132   17133   17132   17134
   17135   17136   17135   17137   17138   17139   17138   17140
   17141   17142   17141   17143   17144   17145   17144   17146
   17147   17148   17147   17149   17150   17151   17150   17152
   17153   17154   17153   17155   17156   17157   17156   17158
   17159   17160   17159   17161   17162   17163   17162   17164
   17165   17166   17165   17167   17168   17169   17168   17170
   17171   17172   17171   17173   17174   17175   17174   17176
   17177   17178   17177   17179   17180   17181   17180   17182
   17183   17184   17183   17185   17186   17187   17186   17188
   17189   17190   17189   17191   17192   17193   17192   17194
   17195   17196   17195   17197   17198   17199   17198   17200
   17201   17202   17201   17203   17204   17205   17204   17206
   17207   17208   17207   17209   17210   17211   17210   17212
   17213   17214   17213   17215   17216   17217   17216   17218
   17219   17220   17219   17221   17222   17223   17222   17224
   17225   17226   17225   17227   17228   17229   17228   17230
   17231   17232   17231   17233   17234   17235   17234   17236
   17237   17238   17237   17239   17240   17241   17240   17242
   17243   17244   17243   17245   17246   17247   17246   17248
   17249   17250   17249   17251   17252   17253   17252   17254
   17255   17256   17255   17257   17258   17259   17258   17260
   17261   17262   17261   17263   17264   17265   17264   17266
   17267   17268   17267   17269   17270   17271   17270   17272
   17273   17274   17273   17275   17276   17277   17276   17278
   17279   17280   17279   17281   17282   17283   17282   17284
   17285   17286   17285   17287   17288   17289   17288   17290
   17291   17292   17291   17293   17294   17295   17294   17296
   17297   17298   17297   17299   17300   17301   17300   17302
   17303   17304   17303   17305   17306   17307   17306   17308
   17309   17310   17309   17311   17312   17313   17312   17314
   17315   17316   17315   17317   17318   17319   17318   17320
   17321   17322   17321   17323   17324   17325   17324   17326
   17327   17328   17327   17329   17330   17331   17330   17332
   17333   17334   17333   17335   17336   17337   17336   17338
   17339   17340   17339   17341   17342   17343   17342   17344
   17345   17346   17345   17347   17348   17349   17348   17350
   17351   17352   17351   17353   17354   17355   17354   17356
   17357   17358   17357   17359   17360   17361   17360   17362
   17363   17364   17363   17365   17366   17367   17366   17368
   17369   17370   17369   17371   17372   17373   17372   17374
   17375   17376   17375   17377   17378   17379   17378   17380
   17381   17382   17381   17383   17384   17385   17384   17386
   17387   17388   17387   17389   17390   17391   17390   17392
   17393   17394   17393   17395   17396   17397   17396   17398
   17399   17400   17399   17401   17402   17403   17402   17404
   17405   17406   17405   17407   17408   17409   17408   17410
   17411   17412   17411   17413   17414   17415   17414   17416
   17417   17418   17417   17419   17420   17421   17420   17422
   17423   17424   17423   17425   17426   17427   17426   17428
   17429   17430   17429   17431   17432   17433   17432   17434
   17435   17436   17435   17437   17438   17439   17438   17440
   17441   17442   17441   17443   17444   17445   17444   17446
   17447   17448   17447   17449   17450   17451   17450   17452
   17453   17454   17453   17455   17456   17457   17456   17458
   17459   17460   17459   17461   17462   17463   17462   17464
   17465   17466   17465   17467   17468   17469   17468   17470
   17471   17472   17471   17473   17474   17475   17474   17476
   17477   17478   17477   17479   17480   17481   17480   17482
   17483   17484   17483   17485   17486   17487   17486   17488
   17489   17490   17489   17491   17492   17493   17492   17494
   17495   17496   17495   17497   17498   17499   17498   17500
   17501   17502   17501   17503   17504   17505   17504   17506
   17507   17508   17507   17509   17510   17511   17510   17512
   17513   17514   17513   17515   17516   17517   17516   17518
   17519   17520   17519   17521   17522   17523   17522   17524
   17525   17526   17525   17527   17528   17529   17528   17530
   17531   17532   17531   17533   17534   17535   17534   17536
   17537   17538   17537   17539   17540   17541   17540   17542
   17543   17544   17543   17545   17546   17547   17546   17548
   17549   17550   17549   17551   17552   17553   17552   17554
   17555   17556   17555   17557   17558   17559   17558   17560
   17561   17562   17561   17563   17564   17565   17564   17566
   17567   17568   17567   17569   17570   17571   17570   17572
   17573   17574   17573   17575   17576   17577   17576   17578
   17579   17580   17579   17581   17582   17583   17582   17584
   17585   17586   17585   17587   17588   17589   17588   17590
   17591   17592   17591   17593   17594   17595   17594   17596
   17597   17598   17597   17599   17600   17601   17600   17602
   17603   17604   17603   17605   17606   17607   17606   17608
   17609   17610   17609   17611   17612   17613   17612   17614
   17615   17616   17615   17617   17618   17619   17618   17620
   17621   17622   17621   17623   17624   17625   17624   17626
   17627   17628   17627   17629   17630   17631   17630   17632
   17633   17634   17633   17635   17636   17637   17636   17638
   17639   17640   17639   17641   17642   17643   17642   17644
   17645   17646   17645   17647   17648   17649   17648   17650
   17651   17652   17651   17653   17654   17655   17654   17656
   17657   17658   17657   17659   17660   17661   17660   17662
   17663   17664   17663   17665   17666   17667   17666   17668
   17669   17670   17669   17671   17672   17673   17672   17674
   17675   17676   17675   17677   17678   17679   17678   17680
   17681   17682   17681   17683   17684   17685   17684   17686
   17687   17688   17687   17689   17690   17691   17690   17692
   17693   17694   17693   17695   17696   17697   17696   17698
   17699   17700   17699   17701   17702   17703   17702   17704
   17705   17706   17705   17707   17708   17709   17708   17710
   17711   17712   17711   17713   17714   17715   17714   17716
   17717   17718   17717   17719   17720   17721   17720   17722
   17723   17724   17723   17725   17726   17727   17726   17728
   17729   17730   17729   17731   17732   17733   17732   17734
   17735   17736   17735   17737   17738   17739   17738   17740
   17741   17742   17741   17743   17744   17745   17744   17746
   17747   17748   17747   17749   17750   17751   17750   17752
   17753   17754   17753   17755   17756   17757   17756   17758
   17759   17760   17759   17761   17762   17763   17762   17764
   17765   17766   17765   17767   17768   17769   17768   17770
   17771   17772   17771   17773   17774   17775   17774   17776
   17777   17778   17777   17779   17780   17781   17780   17782
   17783   17784   17783   17785   17786   17787   17786   17788
   17789   17790   17789   17791   17792   17793   17792   17794
   17795   17796   17795   17797   17798   17799   17798   17800
   17801   17802   17801   17803   17804   17805   17804   17806
   17807   17808   17807   17809   17810   17811   17810   17812
   17813   17814   17813   17815   17816   17817   17816   17818
   17819   17820   17819   17821   17822   17823   17822   17824
   17825   17826   17825   17827   17828   17829   17828   17830
   17831   17832   17831   17833   17834   17835   17834   17836
   17837   17838   17837   17839   17840   17841   17840   17842
   17843   17844   17843   17845   17846   17847   17846   17848
   17849   17850   17849   17851   17852   17853   17852   17854
   17855   17856   17855   17857   17858   17859   17858   17860
   17861   17862   17861   17863   17864   17865   17864   17866
   17867   17868   17867   17869   17870   17871   17870   17872
   17873   17874   17873   17875   17876   17877   17876   17878
   17879   17880   17879   17881   17882   17883   17882   17884
   17885   17886   17885   17887   17888   17889   17888   17890
   17891   17892   17891   17893   17894   17895   17894   17896
   17897   17898   17897   17899   17900   17901   17900   17902
   17903   17904   17903   17905   17906   17907   17906   17908
   17909   17910   17909   17911   17912   17913   17912   17914
   17915   17916   17915   17917   17918   17919   17918   17920
   17921   17922   17921   17923   17924   17925   17924   17926
   17927   17928   17927   17929   17930   17931   17930   17932
   17933   17934   17933   17935   17936   17937   17936   17938
   17939   17940   17939   17941   17942   17943   17942   17944
   17945   17946   17945   17947   17948   17949   17948   17950
   17951   17952   17951   17953   17954   17955   17954   17956
   17957   17958   17957   17959   17960   17961   17960   17962
   17963   17964   17963   17965   17966   17967   17966   17968
   17969   17970   17969   17971   17972   17973   17972   17974
   17975   17976   17975   17977   17978   17979   17978   17980
   17981   17982   17981   17983   17984   17985   17984   17986
   17987   17988   17987   17989   17990   17991   17990   17992
   17993   17994   17993   17995   17996   17997   17996   17998
   17999   18000   17999   18001   18002   18003   18002   18004
   18005   18006   18005   18007   18008   18009   18008   18010
   18011   18012   18011   18013   18014   18015   18014   18016
   18017   18018   18017   18019   18020   18021   18020   18022
   18023   18024   18023   18025   18026   18027   18026   18028
   18029   18030   18029   18031   18032   18033   18032   18034
   18035   18036   18035   18037   18038   18039   18038   18040
   18041   18042   18041   18043   18044   18045   18044   18046
   18047   18048   18047   18049   18050   18051   18050   18052
   18053   18054   18053   18055   18056   18057   18056   18058
   18059   18060   18059   18061   18062   18063   18062   18064
   18065   18066   18065   18067   18068   18069   18068   18070
   18071   18072   18071   18073   18074   18075   18074   18076
   18077   18078   18077   18079   18080   18081   18080   18082
   18083   18084   18083   18085   18086   18087   18086   18088
   18089   18090   18089   18091   18092   18093   18092   18094
   18095   18096   18095   18097   18098   18099   18098   18100
   18101   18102   18101   18103   18104   18105   18104   18106
   18107   18108   18107   18109   18110   18111   18110   18112
   18113   18114   18113   18115   18116   18117   18116   18118
   18119   18120   18119   18121   18122   18123   18122   18124
   18125   18126   18125   18127   18128   18129   18128   18130
   18131   18132   18131   18133   18134   18135   18134   18136
   18137   18138   18137   18139   18140   18141   18140   18142
   18143   18144   18143   18145   18146   18147   18146   18148
   18149   18150   18149   18151   18152   18153   18152   18154
   18155   18156   18155   18157   18158   18159   18158   18160
   18161   18162   18161   18163   18164   18165   18164   18166
   18167   18168   18167   18169   18170   18171   18170   18172
   18173   18174   18173   18175   18176   18177   18176   18178
   18179   18180   18179   18181   18182   18183   18182   18184
   18185   18186   18185   18187   18188   18189   18188   18190
   18191   18192   18191   18193   18194   18195   18194   18196
   18197   18198   18197   18199   18200   18201   18200   18202
   18203   18204   18203   18205   18206   18207   18206   18208
   18209   18210   18209   18211   18212   18213   18212   18214
   18215   18216   18215   18217   18218   18219   18218   18220
   18221   18222   18221   18223   18224   18225   18224   18226
   18227   18228   18227   18229   18230   18231   18230   18232
   18233   18234   18233   18235   18236   18237   18236   18238
   18239   18240   18239   18241   18242   18243   18242   18244
   18245   18246   18245   18247   18248   18249   18248   18250
   18251   18252   18251   18253   18254   18255   18254   18256
   18257   18258   18257   18259   18260   18261   18260   18262
   18263   18264   18263   18265   18266   18267   18266   18268
   18269   18270   18269   18271   18272   18273   18272   18274
   18275   18276   18275   18277   18278   18279   18278   18280
   18281   18282   18281   18283   18284   18285   18284   18286
   18287   18288   18287   18289   18290   18291   18290   18292
   18293   18294   18293   18295   18296   18297   18296   18298
   18299   18300   18299   18301   18302   18303   18302   18304
   18305   18306   18305   18307   18308   18309   18308   18310
   18311   18312   18311   18313   18314   18315   18314   18316
   18317   18318   18317   18319   18320   18321   18320   18322
   18323   18324   18323   18325   18326   18327   18326   18328
   18329   18330   18329   18331   18332   18333   18332   18334
   18335   18336   18335   18337   18338   18339   18338   18340
   18341   18342   18341   18343   18344   18345   18344   18346
   18347   18348   18347   18349   18350   18351   18350   18352
   18353   18354   18353   18355   18356   18357   18356   18358
   18359   18360   18359   18361   18362   18363   18362   18364
   18365   18366   18365   18367   18368   18369   18368   18370
   18371   18372   18371   18373   18374   18375   18374   18376
   18377   18378   18377   18379   18380   18381   18380   18382
   18383   18384   18383   18385   18386   18387   18386   18388
   18389   18390   18389   18391   18392   18393   18392   18394
   18395   18396   18395   18397   18398   18399   18398   18400
   18401   18402   18401   18403   18404   18405   18404   18406
   18407   18408   18407   18409   18410   18411   18410   18412
   18413   18414   18413   18415   18416   18417   18416   18418
   18419   18420   18419   18421   18422   18423   18422   18424
   18425   18426   18425   18427   18428   18429   18428   18430
   18431   18432   18431   18433   18434   18435   18434   18436
   18437   18438   18437   18439   18440   18441   18440   18442
   18443   18444   18443   18445   18446   18447   18446   18448
   18449   18450   18449   18451   18452   18453   18452   18454
   18455   18456   18455   18457   18458   18459   18458   18460
   18461   18462   18461   18463   18464   18465   18464   18466
   18467   18468   18467   18469   18470   18471   18470   18472
   18473   18474   18473   18475   18476   18477   18476   18478
   18479   18480   18479   18481   18482   18483   18482   18484
   18485   18486   18485   18487   18488   18489   18488   18490
   18491   18492   18491   18493   18494   18495   18494   18496
   18497   18498   18497   18499   18500   18501   18500   18502
   18503   18504   18503   18505   18506   18507   18506   18508
   18509   18510   18509   18511   18512   18513   18512   18514
   18515   18516   18515   18517   18518   18519   18518   18520
   18521   18522   18521   18523   18524   18525   18524   18526
   18527   18528   18527   18529   18530   18531   18530   18532
   18533   18534   18533   18535   18536   18537   18536   18538
   18539   18540   18539   18541   18542   18543   18542   18544
   18545   18546   18545   18547   18548   18549   18548   18550
   18551   18552   18551   18553   18554   18555   18554   18556
   18557   18558   18557   18559   18560   18561   18560   18562
   18563   18564   18563   18565   18566   18567   18566   18568
   18569   18570   18569   18571   18572   18573   18572   18574
   18575   18576   18575   18577   18578   18579   18578   18580
   18581   18582   18581   18583   18584   18585   18584   18586
   18587   18588   18587   18589   18590   18591   18590   18592
   18593   18594   18593   18595   18596   18597   18596   18598
   18599   18600   18599   18601   18602   18603   18602   18604
   18605   18606   18605   18607   18608   18609   18608   18610
   18611   18612   18611   18613   18614   18615   18614   18616
   18617   18618   18617   18619   18620   18621   18620   18622
   18623   18624   18623   18625   18626   18627   18626   18628
   18629   18630   18629   18631   18632   18633   18632   18634
   18635   18636   18635   18637   18638   18639   18638   18640
   18641   18642   18641   18643   18644   18645   18644   18646
   18647   18648   18647   18649   18650   18651   18650   18652
   18653   18654   18653   18655   18656   18657   18656   18658
   18659   18660   18659   18661   18662   18663   18662   18664
   18665   18666   18665   18667   18668   18669   18668   18670
   18671   18672   18671   18673   18674   18675   18674   18676
   18677   18678   18677   18679   18680   18681   18680   18682
   18683   18684   18683   18685   18686   18687   18686   18688
   18689   18690   18689   18691   18692   18693   18692   18694
   18695   18696   18695   18697   18698   18699   18698   18700
   18701   18702   18701   18703   18704   18705   18704   18706
   18707   18708   18707   18709   18710   18711   18710   18712
   18713   18714   18713   18715   18716   18717   18716   18718
   18719   18720   18719   18721   18722   18723   18722   18724
   18725   18726   18725   18727   18728   18729   18728   18730
   18731   18732   18731   18733   18734   18735   18734   18736
   18737   18738   18737   18739   18740   18741   18740   18742
   18743   18744   18743   18745   18746   18747   18746   18748
   18749   18750   18749   18751   18752   18753   18752   18754
   18755   18756   18755   18757   18758   18759   18758   18760
   18761   18762   18761   18763   18764   18765   18764   18766
   18767   18768   18767   18769   18770   18771   18770   18772
   18773   18774   18773   18775   18776   18777   18776   18778
   18779   18780   18779   18781   18782   18783   18782   18784
   18785   18786   18785   18787   18788   18789   18788   18790
   18791   18792   18791   18793   18794   18795   18794   18796
   18797   18798   18797   18799   18800   18801   18800   18802
   18803   18804   18803   18805   18806   18807   18806   18808
   18809   18810   18809   18811   18812   18813   18812   18814
   18815   18816   18815   18817   18818   18819   18818   18820
   18821   18822   18821   18823   18824   18825   18824   18826
   18827   18828   18827   18829   18830   18831   18830   18832
   18833   18834   18833   18835   18836   18837   18836   18838
   18839   18840   18839   18841   18842   18843   18842   18844
   18845   18846   18845   18847   18848   18849   18848   18850
   18851   18852   18851   18853   18854   18855   18854   18856
   18857   18858   18857   18859   18860   18861   18860   18862
   18863   18864   18863   18865   18866   18867   18866   18868
   18869   18870   18869   18871   18872   18873   18872   18874
   18875   18876   18875   18877   18878   18879   18878   18880
   18881   18882   18881   18883   18884   18885   18884   18886
   18887   18888   18887   18889   18890   18891   18890   18892
   18893   18894   18893   18895   18896   18897   18896   18898
   18899   18900   18899   18901   18902   18903   18902   18904
   18905   18906   18905   18907   18908   18909   18908   18910
   18911   18912   18911   18913   18914   18915   18914   18916
   18917   18918   18917   18919   18920   18921   18920   18922
   18923   18924   18923   18925   18926   18927   18926   18928
   18929   18930   18929   18931   18932   18933   18932   18934
   18935   18936   18935   18937   18938   18939   18938   18940
   18941   18942   18941   18943   18944   18945   18944   18946
   18947   18948   18947   18949   18950   18951   18950   18952
   18953   18954   18953   18955   18956   18957   18956   18958
   18959   18960   18959   18961   18962   18963   18962   18964
   18965   18966   18965   18967   18968   18969   18968   18970
   18971   18972   18971   18973   18974   18975   18974   18976
   18977   18978   18977   18979   18980   18981   18980   18982
   18983   18984   18983   18985   18986   18987   18986   18988
   18989   18990   18989   18991   18992   18993   18992   18994
   18995   18996   18995   18997   18998   18999   18998   19000
   19001   19002   19001   19003   19004   19005   19004   19006
   19007   19008   19007   19009   19010   19011   19010   19012
   19013   19014   19013   19015   19016   19017   19016   19018
   19019   19020   19019   19021   19022   19023   19022   19024
   19025   19026   19025   19027   19028   19029   19028   19030
   19031   19032   19031   19033   19034   19035   19034   19036
   19037   19038   19037   19039   19040   19041   19040   19042
   19043   19044   19043   19045   19046   19047   19046   19048
   19049   19050   19049   19051   19052   19053   19052   19054
   19055   19056   19055   19057   19058   19059   19058   19060
   19061   19062   19061   19063   19064   19065   19064   19066
   19067   19068   19067   19069   19070   19071   19070   19072
   19073   19074   19073   19075   19076   19077   19076   19078
   19079   19080   19079   19081   19082   19083   19082   19084
   19085   19086   19085   19087   19088   19089   19088   19090
   19091   19092   19091   19093   19094   19095   19094   19096
   19097   19098   19097   19099   19100   19101   19100   19102
   19103   19104   19103   19105   19106   19107   19106   19108
   19109   19110   19109   19111   19112   19113   19112   19114
   19115   19116   19115   19117   19118   19119   19118   19120
   19121   19122   19121   19123   19124   19125   19124   19126
   19127   19128   19127   19129   19130   19131   19130   19132
   19133   19134   19133   19135   19136   19137   19136   19138
   19139   19140   19139   19141   19142   19143   19142   19144
   19145   19146   19145   19147   19148   19149   19148   19150
   19151   19152   19151   19153   19154   19155   19154   19156
   19157   19158   19157   19159   19160   19161   19160   19162
   19163   19164   19163   19165   19166   19167   19166   19168
   19169   19170   19169   19171   19172   19173   19172   19174
   19175   19176   19175   19177   19178   19179   19178   19180
   19181   19182   19181   19183   19184   19185   19184   19186
   19187   19188   19187   19189   19190   19191   19190   19192
   19193   19194   19193   19195   19196   19197   19196   19198
   19199   19200   19199   19201   19202   19203   19202   19204
   19205   19206   19205   19207   19208   19209   19208   19210
   19211   19212   19211   19213   19214   19215   19214   19216
   19217   19218   19217   19219   19220   19221   19220   19222
   19223   19224   19223   19225   19226   19227   19226   19228
   19229   19230   19229   19231   19232   19233   19232   19234
   19235   19236   19235   19237   19238   19239   19238   19240
   19241   19242   19241   19243   19244   19245   19244   19246
   19247   19248   19247   19249   19250   19251   19250   19252
   19253   19254   19253   19255   19256   19257   19256   19258
   19259   19260   19259   19261   19262   19263   19262   19264
   19265   19266   19265   19267   19268   19269   19268   19270
   19271   19272   19271   19273   19274   19275   19274   19276
   19277   19278   19277   19279   19280   19281   19280   19282
   19283   19284   19283   19285   19286   19287   19286   19288
   19289   19290   19289   19291   19292   19293   19292   19294
   19295   19296   19295   19297   19298   19299   19298   19300
   19301   19302   19301   19303   19304   19305   19304   19306
   19307   19308   19307   19309   19310   19311   19310   19312
   19313   19314   19313   19315   19316   19317   19316   19318
   19319   19320   19319   19321   19322   19323   19322   19324
   19325   19326   19325   19327   19328   19329   19328   19330
   19331   19332   19331   19333   19334   19335   19334   19336
   19337   19338   19337   19339   19340   19341   19340   19342
   19343   19344   19343   19345   19346   19347   19346   19348
   19349   19350   19349   19351   19352   19353   19352   19354
   19355   19356   19355   19357   19358   19359   19358   19360
   19361   19362   19361   19363   19364   19365   19364   19366
   19367   19368   19367   19369   19370   19371   19370   19372
   19373   19374   19373   19375   19376   19377   19376   19378
   19379   19380   19379   19381   19382   19383   19382   19384
   19385   19386   19385   19387   19388   19389   19388   19390
   19391   19392   19391   19393   19394   19395   19394   19396
   19397   19398   19397   19399   19400   19401   19400   19402
   19403   19404   19403   19405   19406   19407   19406   19408
   19409   19410   19409   19411   19412   19413   19412   19414
   19415   19416   19415   19417   19418   19419   19418   19420
   19421   19422   19421   19423   19424   19425   19424   19426
   19427   19428   19427   19429   19430   19431   19430   19432
   19433   19434   19433   19435   19436   19437   19436   19438
   19439   19440   19439   19441   19442   19443   19442   19444
   19445   19446   19445   19447   19448   19449   19448   19450
   19451   19452   19451   19453   19454   19455   19454   19456
   19457   19458   19457   19459   19460   19461   19460   19462
   19463   19464   19463   19465   19466   19467   19466   19468
   19469   19470   19469   19471   19472   19473   19472   19474
   19475   19476   19475   19477   19478   19479   19478   19480
   19481   19482   19481   19483   19484   19485   19484   19486
   19487   19488   19487   19489   19490   19491   19490   19492
   19493   19494   19493   19495   19496   19497   19496   19498
   19499   19500   19499   19501   19502   19503   19502   19504
   19505   19506   19505   19507   19508   19509   19508   19510
   19511   19512   19511   19513   19514   19515   19514   19516
   19517   19518   19517   19519   19520   19521   19520   19522
   19523   19524   19523   19525   19526   19527   19526   19528
   19529   19530   19529   19531   19532   19533   19532   19534
   19535   19536   19535   19537   19538   19539   19538   19540
   19541   19542   19541   19543   19544   19545   19544   19546
   19547   19548   19547   19549   19550   19551   19550   19552
   19553   19554   19553   19555   19556   19557   19556   19558
   19559   19560   19559   19561   19562   19563   19562   19564
   19565   19566   19565   19567   19568   19569   19568   19570
   19571   19572   19571   19573   19574   19575   19574   19576
   19577   19578   19577   19579   19580   19581   19580   19582
   19583   19584   19583   19585   19586   19587   19586   19588
   19589   19590   19589   19591   19592   19593   19592   19594
   19595   19596   19595   19597   19598   19599   19598   19600
   19601   19602   19601   19603   19604   19605   19604   19606
   19607   19608   19607   19609   19610   19611   19610   19612
   19613   19614   19613   19615   19616   19617   19616   19618
   19619   19620   19619   19621   19622   19623   19622   19624
   19625   19626   19625   19627   19628   19629   19628   19630
   19631   19632   19631   19633   19634   19635   19634   19636
   19637   19638   19637   19639   19640   19641   19640   19642
   19643   19644   19643   19645   19646   19647   19646   19648
   19649   19650   19649   19651   19652   19653   19652   19654
   19655   19656   19655   19657   19658   19659   19658   19660
   19661   19662   19661   19663   19664   19665   19664   19666
   19667   19668   19667   19669   19670   19671   19670   19672
   19673   19674   19673   19675   19676   19677   19676   19678
   19679   19680   19679   19681   19682   19683   19682   19684
   19685   19686   19685   19687   19688   19689   19688   19690
   19691   19692   19691   19693   19694   19695   19694   19696
   19697   19698   19697   19699   19700   19701   19700   19702
   19703   19704   19703   19705   19706   19707   19706   19708
   19709   19710   19709   19711   19712   19713   19712   19714
   19715   19716   19715   19717   19718   19719   19718   19720
   19721   19722   19721   19723   19724   19725   19724   19726
   19727   19728   19727   19729   19730   19731   19730   19732
   19733   19734   19733   19735   19736   19737   19736   19738
   19739   19740   19739   19741   19742   19743   19742   19744
   19745   19746   19745   19747   19748   19749   19748   19750
   19751   19752   19751   19753   19754   19755   19754   19756
   19757   19758   19757   19759   19760   19761   19760   19762
   19763   19764   19763   19765   19766   19767   19766   19768
   19769   19770   19769   19771   19772   19773   19772   19774
   19775   19776   19775   19777   19778   19779   19778   19780
   19781   19782   19781   19783   19784   19785   19784   19786
   19787   19788   19787   19789   19790   19791   19790   19792
   19793   19794   19793   19795   19796   19797   19796   19798
   19799   19800   19799   19801   19802   19803   19802   19804
   19805   19806   19805   19807   19808   19809   19808   19810
   19811   19812   19811   19813   19814   19815   19814   19816
   19817   19818   19817   19819   19820   19821   19820   19822
   19823   19824   19823   19825   19826   19827   19826   19828
   19829   19830   19829   19831   19832   19833   19832   19834
   19835   19836   19835   19837   19838   19839   19838   19840
   19841   19842   19841   19843   19844   19845   19844   19846
   19847   19848   19847   19849   19850   19851   19850   19852
   19853   19854   19853   19855   19856   19857   19856   19858
   19859   19860   19859   19861   19862   19863   19862   19864
   19865   19866   19865   19867   19868   19869   19868   19870
   19871   19872   19871   19873   19874   19875   19874   19876
   19877   19878   19877   19879   19880   19881   19880   19882
   19883   19884   19883   19885   19886   19887   19886   19888
   19889   19890   19889   19891   19892   19893   19892   19894
   19895   19896   19895   19897   19898   19899   19898   19900
   19901   19902   19901   19903   19904   19905   19904   19906
   19907   19908   19907   19909   19910   19911   19910   19912
   19913   19914   19913   19915   19916   19917   19916   19918
   19919   19920   19919   19921   19922   19923   19922   19924
   19925   19926   19925   19927   19928   19929   19928   19930
   19931   19932   19931   19933   19934   19935   19934   19936
   19937   19938   19937   19939   19940   19941   19940   19942
   19943   19944   19943   19945   19946   19947   19946   19948
   19949   19950   19949   19951   19952   19953   19952   19954
   19955   19956   19955   19957   19958   19959   19958   19960
   19961   19962   19961   19963   19964   19965   19964   19966
   19967   19968   19967   19969   19970   19971   19970   19972
   19973   19974   19973   19975   19976   19977   19976   19978
   19979   19980   19979   19981   19982   19983   19982   19984
   19985   19986   19985   19987   19988   19989   19988   19990
   19991   19992   19991   19993   19994   19995   19994   19996
   19997   19998   19997   19999   20000   20001   20000   20002
   20003   20004   20003   20005   20006   20007   20006   20008
   20009   20010   20009   20011   20012   20013   20012   20014
   20015   20016   20015   20017   20018   20019   20018   20020
   20021   20022   20021   20023   20024   20025   20024   20026
   20027   20028   20027   20029   20030   20031   20030   20032
   20033   20034   20033   20035   20036   20037   20036   20038
   20039   20040   20039   20041   20042   20043   20042   20044
   20045   20046   20045   20047   20048   20049   20048   20050
   20051   20052   20051   20053   20054   20055   20054   20056
   20057   20058   20057   20059   20060   20061   20060   20062
   20063   20064   20063   20065   20066   20067   20066   20068
   20069   20070   20069   20071   20072   20073   20072   20074
   20075   20076   20075   20077   20078   20079   20078   20080
   20081   20082   20081   20083   20084   20085   20084   20086
   20087   20088   20087   20089   20090   20091   20090   20092
   20093   20094   20093   20095   20096   20097   20096   20098
   20099   20100   20099   20101   20102   20103   20102   20104
   20105   20106   20105   20107   20108   20109   20108   20110
   20111   20112   20111   20113   20114   20115   20114   20116
   20117   20118   20117   20119   20120   20121   20120   20122
   20123   20124   20123   20125   20126   20127   20126   20128
   20129   20130   20129   20131   20132   20133   20132   20134
   20135   20136   20135   20137   20138   20139   20138   20140
   20141   20142   20141   20143   20144   20145   20144   20146
   20147   20148   20147   20149   20150   20151   20150   20152
   20153   20154   20153   20155   20156   20157   20156   20158
   20159   20160   20159   20161   20162   20163   20162   20164
   20165   20166   20165   20167   20168   20169   20168   20170
   20171   20172   20171   20173   20174   20175   20174   20176
   20177   20178   20177   20179   20180   20181   20180   20182
   20183   20184   20183   20185   20186   20187   20186   20188
   20189   20190   20189   20191   20192   20193   20192   20194
   20195   20196   20195   20197   20198   20199   20198   20200
   20201   20202   20201   20203   20204   20205   20204   20206
   20207   20208   20207   20209   20210   20211   20210   20212
   20213   20214   20213   20215   20216   20217   20216   20218
   20219   20220   20219   20221   20222   20223   20222   20224
   20225   20226   20225   20227   20228   20229   20228   20230
   20231   20232   20231   20233   20234   20235   20234   20236
   20237   20238   20237   20239   20240   20241   20240   20242
   20243   20244   20243   20245   20246   20247   20246   20248
   20249   20250   20249   20251   20252   20253   20252   20254
   20255   20256   20255   20257   20258   20259   20258   20260
   20261   20262   20261   20263   20264   20265   20264   20266
   20267   20268   20267   20269   20270   20271   20270   20272
   20273   20274   20273   20275   20276   20277   20276   20278
   20279   20280   20279   20281   20282   20283   20282   20284
   20285   20286   20285   20287   20288   20289   20288   20290
   20291   20292   20291   20293   20294   20295   20294   20296
   20297   20298   20297   20299   20300   20301   20300   20302
   20303   20304   20303   20305   20306   20307   20306   20308
   20309   20310   20309   20311   20312   20313   20312   20314
   20315   20316   20315   20317   20318   20319   20318   20320
   20321   20322   20321   20323   20324   20325   20324   20326
   20327   20328   20327   20329   20330   20331   20330   20332
   20333   20334   20333   20335   20336   20337   20336   20338
   20339   20340   20339   20341   20342   20343   20342   20344
   20345   20346   20345   20347   20348   20349   20348   20350
   20351   20352   20351   20353   20354   20355   20354   20356
   20357   20358   20357   20359   20360   20361   20360   20362
   20363   20364   20363   20365   20366   20367   20366   20368
   20369   20370   20369   20371   20372   20373   20372   20374
   20375   20376   20375   20377   20378   20379   20378   20380
   20381   20382   20381   20383   20384   20385   20384   20386
   20387   20388   20387   20389   20390   20391   20390   20392
   20393   20394   20393   20395   20396   20397   20396   20398
   20399   20400   20399   20401   20402   20403   20402   20404
   20405   20406   20405   20407   20408   20409   20408   20410
   20411   20412   20411   20413   20414   20415   20414   20416
   20417   20418   20417   20419   20420   20421   20420   20422
   20423   20424   20423   20425   20426   20427   20426   20428
   20429   20430   20429   20431   20432   20433   20432   20434
   20435   20436   20435   20437   20438   20439   20438   20440
   20441   20442   20441   20443   20444   20445   20444   20446
   20447   20448   20447   20449   20450   20451   20450   20452
   20453   20454   20453   20455   20456   20457   20456   20458
   20459   20460   20459   20461   20462   20463   20462   20464
   20465   20466   20465   20467   20468   20469   20468   20470
   20471   20472   20471   20473   20474   20475   20474   20476
   20477   20478   20477   20479   20480   20481   20480   20482
   20483   20484   20483   20485   20486   20487   20486   20488
   20489   20490   20489   20491   20492   20493   20492   20494
   20495   20496   20495   20497   20498   20499   20498   20500
   20501   20502   20501   20503   20504   20505   20504   20506
   20507   20508   20507   20509   20510   20511   20510   20512
   20513   20514   20513   20515   20516   20517   20516   20518
   20519   20520   20519   20521   20522   20523   20522   20524
   20525   20526   20525   20527   20528   20529   20528   20530
   20531   20532   20531   20533   20534   20535   20534   20536
   20537   20538   20537   20539   20540   20541   20540   20542
   20543   20544   20543   20545   20546   20547   20546   20548
   20549   20550   20549   20551   20552   20553   20552   20554
   20555   20556   20555   20557   20558   20559   20558   20560
   20561   20562   20561   20563   20564   20565   20564   20566
   20567   20568   20567   20569   20570   20571   20570   20572
   20573   20574   20573   20575   20576   20577   20576   20578
   20579   20580   20579   20581   20582   20583   20582   20584
   20585   20586   20585   20587   20588   20589   20588   20590
   20591   20592   20591   20593   20594   20595   20594   20596
   20597   20598   20597   20599   20600   20601   20600   20602
   20603   20604   20603   20605   20606   20607   20606   20608
   20609   20610   20609   20611   20612   20613   20612   20614
   20615   20616   20615   20617   20618   20619   20618   20620
   20621   20622   20621   20623   20624   20625   20624   20626
   20627   20628   20627   20629   20630   20631   20630   20632
   20633   20634   20633   20635   20636   20637   20636   20638
   20639   20640   20639   20641   20642   20643   20642   20644
   20645   20646   20645   20647   20648   20649   20648   20650
   20651   20652   20651   20653   20654   20655   20654   20656
   20657   20658   20657   20659   20660   20661   20660   20662
   20663   20664   20663   20665   20666   20667   20666   20668
   20669   20670   20669   20671   20672   20673   20672   20674
   20675   20676   20675   20677   20678   20679   20678   20680
   20681   20682   20681   20683   20684   20685   20684   20686
   20687   20688   20687   20689   20690   20691   20690   20692
   20693   20694   20693   20695   20696   20697   20696   20698
   20699   20700   20699   20701   20702   20703   20702   20704
   20705   20706   20705   20707   20708   20709   20708   20710
   20711   20712   20711   20713   20714   20715   20714   20716
   20717   20718   20717   20719   20720   20721   20720   20722
   20723   20724   20723   20725   20726   20727   20726   20728
   20729   20730   20729   20731   20732   20733   20732   20734
   20735   20736   20735   20737   20738   20739   20738   20740
   20741   20742   20741   20743   20744   20745   20744   20746
   20747   20748   20747   20749   20750   20751   20750   20752
   20753   20754   20753   20755   20756   20757   20756   20758
   20759   20760   20759   20761   20762   20763   20762   20764
   20765   20766   20765   20767   20768   20769   20768   20770
   20771   20772   20771   20773   20774   20775   20774   20776
   20777   20778   20777   20779   20780   20781   20780   20782
   20783   20784   20783   20785   20786   20787   20786   20788
   20789   20790   20789   20791   20792   20793   20792   20794
   20795   20796   20795   20797   20798   20799   20798   20800
   20801   20802   20801   20803   20804   20805   20804   20806
   20807   20808   20807   20809   20810   20811   20810   20812
   20813   20814   20813   20815   20816   20817   20816   20818
   20819   20820   20819   20821   20822   20823   20822   20824
   20825   20826   20825   20827   20828   20829   20828   20830
   20831   20832   20831   20833   20834   20835   20834   20836
   20837   20838   20837   20839   20840   20841   20840   20842
   20843   20844   20843   20845   20846   20847   20846   20848
   20849   20850   20849   20851   20852   20853   20852   20854
   20855   20856   20855   20857   20858   20859   20858   20860
   20861   20862   20861   20863   20864   20865   20864   20866
   20867   20868   20867   20869   20870   20871   20870   20872
   20873   20874   20873   20875   20876   20877   20876   20878
   20879   20880   20879   20881   20882   20883   20882   20884
   20885   20886   20885   20887   20888   20889   20888   20890
   20891   20892   20891   20893   20894   20895   20894   20896
   20897   20898   20897   20899   20900   20901   20900   20902
   20903   20904   20903   20905   20906   20907   20906   20908
   20909   20910   20909   20911   20912   20913   20912   20914
   20915   20916   20915   20917   20918   20919   20918   20920
   20921   20922   20921   20923   20924   20925   20924   20926
   20927   20928   20927   20929   20930   20931   20930   20932
   20933   20934   20933   20935   20936   20937   20936   20938
   20939   20940   20939   20941   20942   20943   20942   20944
   20945   20946   20945   20947   20948   20949   20948   20950
   20951   20952   20951   20953   20954   20955   20954   20956
   20957   20958   20957   20959   20960   20961   20960   20962
   20963   20964   20963   20965   20966   20967   20966   20968
   20969   20970   20969   20971   20972   20973   20972   20974
   20975   20976   20975   20977   20978   20979   20978   20980
   20981   20982   20981   20983   20984   20985   20984   20986
   20987   20988   20987   20989   20990   20991   20990   20992
   20993   20994   20993   20995   20996   20997   20996   20998
   20999   21000   20999   21001   21002   21003   21002   21004
   21005   21006   21005   21007   21008   21009   21008   21010
   21011   21012   21011   21013   21014   21015   21014   21016
   21017   21018   21017   21019   21020   21021   21020   21022
   21023   21024   21023   21025   21026   21027   21026   21028
   21029   21030   21029   21031   21032   21033   21032   21034
   21035   21036   21035   21037   21038   21039   21038   21040
   21041   21042   21041   21043   21044   21045   21044   21046
   21047   21048   21047   21049   21050   21051   21050   21052
   21053   21054   21053   21055   21056   21057   21056   21058
   21059   21060   21059   21061   21062   21063   21062   21064
   21065   21066   21065   21067   21068   21069   21068   21070
   21071   21072   21071   21073   21074   21075   21074   21076
   21077   21078   21077   21079   21080   21081   21080   21082
   21083   21084   21083   21085   21086   21087   21086   21088
   21089   21090   21089   21091   21092   21093   21092   21094
   21095   21096   21095   21097   21098   21099   21098   21100
   21101   21102   21101   21103   21104   21105   21104   21106
   21107   21108   21107   21109   21110   21111   21110   21112
   21113   21114   21113   21115   21116   21117   21116   21118
   21119   21120   21119   21121   21122   21123   21122   21124
   21125   21126   21125   21127   21128   21129   21128   21130
   21131   21132   21131   21133   21134   21135   21134   21136
   21137   21138   21137   21139   21140   21141   21140   21142
   21143   21144   21143   21145   21146   21147   21146   21148
   21149   21150   21149   21151   21152   21153   21152   21154
   21155   21156   21155   21157   21158   21159   21158   21160
   21161   21162   21161   21163   21164   21165   21164   21166
   21167   21168   21167   21169   21170   21171   21170   21172
   21173   21174   21173   21175   21176   21177   21176   21178
   21179   21180   21179   21181   21182   21183   21182   21184
   21185   21186   21185   21187   21188   21189   21188   21190
   21191   21192   21191   21193   21194   21195   21194   21196
   21197   21198   21197   21199   21200   21201   21200   21202
   21203   21204   21203   21205   21206   21207   21206   21208
   21209   21210   21209   21211   21212   21213   21212   21214
   21215   21216   21215   21217   21218   21219   21218   21220
   21221   21222   21221   21223   21224   21225   21224   21226
   21227   21228   21227   21229   21230   21231   21230   21232
   21233   21234   21233   21235   21236   21237   21236   21238
   21239   21240   21239   21241   21242   21243   21242   21244
   21245   21246   21245   21247   21248   21249   21248   21250
   21251   21252   21251   21253   21254   21255   21254   21256
   21257   21258   21257   21259   21260   21261   21260   21262
   21263   21264   21263   21265   21266   21267   21266   21268
   21269   21270   21269   21271   21272   21273   21272   21274
   21275   21276   21275   21277   21278   21279   21278   21280
   21281   21282   21281   21283   21284   21285   21284   21286
   21287   21288   21287   21289   21290   21291   21290   21292
   21293   21294   21293   21295   21296   21297   21296   21298
   21299   21300   21299   21301   21302   21303   21302   21304
   21305   21306   21305   21307   21308   21309   21308   21310
   21311   21312   21311   21313   21314   21315   21314   21316
   21317   21318   21317   21319   21320   21321   21320   21322
   21323   21324   21323   21325   21326   21327   21326   21328
   21329   21330   21329   21331   21332   21333   21332   21334
   21335   21336   21335   21337   21338   21339   21338   21340
   21341   21342   21341   21343   21344   21345   21344   21346
   21347   21348   21347   21349   21350   21351   21350   21352
   21353   21354   21353   21355   21356   21357   21356   21358
   21359   21360   21359   21361   21362   21363   21362   21364
   21365   21366   21365   21367   21368   21369   21368   21370
   21371   21372   21371   21373   21374   21375   21374   21376
   21377   21378   21377   21379   21380   21381   21380   21382
   21383   21384   21383   21385   21386   21387   21386   21388
   21389   21390   21389   21391   21392   21393   21392   21394
   21395   21396   21395   21397   21398   21399   21398   21400
   21401   21402   21401   21403   21404   21405   21404   21406
   21407   21408   21407   21409   21410   21411   21410   21412
   21413   21414   21413   21415   21416   21417   21416   21418
   21419   21420   21419   21421   21422   21423   21422   21424
   21425   21426   21425   21427   21428   21429   21428   21430
   21431   21432   21431   21433   21434   21435   21434   21436
   21437   21438   21437   21439   21440   21441   21440   21442
   21443   21444   21443   21445   21446   21447   21446   21448
   21449   21450   21449   21451   21452   21453   21452   21454
   21455   21456   21455   21457   21458   21459   21458   21460
   21461   21462   21461   21463   21464   21465   21464   21466
   21467   21468   21467   21469   21470   21471   21470   21472
   21473   21474   21473   21475   21476   21477   21476   21478
   21479   21480   21479   21481   21482   21483   21482   21484
   21485   21486   21485   21487   21488   21489   21488   21490
   21491   21492   21491   21493   21494   21495   21494   21496
   21497   21498   21497   21499   21500   21501   21500   21502
   21503   21504   21503   21505   21506   21507   21506   21508
   21509   21510   21509   21511   21512   21513   21512   21514
   21515   21516   21515   21517   21518   21519   21518   21520
   21521   21522   21521   21523   21524   21525   21524   21526
   21527   21528   21527   21529   21530   21531   21530   21532
   21533   21534   21533   21535   21536   21537   21536   21538
   21539   21540   21539   21541   21542   21543   21542   21544
   21545   21546   21545   21547   21548   21549   21548   21550
   21551   21552   21551   21553   21554   21555   21554   21556
   21557   21558   21557   21559   21560   21561   21560   21562
   21563   21564   21563   21565   21566   21567   21566   21568
   21569   21570   21569   21571   21572   21573   21572   21574
   21575   21576   21575   21577   21578   21579   21578   21580
   21581   21582   21581   21583   21584   21585   21584   21586
   21587   21588   21587   21589   21590   21591   21590   21592
   21593   21594   21593   21595   21596   21597   21596   21598
   21599   21600   21599   21601   21602   21603   21602   21604
   21605   21606   21605   21607   21608   21609   21608   21610
   21611   21612   21611   21613   21614   21615   21614   21616
   21617   21618   21617   21619   21620   21621   21620   21622
   21623   21624   21623   21625   21626   21627   21626   21628
   21629   21630   21629   21631   21632   21633   21632   21634
   21635   21636   21635   21637   21638   21639   21638   21640
   21641   21642   21641   21643   21644   21645   21644   21646
   21647   21648   21647   21649   21650   21651   21650   21652
   21653   21654   21653   21655   21656   21657   21656   21658
   21659   21660   21659   21661   21662   21663   21662   21664
   21665   21666   21665   21667   21668   21669   21668   21670
   21671   21672   21671   21673   21674   21675   21674   21676
   21677   21678   21677   21679   21680   21681   21680   21682
   21683   21684   21683   21685   21686   21687   21686   21688
   21689   21690   21689   21691   21692   21693   21692   21694
   21695   21696   21695   21697   21698   21699   21698   21700
   21701   21702   21701   21703   21704   21705   21704   21706
   21707   21708   21707   21709   21710   21711   21710   21712
   21713   21714   21713   21715   21716   21717   21716   21718
   21719   21720   21719   21721   21722   21723   21722   21724
   21725   21726   21725   21727   21728   21729   21728   21730
   21731   21732   21731   21733   21734   21735   21734   21736
   21737   21738   21737   21739   21740   21741   21740   21742
   21743   21744   21743   21745   21746   21747   21746   21748
   21749   21750   21749   21751   21752   21753   21752   21754
   21755   21756   21755   21757   21758   21759   21758   21760
   21761   21762   21761   21763   21764   21765   21764   21766
   21767   21768   21767   21769   21770   21771   21770   21772
   21773   21774   21773   21775   21776   21777   21776   21778
   21779   21780   21779   21781   21782   21783   21782   21784
   21785   21786   21785   21787   21788   21789   21788   21790
   21791   21792   21791   21793   21794   21795   21794   21796
   21797   21798   21797   21799   21800   21801   21800   21802
   21803   21804   21803   21805   21806   21807   21806   21808
   21809   21810   21809   21811   21812   21813   21812   21814
   21815   21816   21815   21817   21818   21819   21818   21820
   21821   21822   21821   21823   21824   21825   21824   21826
   21827   21828   21827   21829   21830   21831   21830   21832
   21833   21834   21833   21835   21836   21837   21836   21838
   21839   21840   21839   21841   21842   21843   21842   21844
   21845   21846   21845   21847   21848   21849   21848   21850
   21851   21852   21851   21853   21854   21855   21854   21856
   21857   21858   21857   21859   21860   21861   21860   21862
   21863   21864   21863   21865   21866   21867   21866   21868
   21869   21870   21869   21871   21872   21873   21872   21874
   21875   21876   21875   21877   21878   21879   21878   21880
   21881   21882   21881   21883   21884   21885   21884   21886
   21887   21888   21887   21889   21890   21891   21890   21892
   21893   21894   21893   21895   21896   21897   21896   21898
   21899   21900   21899   21901   21902   21903   21902   21904
   21905   21906   21905   21907   21908   21909   21908   21910
   21911   21912   21911   21913   21914   21915   21914   21916
   21917   21918   21917   21919   21920   21921   21920   21922
   21923   21924   21923   21925   21926   21927   21926   21928
   21929   21930   21929   21931   21932   21933   21932   21934
   21935   21936   21935   21937   21938   21939   21938   21940
   21941   21942   21941   21943   21944   21945   21944   21946
   21947   21948   21947   21949   21950   21951   21950   21952
   21953   21954   21953   21955   21956   21957   21956   21958
   21959   21960   21959   21961   21962   21963   21962   21964
   21965   21966   21965   21967   21968   21969   21968   21970
   21971   21972   21971   21973   21974   21975   21974   21976
   21977   21978   21977   21979   21980   21981   21980   21982
   21983   21984   21983   21985   21986   21987   21986   21988
   21989   21990   21989   21991   21992   21993   21992   21994
   21995   21996   21995   21997   21998   21999   21998   22000
   22001   22002   22001   22003   22004   22005   22004   22006
   22007   22008   22007   22009   22010   22011   22010   22012
   22013   22014   22013   22015   22016   22017   22016   22018
   22019   22020   22019   22021   22022   22023   22022   22024
   22025   22026   22025   22027   22028   22029   22028   22030
   22031   22032   22031   22033   22034   22035   22034   22036
   22037   22038   22037   22039   22040   22041   22040   22042
   22043   22044   22043   22045   22046   22047   22046   22048
   22049   22050   22049   22051   22052   22053   22052   22054
   22055   22056   22055   22057   22058   22059   22058   22060
   22061   22062   22061   22063   22064   22065   22064   22066
   22067   22068   22067   22069   22070   22071   22070   22072
   22073   22074   22073   22075   22076   22077   22076   22078
   22079   22080   22079   22081   22082   22083   22082   22084
   22085   22086   22085   22087   22088   22089   22088   22090
   22091   22092   22091   22093   22094   22095   22094   22096
   22097   22098   22097   22099   22100   22101   22100   22102
   22103   22104   22103   22105   22106   22107   22106   22108
   22109   22110   22109   22111   22112   22113   22112   22114
   22115   22116   22115   22117   22118   22119   22118   22120
   22121   22122   22121   22123   22124   22125   22124   22126
   22127   22128   22127   22129   22130   22131   22130   22132
   22133   22134   22133   22135   22136   22137   22136   22138
   22139   22140   22139   22141   22142   22143   22142   22144
   22145   22146   22145   22147   22148   22149   22148   22150
   22151   22152   22151   22153   22154   22155   22154   22156
   22157   22158   22157   22159   22160   22161   22160   22162
   22163   22164   22163   22165   22166   22167   22166   22168
   22169   22170   22169   22171   22172   22173   22172   22174
   22175   22176   22175   22177   22178   22179   22178   22180
   22181   22182   22181   22183   22184   22185   22184   22186
   22187   22188   22187   22189   22190   22191   22190   22192
   22193   22194   22193   22195   22196   22197   22196   22198
   22199   22200   22199   22201   22202   22203   22202   22204
   22205   22206   22205   22207   22208   22209   22208   22210
   22211   22212   22211   22213   22214   22215   22214   22216
   22217   22218   22217   22219   22220   22221   22220   22222
   22223   22224   22223   22225   22226   22227   22226   22228
   22229   22230   22229   22231   22232   22233   22232   22234
   22235   22236   22235   22237   22238   22239   22238   22240
   22241   22242   22241   22243   22244   22245   22244   22246
   22247   22248   22247   22249   22250   22251   22250   22252
   22253   22254   22253   22255   22256   22257   22256   22258
   22259   22260   22259   22261   22262   22263   22262   22264
   22265   22266   22265   22267   22268   22269   22268   22270
   22271   22272   22271   22273   22274   22275   22274   22276
   22277   22278   22277   22279   22280   22281   22280   22282
   22283   22284   22283   22285   22286   22287   22286   22288
   22289   22290   22289   22291   22292   22293   22292   22294
   22295   22296   22295   22297   22298   22299   22298   22300
   22301   22302   22301   22303   22304   22305   22304   22306
   22307   22308   22307   22309   22310   22311   22310   22312
   22313   22314   22313   22315   22316   22317   22316   22318
   22319   22320   22319   22321   22322   22323   22322   22324
   22325   22326   22325   22327   22328   22329   22328   22330
   22331   22332   22331   22333   22334   22335   22334   22336
   22337   22338   22337   22339   22340   22341   22340   22342
   22343   22344   22343   22345   22346   22347   22346   22348
   22349   22350   22349   22351   22352   22353   22352   22354
   22355   22356   22355   22357   22358   22359   22358   22360
   22361   22362   22361   22363   22364   22365   22364   22366
   22367   22368   22367   22369   22370   22371   22370   22372
   22373   22374   22373   22375   22376   22377   22376   22378
   22379   22380   22379   22381   22382   22383   22382   22384
   22385   22386   22385   22387   22388   22389   22388   22390
   22391   22392   22391   22393   22394   22395   22394   22396
   22397   22398   22397   22399   22400   22401   22400   22402
   22403   22404   22403   22405   22406   22407   22406   22408
   22409   22410   22409   22411   22412   22413   22412   22414
   22415   22416   22415   22417   22418   22419   22418   22420
   22421   22422   22421   22423   22424   22425   22424   22426
   22427   22428   22427   22429   22430   22431   22430   22432
   22433   22434   22433   22435   22436   22437   22436   22438
   22439   22440   22439   22441   22442   22443   22442   22444
   22445   22446   22445   22447   22448   22449   22448   22450
   22451   22452   22451   22453   22454   22455   22454   22456
   22457   22458   22457   22459   22460   22461   22460   22462
   22463   22464   22463   22465   22466   22467   22466   22468
   22469   22470   22469   22471   22472   22473   22472   22474
   22475   22476   22475   22477   22478   22479   22478   22480
   22481   22482   22481   22483   22484   22485   22484   22486
   22487   22488   22487   22489   22490   22491   22490   22492
   22493   22494   22493   22495   22496   22497   22496   22498
   22499   22500   22499   22501   22502   22503   22502   22504
   22505   22506   22505   22507   22508   22509   22508   22510
   22511   22512   22511   22513   22514   22515   22514   22516
   22517   22518   22517   22519   22520   22521   22520   22522
   22523   22524   22523   22525   22526   22527   22526   22528
   22529   22530   22529   22531   22532   22533   22532   22534
   22535   22536   22535   22537   22538   22539   22538   22540
   22541   22542   22541   22543   22544   22545   22544   22546
   22547   22548   22547   22549   22550   22551   22550   22552
   22553   22554   22553   22555   22556   22557   22556   22558
   22559   22560   22559   22561   22562   22563   22562   22564
   22565   22566   22565   22567   22568   22569   22568   22570
   22571   22572   22571   22573   22574   22575   22574   22576
   22577   22578   22577   22579   22580   22581   22580   22582
   22583   22584   22583   22585   22586   22587   22586   22588
   22589   22590   22589   22591   22592   22593   22592   22594
   22595   22596   22595   22597   22598   22599   22598   22600
   22601   22602   22601   22603   22604   22605   22604   22606
   22607   22608   22607   22609   22610   22611   22610   22612
   22613   22614   22613   22615   22616   22617   22616   22618
   22619   22620   22619   22621   22622   22623   22622   22624
   22625   22626   22625   22627   22628   22629   22628   22630
   22631   22632   22631   22633   22634   22635   22634   22636
   22637   22638   22637   22639   22640   22641   22640   22642
   22643   22644   22643   22645   22646   22647   22646   22648
   22649   22650   22649   22651   22652   22653   22652   22654
   22655   22656   22655   22657   22658   22659   22658   22660
   22661   22662   22661   22663   22664   22665   22664   22666
   22667   22668   22667   22669   22670   22671   22670   22672
   22673   22674   22673   22675   22676   22677   22676   22678
   22679   22680   22679   22681   22682   22683   22682   22684
   22685   22686   22685   22687   22688   22689   22688   22690
   22691   22692   22691   22693   22694   22695   22694   22696
   22697   22698   22697   22699   22700   22701   22700   22702
   22703   22704   22703   22705   22706   22707   22706   22708
   22709   22710   22709   22711   22712   22713   22712   22714
   22715   22716   22715   22717   22718   22719   22718   22720
   22721   22722   22721   22723   22724   22725   22724   22726
   22727   22728   22727   22729   22730   22731   22730   22732
   22733   22734   22733   22735   22736   22737   22736   22738
   22739   22740   22739   22741   22742   22743   22742   22744
   22745   22746   22745   22747   22748   22749   22748   22750
   22751   22752   22751   22753   22754   22755   22754   22756
   22757   22758   22757   22759   22760   22761   22760   22762
   22763   22764   22763   22765   22766   22767   22766   22768
   22769   22770   22769   22771   22772   22773   22772   22774
   22775   22776   22775   22777   22778   22779   22778   22780
   22781   22782   22781   22783   22784   22785   22784   22786
   22787   22788   22787   22789   22790   22791   22790   22792
   22793   22794   22793   22795   22796   22797   22796   22798
   22799   22800   22799   22801   22802   22803   22802   22804
   22805   22806   22805   22807   22808   22809   22808   22810
   22811   22812   22811   22813   22814   22815   22814   22816
   22817   22818   22817   22819   22820   22821   22820   22822
   22823   22824   22823   22825   22826   22827   22826   22828
   22829   22830   22829   22831   22832   22833   22832   22834
   22835   22836   22835   22837   22838   22839   22838   22840
   22841   22842   22841   22843   22844   22845   22844   22846
   22847   22848   22847   22849   22850   22851   22850   22852
   22853   22854   22853   22855   22856   22857   22856   22858
   22859   22860   22859   22861   22862   22863   22862   22864
   22865   22866   22865   22867   22868   22869   22868   22870
   22871   22872   22871   22873   22874   22875   22874   22876
   22877   22878   22877   22879   22880   22881   22880   22882
   22883   22884   22883   22885   22886   22887   22886   22888
   22889   22890   22889   22891   22892   22893   22892   22894
   22895   22896   22895   22897   22898   22899   22898   22900
   22901   22902   22901   22903   22904   22905   22904   22906
   22907   22908   22907   22909   22910   22911   22910   22912
   22913   22914   22913   22915   22916   22917   22916   22918
   22919   22920   22919   22921   22922   22923   22922   22924
   22925   22926   22925   22927   22928   22929   22928   22930
   22931   22932   22931   22933   22934   22935   22934   22936
   22937   22938   22937   22939   22940   22941   22940   22942
   22943   22944   22943   22945   22946   22947   22946   22948
   22949   22950   22949   22951   22952   22953   22952   22954
   22955   22956   22955   22957   22958   22959   22958   22960
   22961   22962   22961   22963   22964   22965   22964   22966
   22967   22968   22967   22969   22970   22971   22970   22972
   22973   22974   22973   22975   22976   22977   22976   22978
   22979   22980   22979   22981   22982   22983   22982   22984
   22985   22986   22985   22987   22988   22989   22988   22990
   22991   22992   22991   22993   22994   22995   22994   22996
   22997   22998   22997   22999   23000   23001   23000   23002
   23003   23004   23003   23005   23006   23007   23006   23008
   23009   23010   23009   23011   23012   23013   23012   23014
   23015   23016   23015   23017   23018   23019   23018   23020
   23021   23022   23021   23023   23024   23025   23024   23026
   23027   23028   23027   23029   23030   23031   23030   23032
   23033   23034   23033   23035   23036   23037   23036   23038
   23039   23040   23039   23041   23042   23043   23042   23044
   23045   23046   23045   23047   23048   23049   23048   23050
   23051   23052   23051   23053   23054   23055   23054   23056
   23057   23058   23057   23059   23060   23061   23060   23062
   23063   23064   23063   23065   23066   23067   23066   23068
   23069   23070   23069   23071   23072   23073   23072   23074
   23075   23076   23075   23077   23078   23079   23078   23080
   23081   23082   23081   23083   23084   23085   23084   23086
   23087   23088   23087   23089   23090   23091   23090   23092
   23093   23094   23093   23095   23096   23097   23096   23098
   23099   23100   23099   23101   23102   23103   23102   23104
   23105   23106   23105   23107   23108   23109   23108   23110
   23111   23112   23111   23113   23114   23115   23114   23116
   23117   23118   23117   23119   23120   23121   23120   23122
   23123   23124   23123   23125   23126   23127   23126   23128
   23129   23130   23129   23131   23132   23133   23132   23134
   23135   23136   23135   23137   23138   23139   23138   23140
   23141   23142   23141   23143   23144   23145   23144   23146
   23147   23148   23147   23149   23150   23151   23150   23152
   23153   23154   23153   23155   23156   23157   23156   23158
   23159   23160   23159   23161   23162   23163   23162   23164
   23165   23166   23165   23167   23168   23169   23168   23170
   23171   23172   23171   23173   23174   23175   23174   23176
   23177   23178   23177   23179   23180   23181   23180   23182
   23183   23184   23183   23185   23186   23187   23186   23188
   23189   23190   23189   23191   23192   23193   23192   23194
   23195   23196   23195   23197   23198   23199   23198   23200
   23201   23202   23201   23203   23204   23205   23204   23206
   23207   23208   23207   23209   23210   23211   23210   23212
   23213   23214   23213   23215   23216   23217   23216   23218
   23219   23220   23219   23221   23222   23223   23222   23224
   23225   23226   23225   23227   23228   23229   23228   23230
   23231   23232   23231   23233   23234   23235   23234   23236
   23237   23238   23237   23239   23240   23241   23240   23242
   23243   23244   23243   23245   23246   23247   23246   23248
   23249   23250   23249   23251   23252   23253   23252   23254
   23255   23256   23255   23257   23258   23259   23258   23260
   23261   23262   23261   23263   23264   23265   23264   23266
   23267   23268   23267   23269   23270   23271   23270   23272
   23273   23274   23273   23275   23276   23277   23276   23278
   23279   23280   23279   23281   23282   23283   23282   23284
   23285   23286   23285   23287   23288   23289   23288   23290
   23291   23292   23291   23293   23294   23295   23294   23296
   23297   23298   23297   23299   23300   23301   23300   23302
   23303   23304   23303   23305   23306   23307   23306   23308
   23309   23310   23309   23311   23312   23313   23312   23314
   23315   23316   23315   23317   23318   23319   23318   23320
   23321   23322   23321   23323   23324   23325   23324   23326
   23327   23328   23327   23329   23330   23331   23330   23332
   23333   23334   23333   23335   23336   23337   23336   23338
   23339   23340   23339   23341   23342   23343   23342   23344
   23345   23346   23345   23347   23348   23349   23348   23350
   23351   23352   23351   23353   23354   23355   23354   23356
   23357   23358   23357   23359   23360   23361   23360   23362
   23363   23364   23363   23365   23366   23367   23366   23368
   23369   23370   23369   23371   23372   23373   23372   23374
   23375   23376   23375   23377   23378   23379   23378   23380
   23381   23382   23381   23383   23384   23385   23384   23386
   23387   23388   23387   23389   23390   23391   23390   23392
   23393   23394   23393   23395   23396   23397   23396   23398
   23399   23400   23399   23401   23402   23403   23402   23404
   23405   23406   23405   23407   23408   23409   23408   23410
   23411   23412   23411   23413   23414   23415   23414   23416
   23417   23418   23417   23419   23420   23421   23420   23422
   23423   23424   23423   23425   23426   23427   23426   23428
   23429   23430   23429   23431   23432   23433   23432   23434
   23435   23436   23435   23437   23438   23439   23438   23440
   23441   23442   23441   23443   23444   23445   23444   23446
   23447   23448   23447   23449   23450   23451   23450   23452
   23453   23454   23453   23455   23456   23457   23456   23458
   23459   23460   23459   23461   23462   23463   23462   23464
   23465   23466   23465   23467   23468   23469   23468   23470
   23471   23472   23471   23473   23474   23475   23474   23476
   23477   23478   23477   23479   23480   23481   23480   23482
   23483   23484   23483   23485   23486   23487   23486   23488
   23489   23490   23489   23491   23492   23493   23492   23494
   23495   23496   23495   23497   23498   23499   23498   23500
   23501   23502   23501   23503   23504   23505   23504   23506
   23507   23508   23507   23509   23510   23511   23510   23512
   23513   23514   23513   23515   23516   23517   23516   23518
   23519   23520   23519   23521   23522   23523   23522   23524
   23525   23526   23525   23527   23528   23529   23528   23530
   23531   23532   23531   23533   23534   23535   23534   23536
   23537   23538   23537   23539   23540   23541   23540   23542
   23543   23544   23543   23545   23546   23547   23546   23548
   23549   23550   23549   23551   23552   23553   23552   23554
   23555   23556   23555   23557   23558   23559   23558   23560
   23561   23562   23561   23563   23564   23565   23564   23566
   23567   23568   23567   23569   23570   23571   23570   23572
   23573   23574   23573   23575   23576   23577   23576   23578
   23579   23580   23579   23581   23582   23583   23582   23584
   23585   23586   23585   23587   23588   23589   23588   23590
   23591   23592   23591   23593   23594   23595   23594   23596
   23597   23598   23597   23599   23600   23601   23600   23602
   23603   23604   23603   23605   23606   23607   23606   23608
   23609   23610   23609   23611   23612   23613   23612   23614
   23615   23616   23615   23617   23618   23619   23618   23620
   23621   23622   23621   23623   23624   23625   23624   23626
   23627   23628   23627   23629   23630   23631   23630   23632
   23633   23634   23633   23635   23636   23637   23636   23638
   23639   23640   23639   23641   23642   23643   23642   23644
   23645   23646   23645   23647   23648   23649   23648   23650
   23651   23652   23651   23653   23654   23655   23654   23656
   23657   23658   23657   23659   23660   23661   23660   23662
   23663   23664   23663   23665   23666   23667   23666   23668
   23669   23670   23669   23671   23672   23673   23672   23674
   23675   23676   23675   23677   23678   23679   23678   23680
   23681   23682   23681   23683   23684   23685   23684   23686
   23687   23688   23687   23689   23690   23691   23690   23692
   23693   23694   23693   23695   23696   23697   23696   23698
   23699   23700   23699   23701   23702   23703   23702   23704
   23705   23706   23705   23707   23708   23709   23708   23710
   23711   23712   23711   23713   23714   23715   23714   23716
   23717   23718   23717   23719   23720   23721   23720   23722
   23723   23724   23723   23725   23726   23727   23726   23728
   23729   23730   23729   23731   23732   23733   23732   23734
   23735   23736   23735   23737   23738   23739   23738   23740
   23741   23742   23741   23743   23744   23745   23744   23746
   23747   23748   23747   23749   23750   23751   23750   23752
   23753   23754   23753   23755   23756   23757   23756   23758
   23759   23760   23759   23761   23762   23763   23762   23764
   23765   23766   23765   23767   23768   23769   23768   23770
   23771   23772   23771   23773   23774   23775   23774   23776
   23777   23778   23777   23779   23780   23781   23780   23782
   23783   23784   23783   23785   23786   23787   23786   23788
   23789   23790   23789   23791   23792   23793   23792   23794
   23795   23796   23795   23797   23798   23799   23798   23800
   23801   23802   23801   23803   23804   23805   23804   23806
   23807   23808   23807   23809   23810   23811   23810   23812
   23813   23814   23813   23815   23816   23817   23816   23818
   23819   23820   23819   23821   23822   23823   23822   23824
   23825   23826   23825   23827   23828   23829   23828   23830
   23831   23832   23831   23833   23834   23835   23834   23836
   23837   23838   23837   23839   23840   23841   23840   23842
   23843   23844   23843   23845   23846   23847   23846   23848
   23849   23850   23849   23851   23852   23853   23852   23854
   23855   23856   23855   23857   23858   23859   23858   23860
   23861   23862   23861   23863   23864   23865   23864   23866
   23867   23868   23867   23869   23870   23871   23870   23872
   23873   23874   23873   23875   23876   23877   23876   23878
   23879   23880   23879   23881   23882   23883   23882   23884
   23885   23886   23885   23887   23888   23889   23888   23890
   23891   23892   23891   23893   23894   23895   23894   23896
   23897   23898   23897   23899   23900   23901   23900   23902
   23903   23904   23903   23905   23906   23907   23906   23908
   23909   23910   23909   23911   23912   23913   23912   23914
   23915   23916   23915   23917   23918   23919   23918   23920
   23921   23922   23921   23923   23924   23925   23924   23926
   23927   23928   23927   23929   23930   23931   23930   23932
   23933   23934   23933   23935   23936   23937   23936   23938
   23939   23940   23939   23941   23942   23943   23942   23944
   23945   23946   23945   23947   23948   23949   23948   23950
   23951   23952   23951   23953   23954   23955   23954   23956
   23957   23958   23957   23959   23960   23961   23960   23962
   23963   23964   23963   23965   23966   23967   23966   23968
   23969   23970   23969   23971   23972   23973   23972   23974
   23975   23976   23975   23977   23978   23979   23978   23980
   23981   23982   23981   23983   23984   23985   23984   23986
   23987   23988   23987   23989   23990   23991   23990   23992
   23993   23994   23993   23995   23996   23997   23996   23998
   23999   24000   23999   24001   24002   24003   24002   24004
   24005   24006   24005   24007   24008   24009   24008   24010
   24011   24012   24011   24013   24014   24015   24014   24016
   24017   24018   24017   24019   24020   24021   24020   24022
   24023   24024   24023   24025   24026   24027   24026   24028
   24029   24030   24029   24031   24032   24033   24032   24034
   24035   24036   24035   24037   24038   24039   24038   24040
   24041   24042   24041   24043   24044   24045   24044   24046
   24047   24048   24047   24049   24050   24051   24050   24052
   24053   24054   24053   24055   24056   24057   24056   24058
   24059   24060   24059   24061   24062   24063   24062   24064
   24065   24066   24065   24067   24068   24069   24068   24070
   24071   24072   24071   24073   24074   24075   24074   24076
   24077   24078   24077   24079   24080   24081   24080   24082
   24083   24084   24083   24085   24086   24087   24086   24088
   24089   24090   24089   24091   24092   24093   24092   24094
   24095   24096   24095   24097   24098   24099   24098   24100
   24101   24102   24101   24103   24104   24105   24104   24106
   24107   24108   24107   24109   24110   24111   24110   24112
   24113   24114   24113   24115   24116   24117   24116   24118
   24119   24120   24119   24121   24122   24123   24122   24124
   24125   24126   24125   24127   24128   24129   24128   24130
   24131   24132   24131   24133   24134   24135   24134   24136
   24137   24138   24137   24139   24140   24141   24140   24142
   24143   24144   24143   24145   24146   24147   24146   24148
   24149   24150   24149   24151   24152   24153   24152   24154
   24155   24156   24155   24157   24158   24159   24158   24160
   24161   24162   24161   24163   24164   24165   24164   24166
   24167   24168   24167   24169   24170   24171   24170   24172
   24173   24174   24173   24175   24176   24177   24176   24178
   24179   24180   24179   24181   24182   24183   24182   24184
   24185   24186   24185   24187   24188   24189   24188   24190
   24191   24192   24191   24193   24194   24195   24194   24196
   24197   24198   24197   24199   24200   24201   24200   24202
   24203   24204   24203   24205   24206   24207   24206   24208
   24209   24210   24209   24211   24212   24213   24212   24214
   24215   24216   24215   24217   24218   24219   24218   24220
   24221   24222   24221   24223   24224   24225   24224   24226
   24227   24228   24227   24229   24230   24231   24230   24232
   24233   24234   24233   24235   24236   24237   24236   24238
   24239   24240   24239   24241   24242   24243   24242   24244
   24245   24246   24245   24247   24248   24249   24248   24250
   24251   24252   24251   24253   24254   24255   24254   24256
   24257   24258   24257   24259   24260   24261   24260   24262
   24263   24264   24263   24265   24266   24267   24266   24268
   24269   24270   24269   24271   24272   24273   24272   24274
   24275   24276   24275   24277   24278   24279   24278   24280
   24281   24282   24281   24283   24284   24285   24284   24286
   24287   24288   24287   24289   24290   24291   24290   24292
   24293   24294   24293   24295   24296   24297   24296   24298
   24299   24300   24299   24301   24302   24303   24302   24304
   24305   24306   24305   24307   24308   24309   24308   24310
   24311   24312   24311   24313   24314   24315   24314   24316
   24317   24318   24317   24319   24320   24321   24320   24322
   24323   24324   24323   24325   24326   24327   24326   24328
   24329   24330   24329   24331   24332   24333   24332   24334
   24335   24336   24335   24337   24338   24339   24338   24340
   24341   24342   24341   24343   24344   24345   24344   24346
   24347   24348   24347   24349   24350   24351   24350   24352
   24353   24354   24353   24355   24356   24357   24356   24358
   24359   24360   24359   24361   24362   24363   24362   24364
   24365   24366   24365   24367   24368   24369   24368   24370
   24371   24372   24371   24373   24374   24375   24374   24376
   24377   24378   24377   24379   24380   24381   24380   24382
   24383   24384   24383   24385   24386   24387   24386   24388
   24389   24390   24389   24391   24392   24393   24392   24394
   24395   24396   24395   24397   24398   24399   24398   24400
   24401   24402   24401   24403   24404   24405   24404   24406
   24407   24408   24407   24409   24410   24411   24410   24412
   24413   24414   24413   24415   24416   24417   24416   24418
   24419   24420   24419   24421   24422   24423   24422   24424
   24425   24426   24425   24427   24428   24429   24428   24430
   24431   24432   24431   24433   24434   24435   24434   24436
   24437   24438   24437   24439   24440   24441   24440   24442
   24443   24444   24443   24445   24446   24447   24446   24448
   24449   24450   24449   24451   24452   24453   24452   24454
   24455   24456   24455   24457   24458   24459   24458   24460
   24461   24462   24461   24463   24464   24465   24464   24466
   24467   24468   24467   24469   24470   24471   24470   24472
   24473   24474   24473   24475   24476   24477   24476   24478
   24479   24480   24479   24481   24482   24483   24482   24484
   24485   24486   24485   24487   24488   24489   24488   24490
   24491   24492   24491   24493   24494   24495   24494   24496
   24497   24498   24497   24499   24500   24501   24500   24502
   24503   24504   24503   24505   24506   24507   24506   24508
   24509   24510   24509   24511   24512   24513   24512   24514
   24515   24516   24515   24517   24518   24519   24518   24520
   24521   24522   24521   24523   24524   24525   24524   24526
   24527   24528   24527   24529   24530   24531   24530   24532
   24533   24534   24533   24535   24536   24537   24536   24538
   24539   24540   24539   24541   24542   24543   24542   24544
   24545   24546   24545   24547   24548   24549   24548   24550
   24551   24552   24551   24553   24554   24555   24554   24556
   24557   24558   24557   24559   24560   24561   24560   24562
   24563   24564   24563   24565   24566   24567   24566   24568
   24569   24570   24569   24571   24572   24573   24572   24574
   24575   24576   24575   24577   24578   24579   24578   24580
   24581   24582   24581   24583   24584   24585   24584   24586
   24587   24588   24587   24589   24590   24591   24590   24592
   24593   24594   24593   24595   24596   24597   24596   24598
   24599   24600   24599   24601   24602   24603   24602   24604
   24605   24606   24605   24607   24608   24609   24608   24610
   24611   24612   24611   24613   24614   24615   24614   24616
   24617   24618   24617   24619   24620   24621   24620   24622
   24623   24624   24623   24625   24626   24627   24626   24628
   24629   24630   24629   24631   24632   24633   24632   24634
   24635   24636   24635   24637   24638   24639   24638   24640
   24641   24642   24641   24643   24644   24645   24644   24646
   24647   24648   24647   24649   24650   24651   24650   24652
   24653   24654   24653   24655   24656   24657   24656   24658
   24659   24660   24659   24661   24662   24663   24662   24664
   24665   24666   24665   24667   24668   24669   24668   24670
   24671   24672   24671   24673   24674   24675   24674   24676
   24677   24678   24677   24679   24680   24681   24680   24682
   24683   24684   24683   24685   24686   24687   24686   24688
   24689   24690   24689   24691   24692   24693   24692   24694
   24695   24696   24695   24697   24698   24699   24698   24700
   24701   24702   24701   24703   24704   24705   24704   24706
   24707   24708   24707   24709   24710   24711   24710   24712
   24713   24714   24713   24715   24716   24717   24716   24718
   24719   24720   24719   24721   24722   24723   24722   24724
   24725   24726   24725   24727   24728   24729   24728   24730
   24731   24732   24731   24733   24734   24735   24734   24736
   24737   24738   24737   24739   24740   24741   24740   24742
   24743   24744   24743   24745   24746   24747   24746   24748
   24749   24750   24749   24751   24752   24753   24752   24754
   24755   24756   24755   24757   24758   24759   24758   24760
   24761   24762   24761   24763   24764   24765   24764   24766
   24767   24768   24767   24769   24770   24771   24770   24772
   24773   24774   24773   24775   24776   24777   24776   24778
   24779   24780   24779   24781   24782   24783   24782   24784
   24785   24786   24785   24787   24788   24789   24788   24790
   24791   24792   24791   24793   24794   24795   24794   24796
   24797   24798   24797   24799   24800   24801   24800   24802
   24803   24804   24803   24805   24806   24807   24806   24808
   24809   24810   24809   24811   24812   24813   24812   24814
   24815   24816   24815   24817   24818   24819   24818   24820
   24821   24822   24821   24823   24824   24825   24824   24826
   24827   24828   24827   24829   24830   24831   24830   24832
   24833   24834   24833   24835   24836   24837   24836   24838
   24839   24840   24839   24841   24842   24843   24842   24844
   24845   24846   24845   24847   24848   24849   24848   24850
   24851   24852   24851   24853   24854   24855   24854   24856
   24857   24858   24857   24859   24860   24861   24860   24862
   24863   24864   24863   24865   24866   24867   24866   24868
   24869   24870   24869   24871   24872   24873   24872   24874
   24875   24876   24875   24877   24878   24879   24878   24880
   24881   24882   24881   24883   24884   24885   24884   24886
   24887   24888   24887   24889   24890   24891   24890   24892
   24893   24894   24893   24895   24896   24897   24896   24898
   24899   24900   24899   24901   24902   24903   24902   24904
   24905   24906   24905   24907   24908   24909   24908   24910
   24911   24912   24911   24913   24914   24915   24914   24916
   24917   24918   24917   24919   24920   24921   24920   24922
   24923   24924   24923   24925   24926   24927   24926   24928
   24929   24930   24929   24931   24932   24933   24932   24934
   24935   24936   24935   24937   24938   24939   24938   24940
   24941   24942   24941   24943   24944   24945   24944   24946
   24947   24948   24947   24949   24950   24951   24950   24952
   24953   24954   24953   24955   24956   24957   24956   24958
   24959   24960   24959   24961   24962   24963   24962   24964
   24965   24966   24965   24967   24968   24969   24968   24970
   24971   24972   24971   24973   24974   24975   24974   24976
   24977   24978   24977   24979   24980   24981   24980   24982
   24983   24984   24983   24985   24986   24987   24986   24988
   24989   24990   24989   24991   24992   24993   24992   24994
   24995   24996   24995   24997   24998   24999   24998   25000
   25001   25002   25001   25003   25004   25005   25004   25006
   25007   25008   25007   25009   25010   25011   25010   25012
   25013   25014   25013   25015   25016   25017   25016   25018
   25019   25020   25019   25021   25022   25023   25022   25024
   25025   25026   25025   25027   25028   25029   25028   25030
   25031   25032   25031   25033   25034   25035   25034   25036
   25037   25038   25037   25039   25040   25041   25040   25042
   25043   25044   25043   25045   25046   25047   25046   25048
   25049   25050   25049   25051   25052   25053   25052   25054
   25055   25056   25055   25057   25058   25059   25058   25060
   25061   25062   25061   25063   25064   25065   25064   25066
   25067   25068   25067   25069   25070   25071   25070   25072
   25073   25074   25073   25075   25076   25077   25076   25078
   25079   25080   25079   25081   25082   25083   25082   25084
   25085   25086   25085   25087   25088   25089   25088   25090
   25091   25092   25091   25093   25094   25095   25094   25096
   25097   25098   25097   25099   25100   25101   25100   25102
   25103   25104   25103   25105   25106   25107   25106   25108
   25109   25110   25109   25111   25112   25113   25112   25114
   25115   25116   25115   25117   25118   25119   25118   25120
   25121   25122   25121   25123   25124   25125   25124   25126
   25127   25128   25127   25129   25130   25131   25130   25132
   25133   25134   25133   25135   25136   25137   25136   25138
   25139   25140   25139   25141   25142   25143   25142   25144
   25145   25146   25145   25147   25148   25149   25148   25150
   25151   25152   25151   25153   25154   25155   25154   25156
   25157   25158   25157   25159   25160   25161   25160   25162
   25163   25164   25163   25165   25166   25167   25166   25168
   25169   25170   25169   25171   25172   25173   25172   25174
   25175   25176   25175   25177   25178   25179   25178   25180
   25181   25182   25181   25183   25184   25185   25184   25186
   25187   25188   25187   25189   25190   25191   25190   25192
   25193   25194   25193   25195   25196   25197   25196   25198
   25199   25200   25199   25201   25202   25203   25202   25204
   25205   25206   25205   25207   25208   25209   25208   25210
   25211   25212   25211   25213   25214   25215   25214   25216
   25217   25218   25217   25219   25220   25221   25220   25222
   25223   25224   25223   25225   25226   25227   25226   25228
   25229   25230   25229   25231   25232   25233   25232   25234
   25235   25236   25235   25237   25238   25239   25238   25240
   25241   25242   25241   25243   25244   25245   25244   25246
   25247   25248   25247   25249   25250   25251   25250   25252
   25253   25254   25253   25255   25256   25257   25256   25258
   25259   25260   25259   25261   25262   25263   25262   25264
   25265   25266   25265   25267   25268   25269   25268   25270
   25271   25272   25271   25273   25274   25275   25274   25276
   25277   25278   25277   25279   25280   25281   25280   25282
   25283   25284   25283   25285   25286   25287   25286   25288
   25289   25290   25289   25291   25292   25293   25292   25294
   25295   25296   25295   25297   25298   25299   25298   25300
   25301   25302   25301   25303   25304   25305   25304   25306
   25307   25308   25307   25309   25310   25311   25310   25312
   25313   25314   25313   25315   25316   25317   25316   25318
   25319   25320   25319   25321   25322   25323   25322   25324
   25325   25326   25325   25327   25328   25329   25328   25330
   25331   25332   25331   25333   25334   25335   25334   25336
   25337   25338   25337   25339   25340   25341   25340   25342
   25343   25344   25343   25345   25346   25347   25346   25348
   25349   25350   25349   25351   25352   25353   25352   25354
   25355   25356   25355   25357   25358   25359   25358   25360
   25361   25362   25361   25363   25364   25365   25364   25366
   25367   25368   25367   25369   25370   25371   25370   25372
   25373   25374   25373   25375   25376   25377   25376   25378
   25379   25380   25379   25381   25382   25383   25382   25384
   25385   25386   25385   25387   25388   25389   25388   25390
   25391   25392   25391   25393   25394   25395   25394   25396
   25397   25398   25397   25399   25400   25401   25400   25402
   25403   25404   25403   25405   25406   25407   25406   25408
   25409   25410   25409   25411   25412   25413   25412   25414
   25415   25416   25415   25417   25418   25419   25418   25420
   25421   25422   25421   25423   25424   25425   25424   25426
   25427   25428   25427   25429   25430   25431   25430   25432
   25433   25434   25433   25435   25436   25437   25436   25438
   25439   25440   25439   25441   25442   25443   25442   25444
   25445   25446   25445   25447   25448   25449   25448   25450
   25451   25452   25451   25453   25454   25455   25454   25456
   25457   25458   25457   25459   25460   25461   25460   25462
   25463   25464   25463   25465   25466   25467   25466   25468
   25469   25470   25469   25471   25472   25473   25472   25474
   25475   25476   25475   25477   25478   25479   25478   25480
   25481   25482   25481   25483   25484   25485   25484   25486
   25487   25488   25487   25489   25490   25491   25490   25492
   25493   25494   25493   25495   25496   25497   25496   25498
   25499   25500   25499   25501   25502   25503   25502   25504
   25505   25506   25505   25507   25508   25509   25508   25510
   25511   25512   25511   25513   25514   25515   25514   25516
   25517   25518   25517   25519   25520   25521   25520   25522
   25523   25524   25523   25525   25526   25527   25526   25528
   25529   25530   25529   25531   25532   25533   25532   25534
   25535   25536   25535   25537   25538   25539   25538   25540
   25541   25542   25541   25543   25544   25545   25544   25546
   25547   25548   25547   25549   25550   25551   25550   25552
   25553   25554   25553   25555   25556   25557   25556   25558
   25559   25560   25559   25561   25562   25563   25562   25564
   25565   25566   25565   25567   25568   25569   25568   25570
   25571   25572   25571   25573   25574   25575   25574   25576
   25577   25578   25577   25579   25580   25581   25580   25582
   25583   25584   25583   25585   25586   25587   25586   25588
   25589   25590   25589   25591   25592   25593   25592   25594
   25595   25596   25595   25597   25598   25599   25598   25600
   25601   25602   25601   25603   25604   25605   25604   25606
   25607   25608   25607   25609   25610   25611   25610   25612
   25613   25614   25613   25615   25616   25617   25616   25618
   25619   25620   25619   25621   25622   25623   25622   25624
   25625   25626   25625   25627   25628   25629   25628   25630
   25631   25632   25631   25633   25634   25635   25634   25636
   25637   25638   25637   25639   25640   25641   25640   25642
   25643   25644   25643   25645   25646   25647   25646   25648
   25649   25650   25649   25651   25652   25653   25652   25654
   25655   25656   25655   25657   25658   25659   25658   25660
   25661   25662   25661   25663   25664   25665   25664   25666
   25667   25668   25667   25669   25670   25671   25670   25672
   25673   25674   25673   25675   25676   25677   25676   25678
   25679   25680   25679   25681   25682   25683   25682   25684
   25685   25686   25685   25687   25688   25689   25688   25690
   25691   25692   25691   25693   25694   25695   25694   25696
   25697   25698   25697   25699   25700   25701   25700   25702
   25703   25704   25703   25705   25706   25707   25706   25708
   25709   25710   25709   25711   25712   25713   25712   25714
   25715   25716   25715   25717   25718   25719   25718   25720
   25721   25722   25721   25723   25724   25725   25724   25726
   25727   25728   25727   25729   25730   25731   25730   25732
   25733   25734   25733   25735   25736   25737   25736   25738
   25739   25740   25739   25741   25742   25743   25742   25744
   25745   25746   25745   25747   25748   25749   25748   25750
   25751   25752   25751   25753   25754   25755   25754   25756
   25757   25758   25757   25759   25760   25761   25760   25762
   25763   25764   25763   25765   25766   25767   25766   25768
   25769   25770   25769   25771   25772   25773   25772   25774
   25775   25776   25775   25777   25778   25779   25778   25780
   25781   25782   25781   25783   25784   25785   25784   25786
   25787   25788   25787   25789   25790   25791   25790   25792
   25793   25794   25793   25795   25796   25797   25796   25798
   25799   25800   25799   25801   25802   25803   25802   25804
   25805   25806   25805   25807   25808   25809   25808   25810
   25811   25812   25811   25813   25814   25815   25814   25816
   25817   25818   25817   25819   25820   25821   25820   25822
   25823   25824   25823   25825   25826   25827   25826   25828
   25829   25830   25829   25831   25832   25833   25832   25834
   25835   25836   25835   25837   25838   25839   25838   25840
   25841   25842   25841   25843   25844   25845   25844   25846
   25847   25848   25847   25849   25850   25851   25850   25852
   25853   25854   25853   25855   25856   25857   25856   25858
   25859   25860   25859   25861   25862   25863   25862   25864
   25865   25866   25865   25867   25868   25869   25868   25870
   25871   25872   25871   25873   25874   25875   25874   25876
   25877   25878   25877   25879   25880   25881   25880   25882
   25883   25884   25883   25885   25886   25887   25886   25888
   25889   25890   25889   25891   25892   25893   25892   25894
   25895   25896   25895   25897   25898   25899   25898   25900
   25901   25902   25901   25903   25904   25905   25904   25906
   25907   25908   25907   25909   25910   25911   25910   25912
   25913   25914   25913   25915   25916   25917   25916   25918
   25919   25920   25919   25921   25922   25923   25922   25924
   25925   25926   25925   25927   25928   25929   25928   25930
   25931   25932   25931   25933   25934   25935   25934   25936
   25937   25938   25937   25939   25940   25941   25940   25942
   25943   25944   25943   25945   25946   25947   25946   25948
   25949   25950   25949   25951   25952   25953   25952   25954
   25955   25956   25955   25957   25958   25959   25958   25960
   25961   25962   25961   25963   25964   25965   25964   25966
   25967   25968   25967   25969   25970   25971   25970   25972
   25973   25974   25973   25975   25976   25977   25976   25978
   25979   25980   25979   25981   25982   25983   25982   25984
   25985   25986   25985   25987   25988   25989   25988   25990
   25991   25992   25991   25993   25994   25995   25994   25996
   25997   25998   25997   25999   26000   26001   26000   26002
   26003   26004   26003   26005   26006   26007   26006   26008
   26009   26010   26009   26011   26012   26013   26012   26014
   26015   26016   26015   26017   26018   26019   26018   26020
   26021   26022   26021   26023   26024   26025   26024   26026
   26027   26028   26027   26029   26030   26031   26030   26032
   26033   26034   26033   26035   26036   26037   26036   26038
   26039   26040   26039   26041   26042   26043   26042   26044
   26045   26046   26045   26047   26048   26049   26048   26050
   26051   26052   26051   26053   26054   26055   26054   26056
   26057   26058   26057   26059   26060   26061   26060   26062
   26063   26064   26063   26065   26066   26067   26066   26068
   26069   26070   26069   26071   26072   26073   26072   26074
   26075   26076   26075   26077   26078   26079   26078   26080
   26081   26082   26081   26083   26084   26085   26084   26086
   26087   26088   26087   26089   26090   26091   26090   26092
   26093   26094   26093   26095   26096   26097   26096   26098
   26099   26100   26099   26101   26102   26103   26102   26104
   26105   26106   26105   26107   26108   26109   26108   26110
   26111   26112   26111   26113   26114   26115   26114   26116
   26117   26118   26117   26119   26120   26121   26120   26122
   26123   26124   26123   26125   26126   26127   26126   26128
   26129   26130   26129   26131   26132   26133   26132   26134
   26135   26136   26135   26137   26138   26139   26138   26140
   26141   26142   26141   26143   26144   26145   26144   26146
   26147   26148   26147   26149   26150   26151   26150   26152
   26153   26154   26153   26155   26156   26157   26156   26158
   26159   26160   26159   26161   26162   26163   26162   26164
   26165   26166   26165   26167   26168   26169   26168   26170
   26171   26172   26171   26173   26174   26175   26174   26176
   26177   26178   26177   26179   26180   26181   26180   26182
   26183   26184   26183   26185   26186   26187   26186   26188
   26189   26190   26189   26191   26192   26193   26192   26194
   26195   26196   26195   26197   26198   26199   26198   26200
   26201   26202   26201   26203   26204   26205   26204   26206
   26207   26208   26207   26209   26210   26211   26210   26212
   26213   26214   26213   26215   26216   26217   26216   26218
   26219   26220   26219   26221   26222   26223   26222   26224
   26225   26226   26225   26227   26228   26229   26228   26230
   26231   26232   26231   26233   26234   26235   26234   26236
   26237   26238   26237   26239   26240   26241   26240   26242
   26243   26244   26243   26245   26246   26247   26246   26248
   26249   26250   26249   26251   26252   26253   26252   26254
   26255   26256   26255   26257   26258   26259   26258   26260
   26261   26262   26261   26263   26264   26265   26264   26266
   26267   26268   26267   26269   26270   26271   26270   26272
   26273   26274   26273   26275   26276   26277   26276   26278
   26279   26280   26279   26281   26282   26283   26282   26284
   26285   26286   26285   26287   26288   26289   26288   26290
   26291   26292   26291   26293   26294   26295   26294   26296
   26297   26298   26297   26299   26300   26301   26300   26302
   26303   26304   26303   26305   26306   26307   26306   26308
   26309   26310   26309   26311   26312   26313   26312   26314
   26315   26316   26315   26317   26318   26319   26318   26320
   26321   26322   26321   26323   26324   26325   26324   26326
   26327   26328   26327   26329   26330   26331   26330   26332
   26333   26334   26333   26335   26336   26337   26336   26338
   26339   26340   26339   26341   26342   26343   26342   26344
   26345   26346   26345   26347   26348   26349   26348   26350
   26351   26352   26351   26353   26354   26355   26354   26356
   26357   26358   26357   26359   26360   26361   26360   26362
   26363   26364   26363   26365   26366   26367   26366   26368
   26369   26370   26369   26371   26372   26373   26372   26374
   26375   26376   26375   26377   26378   26379   26378   26380
   26381   26382   26381   26383   26384   26385   26384   26386
   26387   26388   26387   26389   26390   26391   26390   26392
   26393   26394   26393   26395   26396   26397   26396   26398
   26399   26400   26399   26401   26402   26403   26402   26404
   26405   26406   26405   26407   26408   26409   26408   26410
   26411   26412   26411   26413   26414   26415   26414   26416
   26417   26418   26417   26419   26420   26421   26420   26422
   26423   26424   26423   26425   26426   26427   26426   26428
   26429   26430   26429   26431   26432   26433   26432   26434
   26435   26436   26435   26437   26438   26439   26438   26440
   26441   26442   26441   26443   26444   26445   26444   26446
   26447   26448   26447   26449   26450   26451   26450   26452
   26453   26454   26453   26455   26456   26457   26456   26458
   26459   26460   26459   26461   26462   26463   26462   26464
   26465   26466   26465   26467   26468   26469   26468   26470
   26471   26472   26471   26473   26474   26475   26474   26476
   26477   26478   26477   26479   26480   26481   26480   26482
   26483   26484   26483   26485   26486   26487   26486   26488
   26489   26490   26489   26491   26492   26493   26492   26494
   26495   26496   26495   26497   26498   26499   26498   26500
   26501   26502   26501   26503   26504   26505   26504   26506
   26507   26508   26507   26509   26510   26511   26510   26512
   26513   26514   26513   26515   26516   26517   26516   26518
   26519   26520   26519   26521   26522   26523   26522   26524
   26525   26526   26525   26527   26528   26529   26528   26530
   26531   26532   26531   26533   26534   26535   26534   26536
   26537   26538   26537   26539   26540   26541   26540   26542
   26543   26544   26543   26545   26546   26547   26546   26548
   26549   26550   26549   26551   26552   26553   26552   26554
   26555   26556   26555   26557   26558   26559   26558   26560
   26561   26562   26561   26563   26564   26565   26564   26566
   26567   26568   26567   26569   26570   26571   26570   26572
   26573   26574   26573   26575   26576   26577   26576   26578
   26579   26580   26579   26581   26582   26583   26582   26584
   26585   26586   26585   26587   26588   26589   26588   26590
   26591   26592   26591   26593   26594   26595   26594   26596
   26597   26598   26597   26599   26600   26601   26600   26602
   26603   26604   26603   26605   26606   26607   26606   26608
   26609   26610   26609   26611   26612   26613   26612   26614
   26615   26616   26615   26617   26618   26619   26618   26620
   26621   26622   26621   26623   26624   26625   26624   26626
   26627   26628   26627   26629   26630   26631   26630   26632
   26633   26634   26633   26635   26636   26637   26636   26638
   26639   26640   26639   26641   26642   26643   26642   26644
   26645   26646   26645   26647   26648   26649   26648   26650
   26651   26652   26651   26653   26654   26655   26654   26656
   26657   26658   26657   26659   26660   26661   26660   26662
   26663   26664   26663   26665   26666   26667   26666   26668
   26669   26670   26669   26671   26672   26673   26672   26674
   26675   26676   26675   26677   26678   26679   26678   26680
   26681   26682   26681   26683   26684   26685   26684   26686
   26687   26688   26687   26689   26690   26691   26690   26692
   26693   26694   26693   26695   26696   26697   26696   26698
   26699   26700   26699   26701   26702   26703   26702   26704
   26705   26706   26705   26707   26708   26709   26708   26710
   26711   26712   26711   26713   26714   26715   26714   26716
   26717   26718   26717   26719   26720   26721   26720   26722
   26723   26724   26723   26725   26726   26727   26726   26728
   26729   26730   26729   26731   26732   26733   26732   26734
   26735   26736   26735   26737   26738   26739   26738   26740
   26741   26742   26741   26743   26744   26745   26744   26746
   26747   26748   26747   26749   26750   26751   26750   26752
   26753   26754   26753   26755   26756   26757   26756   26758
   26759   26760   26759   26761   26762   26763   26762   26764
   26765   26766   26765   26767   26768   26769   26768   26770
   26771   26772   26771   26773   26774   26775   26774   26776
   26777   26778   26777   26779   26780   26781   26780   26782
   26783   26784   26783   26785   26786   26787   26786   26788
   26789   26790   26789   26791   26792   26793   26792   26794
   26795   26796   26795   26797   26798   26799   26798   26800
   26801   26802   26801   26803   26804   26805   26804   26806
   26807   26808   26807   26809   26810   26811   26810   26812
   26813   26814   26813   26815   26816   26817   26816   26818
   26819   26820   26819   26821   26822   26823   26822   26824
   26825   26826   26825   26827   26828   26829   26828   26830
   26831   26832   26831   26833   26834   26835   26834   26836
   26837   26838   26837   26839   26840   26841   26840   26842
   26843   26844   26843   26845   26846   26847   26846   26848
   26849   26850   26849   26851   26852   26853   26852   26854
   26855   26856   26855   26857   26858   26859   26858   26860
   26861   26862   26861   26863   26864   26865   26864   26866
   26867   26868   26867   26869   26870   26871   26870   26872
   26873   26874   26873   26875   26876   26877   26876   26878
   26879   26880   26879   26881   26882   26883   26882   26884
   26885   26886   26885   26887   26888   26889   26888   26890
   26891   26892   26891   26893   26894   26895   26894   26896
   26897   26898   26897   26899   26900   26901   26900   26902
   26903   26904   26903   26905   26906   26907   26906   26908
   26909   26910   26909   26911   26912   26913   26912   26914
   26915   26916   26915   26917   26918   26919   26918   26920
   26921   26922   26921   26923   26924   26925   26924   26926
   26927   26928   26927   26929   26930   26931   26930   26932
   26933   26934   26933   26935   26936   26937   26936   26938
   26939   26940   26939   26941   26942   26943   26942   26944
   26945   26946   26945   26947   26948   26949   26948   26950
   26951   26952   26951   26953   26954   26955   26954   26956
   26957   26958   26957   26959   26960   26961   26960   26962
   26963   26964   26963   26965   26966   26967   26966   26968
   26969   26970   26969   26971   26972   26973   26972   26974
   26975   26976   26975   26977   26978   26979   26978   26980
   26981   26982   26981   26983   26984   26985   26984   26986
   26987   26988   26987   26989   26990   26991   26990   26992
   26993   26994   26993   26995   26996   26997   26996   26998
   26999   27000   26999   27001   27002   27003   27002   27004
   27005   27006   27005   27007   27008   27009   27008   27010
   27011   27012   27011   27013   27014   27015   27014   27016
   27017   27018   27017   27019   27020   27021   27020   27022
   27023   27024   27023   27025   27026   27027   27026   27028
   27029   27030   27029   27031   27032   27033   27032   27034
   27035   27036   27035   27037   27038   27039   27038   27040
   27041   27042   27041   27043   27044   27045   27044   27046
   27047   27048   27047   27049   27050   27051   27050   27052
   27053   27054   27053   27055   27056   27057   27056   27058
   27059   27060   27059   27061   27062   27063   27062   27064
   27065   27066   27065   27067   27068   27069   27068   27070
   27071   27072   27071   27073   27074   27075   27074   27076
   27077   27078   27077   27079   27080   27081   27080   27082
   27083   27084   27083   27085   27086   27087   27086   27088
   27089   27090   27089   27091   27092   27093   27092   27094
   27095   27096   27095   27097   27098   27099   27098   27100
   27101   27102   27101   27103   27104   27105   27104   27106
   27107   27108   27107   27109   27110   27111   27110   27112
   27113   27114   27113   27115   27116   27117   27116   27118
   27119   27120   27119   27121   27122   27123   27122   27124
   27125   27126   27125   27127   27128   27129   27128   27130
   27131   27132   27131   27133   27134   27135   27134   27136
   27137   27138   27137   27139   27140   27141   27140   27142
   27143   27144   27143   27145   27146   27147   27146   27148
   27149   27150   27149   27151   27152   27153   27152   27154
   27155   27156   27155   27157   27158   27159   27158   27160
   27161   27162   27161   27163   27164   27165   27164   27166
   27167   27168   27167   27169   27170   27171   27170   27172
   27173   27174   27173   27175   27176   27177   27176   27178
   27179   27180   27179   27181   27182   27183   27182   27184
   27185   27186   27185   27187   27188   27189   27188   27190
   27191   27192   27191   27193   27194   27195   27194   27196
   27197   27198   27197   27199   27200   27201   27200   27202
   27203   27204   27203   27205   27206   27207   27206   27208
   27209   27210   27209   27211   27212   27213   27212   27214
   27215   27216   27215   27217   27218   27219   27218   27220
   27221   27222   27221   27223   27224   27225   27224   27226
   27227   27228   27227   27229   27230   27231   27230   27232
   27233   27234   27233   27235   27236   27237   27236   27238
   27239   27240   27239   27241   27242   27243   27242   27244
   27245   27246   27245   27247   27248   27249   27248   27250
   27251   27252   27251   27253   27254   27255   27254   27256
   27257   27258   27257   27259   27260   27261   27260   27262
   27263   27264   27263   27265   27266   27267   27266   27268
   27269   27270   27269   27271   27272   27273   27272   27274
   27275   27276   27275   27277   27278   27279   27278   27280
   27281   27282   27281   27283   27284   27285   27284   27286
   27287   27288   27287   27289   27290   27291   27290   27292
   27293   27294   27293   27295   27296   27297   27296   27298
   27299   27300   27299   27301   27302   27303   27302   27304
   27305   27306   27305   27307   27308   27309   27308   27310
   27311   27312   27311   27313   27314   27315   27314   27316
   27317   27318   27317   27319   27320   27321   27320   27322
   27323   27324   27323   27325   27326   27327   27326   27328
   27329   27330   27329   27331   27332   27333   27332   27334
   27335   27336   27335   27337   27338   27339   27338   27340
   27341   27342   27341   27343   27344   27345   27344   27346
   27347   27348   27347   27349   27350   27351   27350   27352
   27353   27354   27353   27355   27356   27357   27356   27358
   27359   27360   27359   27361   27362   27363   27362   27364
   27365   27366   27365   27367   27368   27369   27368   27370
   27371   27372   27371   27373   27374   27375   27374   27376
   27377   27378   27377   27379   27380   27381   27380   27382
   27383   27384   27383   27385   27386   27387   27386   27388
   27389   27390   27389   27391   27392   27393   27392   27394
   27395   27396   27395   27397   27398   27399   27398   27400
   27401   27402   27401   27403   27404   27405   27404   27406
   27407   27408   27407   27409   27410   27411   27410   27412
   27413   27414   27413   27415   27416   27417   27416   27418
   27419   27420   27419   27421   27422   27423   27422   27424
   27425   27426   27425   27427   27428   27429   27428   27430
   27431   27432   27431   27433   27434   27435   27434   27436
   27437   27438   27437   27439   27440   27441   27440   27442
   27443   27444   27443   27445   27446   27447   27446   27448
   27449   27450   27449   27451   27452   27453   27452   27454
   27455   27456   27455   27457   27458   27459   27458   27460
   27461   27462   27461   27463   27464   27465   27464   27466
   27467   27468   27467   27469   27470   27471   27470   27472
   27473   27474   27473   27475   27476   27477   27476   27478
   27479   27480   27479   27481   27482   27483   27482   27484
   27485   27486   27485   27487   27488   27489   27488   27490
   27491   27492   27491   27493   27494   27495   27494   27496
   27497   27498   27497   27499   27500   27501   27500   27502
   27503   27504   27503   27505   27506   27507   27506   27508
   27509   27510   27509   27511   27512   27513   27512   27514
   27515   27516   27515   27517   27518   27519   27518   27520
   27521   27522   27521   27523   27524   27525   27524   27526
   27527   27528   27527   27529   27530   27531   27530   27532
   27533   27534   27533   27535   27536   27537   27536   27538
   27539   27540   27539   27541   27542   27543   27542   27544
   27545   27546   27545   27547   27548   27549   27548   27550
   27551   27552   27551   27553   27554   27555   27554   27556
   27557   27558   27557   27559   27560   27561   27560   27562
   27563   27564   27563   27565   27566   27567   27566   27568
   27569   27570   27569   27571   27572   27573   27572   27574
   27575   27576   27575   27577   27578   27579   27578   27580
   27581   27582   27581   27583   27584   27585   27584   27586
   27587   27588   27587   27589   27590   27591   27590   27592
   27593   27594   27593   27595   27596   27597   27596   27598
   27599   27600   27599   27601   27602   27603   27602   27604
   27605   27606   27605   27607   27608   27609   27608   27610
   27611   27612   27611   27613   27614   27615   27614   27616
   27617   27618   27617   27619   27620   27621   27620   27622
   27623   27624   27623   27625   27626   27627   27626   27628
   27629   27630   27629   27631   27632   27633   27632   27634
   27635   27636   27635   27637   27638   27639   27638   27640
   27641   27642   27641   27643   27644   27645   27644   27646
   27647   27648   27647   27649   27650   27651   27650   27652
   27653   27654   27653   27655   27656   27657   27656   27658
   27659   27660   27659   27661   27662   27663   27662   27664
   27665   27666   27665   27667   27668   27669   27668   27670
   27671   27672   27671   27673   27674   27675   27674   27676
   27677   27678   27677   27679   27680   27681   27680   27682
   27683   27684   27683   27685   27686   27687   27686   27688
   27689   27690   27689   27691   27692   27693   27692   27694
   27695   27696   27695   27697   27698   27699   27698   27700
   27701   27702   27701   27703   27704   27705   27704   27706
   27707   27708   27707   27709   27710   27711   27710   27712
   27713   27714   27713   27715   27716   27717   27716   27718
   27719   27720   27719   27721   27722   27723   27722   27724
   27725   27726   27725   27727   27728   27729   27728   27730
   27731   27732   27731   27733   27734   27735   27734   27736
   27737   27738   27737   27739   27740   27741   27740   27742
   27743   27744   27743   27745   27746   27747   27746   27748
   27749   27750   27749   27751   27752   27753   27752   27754
   27755   27756   27755   27757   27758   27759   27758   27760
   27761   27762   27761   27763   27764   27765   27764   27766
   27767   27768   27767   27769   27770   27771   27770   27772
   27773   27774   27773   27775   27776   27777   27776   27778
   27779   27780   27779   27781   27782   27783   27782   27784
   27785   27786   27785   27787   27788   27789   27788   27790
   27791   27792   27791   27793   27794   27795   27794   27796
   27797   27798   27797   27799   27800   27801   27800   27802
   27803   27804   27803   27805   27806   27807   27806   27808
   27809   27810   27809   27811   27812   27813   27812   27814
   27815   27816   27815   27817   27818   27819   27818   27820
   27821   27822   27821   27823   27824   27825   27824   27826
   27827   27828   27827   27829   27830   27831   27830   27832
   27833   27834   27833   27835   27836   27837   27836   27838
   27839   27840   27839   27841   27842   27843   27842   27844
   27845   27846   27845   27847   27848   27849   27848   27850
   27851   27852   27851   27853   27854   27855   27854   27856
   27857   27858   27857   27859   27860   27861   27860   27862
   27863   27864   27863   27865   27866   27867   27866   27868
   27869   27870   27869   27871   27872   27873   27872   27874
   27875   27876   27875   27877   27878   27879   27878   27880
   27881   27882   27881   27883   27884   27885   27884   27886
   27887   27888   27887   27889   27890   27891   27890   27892
   27893   27894   27893   27895   27896   27897   27896   27898
   27899   27900   27899   27901   27902   27903   27902   27904
   27905   27906   27905   27907   27908   27909   27908   27910
   27911   27912   27911   27913   27914   27915   27914   27916
   27917   27918   27917   27919   27920   27921   27920   27922
   27923   27924   27923   27925   27926   27927   27926   27928
   27929   27930   27929   27931   27932   27933   27932   27934
   27935   27936   27935   27937   27938   27939   27938   27940
   27941   27942   27941   27943   27944   27945   27944   27946
   27947   27948   27947   27949   27950   27951   27950   27952
   27953   27954   27953   27955   27956   27957   27956   27958
   27959   27960   27959   27961   27962   27963   27962   27964
   27965   27966   27965   27967   27968   27969   27968   27970
   27971   27972   27971   27973   27974   27975   27974   27976
   27977   27978   27977   27979   27980   27981   27980   27982
   27983   27984   27983   27985   27986   27987   27986   27988
   27989   27990   27989   27991   27992   27993   27992   27994
   27995   27996   27995   27997   27998   27999   27998   28000
   28001   28002   28001   28003   28004   28005   28004   28006
   28007   28008   28007   28009   28010   28011   28010   28012
   28013   28014   28013   28015   28016   28017   28016   28018
   28019   28020   28019   28021   28022   28023   28022   28024
   28025   28026   28025   28027   28028   28029   28028   28030
   28031   28032   28031   28033   28034   28035   28034   28036
   28037   28038   28037   28039   28040   28041   28040   28042
   28043   28044   28043   28045   28046   28047   28046   28048
   28049   28050   28049   28051   28052   28053   28052   28054
   28055   28056   28055   28057   28058   28059   28058   28060
   28061   28062   28061   28063   28064   28065   28064   28066
   28067   28068   28067   28069   28070   28071   28070   28072
   28073   28074   28073   28075   28076   28077   28076   28078
   28079   28080   28079   28081   28082   28083   28082   28084
   28085   28086   28085   28087   28088   28089   28088   28090
   28091   28092   28091   28093   28094   28095   28094   28096
   28097   28098   28097   28099   28100   28101   28100   28102
   28103   28104   28103   28105   28106   28107   28106   28108
   28109   28110   28109   28111   28112   28113   28112   28114
   28115   28116   28115   28117   28118   28119   28118   28120
   28121   28122   28121   28123   28124   28125   28124   28126
   28127   28128   28127   28129   28130   28131   28130   28132
   28133   28134   28133   28135   28136   28137   28136   28138
   28139   28140   28139   28141   28142   28143   28142   28144
   28145   28146   28145   28147   28148   28149   28148   28150
   28151   28152   28151   28153   28154   28155   28154   28156
   28157   28158   28157   28159   28160   28161   28160   28162
   28163   28164   28163   28165   28166   28167   28166   28168
   28169   28170   28169   28171   28172   28173   28172   28174
   28175   28176   28175   28177   28178   28179   28178   28180
   28181   28182   28181   28183   28184   28185   28184   28186
   28187   28188   28187   28189   28190   28191   28190   28192
   28193   28194   28193   28195   28196   28197   28196   28198
   28199   28200   28199   28201   28202   28203   28202   28204
   28205   28206   28205   28207   28208   28209   28208   28210
   28211   28212   28211   28213   28214   28215   28214   28216
   28217   28218   28217   28219   28220   28221   28220   28222
   28223   28224   28223   28225   28226   28227   28226   28228
   28229   28230   28229   28231   28232   28233   28232   28234
   28235   28236   28235   28237   28238   28239   28238   28240
   28241   28242   28241   28243   28244   28245   28244   28246
   28247   28248   28247   28249   28250   28251   28250   28252
   28253   28254   28253   28255   28256   28257   28256   28258
   28259   28260   28259   28261   28262   28263   28262   28264
   28265   28266   28265   28267   28268   28269   28268   28270
   28271   28272   28271   28273   28274   28275   28274   28276
   28277   28278   28277   28279   28280   28281   28280   28282
   28283   28284   28283   28285   28286   28287   28286   28288
   28289   28290   28289   28291   28292   28293   28292   28294
   28295   28296   28295   28297   28298   28299   28298   28300
   28301   28302   28301   28303   28304   28305   28304   28306
   28307   28308   28307   28309   28310   28311   28310   28312
   28313   28314   28313   28315   28316   28317   28316   28318
   28319   28320   28319   28321   28322   28323   28322   28324
   28325   28326   28325   28327   28328   28329   28328   28330
   28331   28332   28331   28333   28334   28335   28334   28336
   28337   28338   28337   28339   28340   28341   28340   28342
   28343   28344   28343   28345   28346   28347   28346   28348
   28349   28350   28349   28351   28352   28353   28352   28354
   28355   28356   28355   28357   28358   28359   28358   28360
   28361   28362   28361   28363   28364   28365   28364   28366
   28367   28368   28367   28369   28370   28371   28370   28372
   28373   28374   28373   28375   28376   28377   28376   28378
   28379   28380   28379   28381   28382   28383   28382   28384
   28385   28386   28385   28387   28388   28389   28388   28390
   28391   28392   28391   28393   28394   28395   28394   28396
   28397   28398   28397   28399   28400   28401   28400   28402
   28403   28404   28403   28405   28406   28407   28406   28408
   28409   28410   28409   28411   28412   28413   28412   28414
   28415   28416   28415   28417   28418   28419   28418   28420
   28421   28422   28421   28423   28424   28425   28424   28426
   28427   28428   28427   28429   28430   28431   28430   28432
   28433   28434   28433   28435   28436   28437   28436   28438
   28439   28440   28439   28441   28442   28443   28442   28444
   28445   28446   28445   28447   28448   28449   28448   28450
   28451   28452   28451   28453   28454   28455   28454   28456
   28457   28458   28457   28459   28460   28461   28460   28462
   28463   28464   28463   28465   28466   28467   28466   28468
   28469   28470   28469   28471   28472   28473   28472   28474
   28475   28476   28475   28477   28478   28479   28478   28480
   28481   28482   28481   28483   28484   28485   28484   28486
   28487   28488   28487   28489   28490   28491   28490   28492
   28493   28494   28493   28495   28496   28497   28496   28498
   28499   28500   28499   28501   28502   28503   28502   28504
   28505   28506   28505   28507   28508   28509   28508   28510
   28511   28512   28511   28513   28514   28515   28514   28516
   28517   28518   28517   28519   28520   28521   28520   28522
   28523   28524   28523   28525   28526   28527   28526   28528
   28529   28530   28529   28531   28532   28533   28532   28534
   28535   28536   28535   28537   28538   28539   28538   28540
   28541   28542   28541   28543   28544   28545   28544   28546
   28547   28548   28547   28549   28550   28551   28550   28552
   28553   28554   28553   28555   28556   28557   28556   28558
   28559   28560   28559   28561   28562   28563   28562   28564
   28565   28566   28565   28567   28568   28569   28568   28570
   28571   28572   28571   28573   28574   28575   28574   28576
   28577   28578   28577   28579   28580   28581   28580   28582
   28583   28584   28583   28585   28586   28587   28586   28588
   28589   28590   28589   28591   28592   28593   28592   28594
   28595   28596   28595   28597   28598   28599   28598   28600
   28601   28602   28601   28603   28604   28605   28604   28606
   28607   28608   28607   28609   28610   28611   28610   28612
   28613   28614   28613   28615   28616   28617   28616   28618
   28619   28620   28619   28621   28622   28623   28622   28624
   28625   28626   28625   28627   28628   28629   28628   28630
   28631   28632   28631   28633   28634   28635   28634   28636
   28637   28638   28637   28639   28640   28641   28640   28642
   28643   28644   28643   28645   28646   28647   28646   28648
   28649   28650   28649   28651   28652   28653   28652   28654
   28655   28656   28655   28657   28658   28659   28658   28660
   28661   28662   28661   28663   28664   28665   28664   28666
   28667   28668   28667   28669   28670   28671   28670   28672
   28673   28674   28673   28675   28676   28677   28676   28678
   28679   28680   28679   28681   28682   28683   28682   28684
   28685   28686   28685   28687   28688   28689   28688   28690
   28691   28692   28691   28693   28694   28695   28694   28696
   28697   28698   28697   28699   28700   28701   28700   28702
   28703   28704   28703   28705   28706   28707   28706   28708
   28709   28710   28709   28711   28712   28713   28712   28714
   28715   28716   28715   28717   28718   28719   28718   28720
   28721   28722   28721   28723   28724   28725   28724   28726
   28727   28728   28727   28729   28730   28731   28730   28732
   28733   28734   28733   28735   28736   28737   28736   28738
   28739   28740   28739   28741   28742   28743   28742   28744
   28745   28746   28745   28747   28748   28749   28748   28750
   28751   28752   28751   28753   28754   28755   28754   28756
   28757   28758   28757   28759   28760   28761   28760   28762
   28763   28764   28763   28765   28766   28767   28766   28768
   28769   28770   28769   28771   28772   28773   28772   28774
   28775   28776   28775   28777   28778   28779   28778   28780
   28781   28782   28781   28783   28784   28785   28784   28786
   28787   28788   28787   28789   28790   28791   28790   28792
   28793   28794   28793   28795   28796   28797   28796   28798
   28799   28800   28799   28801   28802   28803   28802   28804
   28805   28806   28805   28807   28808   28809   28808   28810
   28811   28812   28811   28813   28814   28815   28814   28816
   28817   28818   28817   28819   28820   28821   28820   28822
   28823   28824   28823   28825   28826   28827   28826   28828
   28829   28830   28829   28831   28832   28833   28832   28834
   28835   28836   28835   28837   28838   28839   28838   28840
   28841   28842   28841   28843   28844   28845   28844   28846
   28847   28848   28847   28849   28850   28851   28850   28852
   28853   28854   28853   28855   28856   28857   28856   28858
   28859   28860   28859   28861   28862   28863   28862   28864
   28865   28866   28865   28867   28868   28869   28868   28870
   28871   28872   28871   28873   28874   28875   28874   28876
   28877   28878   28877   28879   28880   28881   28880   28882
   28883   28884   28883   28885   28886   28887   28886   28888
   28889   28890   28889   28891   28892   28893   28892   28894
   28895   28896   28895   28897   28898   28899   28898   28900
   28901   28902   28901   28903   28904   28905   28904   28906
   28907   28908   28907   28909   28910   28911   28910   28912
   28913   28914   28913   28915   28916   28917   28916   28918
   28919   28920   28919   28921   28922   28923   28922   28924
   28925   28926   28925   28927   28928   28929   28928   28930
   28931   28932   28931   28933   28934   28935   28934   28936
   28937   28938   28937   28939   28940   28941   28940   28942
   28943   28944   28943   28945   28946   28947   28946   28948
   28949   28950   28949   28951   28952   28953   28952   28954
   28955   28956   28955   28957   28958   28959   28958   28960
   28961   28962   28961   28963   28964   28965   28964   28966
   28967   28968   28967   28969   28970   28971   28970   28972
   28973   28974   28973   28975   28976   28977   28976   28978
   28979   28980   28979   28981   28982   28983   28982   28984
   28985   28986   28985   28987   28988   28989   28988   28990
   28991   28992   28991   28993   28994   28995   28994   28996
   28997   28998   28997   28999   29000   29001   29000   29002
   29003   29004   29003   29005   29006   29007   29006   29008
   29009   29010   29009   29011   29012   29013   29012   29014
   29015   29016   29015   29017   29018   29019   29018   29020
   29021   29022   29021   29023   29024   29025   29024   29026
   29027   29028   29027   29029   29030   29031   29030   29032
   29033   29034   29033   29035   29036   29037   29036   29038
   29039   29040   29039   29041   29042   29043   29042   29044
   29045   29046   29045   29047   29048   29049   29048   29050
   29051   29052   29051   29053   29054   29055   29054   29056
   29057   29058   29057   29059   29060   29061   29060   29062
   29063   29064   29063   29065   29066   29067   29066   29068
   29069   29070   29069   29071   29072   29073   29072   29074
   29075   29076   29075   29077   29078   29079   29078   29080
   29081   29082   29081   29083   29084   29085   29084   29086
   29087   29088   29087   29089   29090   29091   29090   29092
   29093   29094   29093   29095   29096   29097   29096   29098
   29099   29100   29099   29101   29102   29103   29102   29104
   29105   29106   29105   29107   29108   29109   29108   29110
   29111   29112   29111   29113   29114   29115   29114   29116
   29117   29118   29117   29119   29120   29121   29120   29122
   29123   29124   29123   29125   29126   29127   29126   29128
   29129   29130   29129   29131   29132   29133   29132   29134
   29135   29136   29135   29137   29138   29139   29138   29140
   29141   29142   29141   29143   29144   29145   29144   29146
   29147   29148   29147   29149   29150   29151   29150   29152
   29153   29154   29153   29155   29156   29157   29156   29158
   29159   29160   29159   29161   29162   29163   29162   29164
   29165   29166   29165   29167   29168   29169   29168   29170
   29171   29172   29171   29173   29174   29175   29174   29176
   29177   29178   29177   29179   29180   29181   29180   29182
   29183   29184   29183   29185   29186   29187   29186   29188
   29189   29190   29189   29191   29192   29193   29192   29194
   29195   29196   29195   29197   29198   29199   29198   29200
   29201   29202   29201   29203   29204   29205   29204   29206
   29207   29208   29207   29209   29210   29211   29210   29212
   29213   29214   29213   29215   29216   29217   29216   29218
   29219   29220   29219   29221   29222   29223   29222   29224
   29225   29226   29225   29227   29228   29229   29228   29230
   29231   29232   29231   29233   29234   29235   29234   29236
   29237   29238   29237   29239   29240   29241   29240   29242
   29243   29244   29243   29245   29246   29247   29246   29248
   29249   29250   29249   29251   29252   29253   29252   29254
   29255   29256   29255   29257   29258   29259   29258   29260
   29261   29262   29261   29263   29264   29265   29264   29266
   29267   29268   29267   29269   29270   29271   29270   29272
   29273   29274   29273   29275   29276   29277   29276   29278
   29279   29280   29279   29281   29282   29283   29282   29284
   29285   29286   29285   29287   29288   29289   29288   29290
   29291   29292   29291   29293   29294   29295   29294   29296
   29297   29298   29297   29299   29300   29301   29300   29302
   29303   29304   29303   29305   29306   29307   29306   29308
   29309   29310   29309   29311   29312   29313   29312   29314
   29315   29316   29315   29317   29318   29319   29318   29320
   29321   29322   29321   29323   29324   29325   29324   29326
   29327   29328   29327   29329   29330   29331   29330   29332
   29333   29334   29333   29335   29336   29337   29336   29338
   29339   29340   29339   29341   29342   29343   29342   29344
   29345   29346   29345   29347   29348   29349   29348   29350
   29351   29352   29351   29353   29354   29355   29354   29356
   29357   29358   29357   29359   29360   29361   29360   29362
   29363   29364   29363   29365   29366   29367   29366   29368
   29369   29370   29369   29371   29372   29373   29372   29374
   29375   29376   29375   29377   29378   29379   29378   29380
   29381   29382   29381   29383   29384   29385   29384   29386
   29387   29388   29387   29389   29390   29391   29390   29392
   29393   29394   29393   29395   29396   29397   29396   29398
   29399   29400   29399   29401   29402   29403   29402   29404
   29405   29406   29405   29407   29408   29409   29408   29410
   29411   29412   29411   29413   29414   29415   29414   29416
   29417   29418   29417   29419   29420   29421   29420   29422
   29423   29424   29423   29425   29426   29427   29426   29428
   29429   29430   29429   29431   29432   29433   29432   29434
   29435   29436   29435   29437   29438   29439   29438   29440
   29441   29442   29441   29443   29444   29445   29444   29446
   29447   29448   29447   29449   29450   29451   29450   29452
   29453   29454   29453   29455   29456   29457   29456   29458
   29459   29460   29459   29461   29462   29463   29462   29464
   29465   29466   29465   29467   29468   29469   29468   29470
   29471   29472   29471   29473   29474   29475   29474   29476
   29477   29478   29477   29479   29480   29481   29480   29482
   29483   29484   29483   29485   29486   29487   29486   29488
   29489   29490   29489   29491   29492   29493   29492   29494
   29495   29496   29495   29497   29498   29499   29498   29500
   29501   29502   29501   29503   29504   29505   29504   29506
   29507   29508   29507   29509   29510   29511   29510   29512
   29513   29514   29513   29515   29516   29517   29516   29518
   29519   29520   29519   29521   29522   29523   29522   29524
   29525   29526   29525   29527   29528   29529   29528   29530
   29531   29532   29531   29533   29534   29535   29534   29536
   29537   29538   29537   29539   29540   29541   29540   29542
   29543   29544   29543   29545   29546   29547   29546   29548
   29549   29550   29549   29551   29552   29553   29552   29554
   29555   29556   29555   29557   29558   29559   29558   29560
   29561   29562   29561   29563   29564   29565   29564   29566
   29567   29568   29567   29569   29570   29571   29570   29572
   29573   29574   29573   29575   29576   29577   29576   29578
   29579   29580   29579   29581   29582   29583   29582   29584
   29585   29586   29585   29587   29588   29589   29588   29590
   29591   29592   29591   29593   29594   29595   29594   29596
   29597   29598   29597   29599   29600   29601   29600   29602
   29603   29604   29603   29605   29606   29607   29606   29608
   29609   29610   29609   29611   29612   29613   29612   29614
   29615   29616   29615   29617   29618   29619   29618   29620
   29621   29622   29621   29623   29624   29625   29624   29626
   29627   29628   29627   29629   29630   29631   29630   29632
   29633   29634   29633   29635   29636   29637   29636   29638
   29639   29640   29639   29641   29642   29643   29642   29644
   29645   29646   29645   29647   29648   29649   29648   29650
   29651   29652   29651   29653   29654   29655   29654   29656
   29657   29658   29657   29659   29660   29661   29660   29662
   29663   29664   29663   29665   29666   29667   29666   29668
   29669   29670   29669   29671   29672   29673   29672   29674
   29675   29676   29675   29677   29678   29679   29678   29680
   29681   29682   29681   29683   29684   29685   29684   29686
   29687   29688   29687   29689   29690   29691   29690   29692
   29693   29694   29693   29695   29696   29697   29696   29698
   29699   29700   29699   29701   29702   29703   29702   29704
   29705   29706   29705   29707   29708   29709   29708   29710
   29711   29712   29711   29713   29714   29715   29714   29716
   29717   29718   29717   29719   29720   29721   29720   29722
   29723   29724   29723   29725   29726   29727   29726   29728
   29729   29730   29729   29731   29732   29733   29732   29734
   29735   29736   29735   29737   29738   29739   29738   29740
   29741   29742   29741   29743   29744   29745   29744   29746
   29747   29748   29747   29749   29750   29751   29750   29752
   29753   29754   29753   29755   29756   29757   29756   29758
   29759   29760   29759   29761   29762   29763   29762   29764
   29765   29766   29765   29767   29768   29769   29768   29770
   29771   29772   29771   29773   29774   29775   29774   29776
   29777   29778   29777   29779   29780   29781   29780   29782
   29783   29784   29783   29785   29786   29787   29786   29788
   29789   29790   29789   29791   29792   29793   29792   29794
   29795   29796   29795   29797   29798   29799   29798   29800
   29801   29802   29801   29803   29804   29805   29804   29806
   29807   29808   29807   29809   29810   29811   29810   29812
   29813   29814   29813   29815   29816   29817   29816   29818
   29819   29820   29819   29821   29822   29823   29822   29824
   29825   29826   29825   29827   29828   29829   29828   29830
   29831   29832   29831   29833   29834   29835   29834   29836
   29837   29838   29837   29839   29840   29841   29840   29842
   29843   29844   29843   29845   29846   29847   29846   29848
   29849   29850   29849   29851   29852   29853   29852   29854
   29855   29856   29855   29857   29858   29859   29858   29860
   29861   29862   29861   29863   29864   29865   29864   29866
   29867   29868   29867   29869   29870   29871   29870   29872
   29873   29874   29873   29875   29876   29877   29876   29878
   29879   29880   29879   29881   29882   29883   29882   29884
   29885   29886   29885   29887   29888   29889   29888   29890
   29891   29892   29891   29893   29894   29895   29894   29896
   29897   29898   29897   29899   29900   29901   29900   29902
   29903   29904   29903   29905   29906   29907   29906   29908
   29909   29910   29909   29911   29912   29913   29912   29914
   29915   29916   29915   29917   29918   29919   29918   29920
   29921   29922   29921   29923   29924   29925   29924   29926
   29927   29928   29927   29929   29930   29931   29930   29932
   29933   29934   29933   29935   29936   29937   29936   29938
   29939   29940   29939   29941   29942   29943   29942   29944
   29945   29946   29945   29947   29948   29949   29948   29950
   29951   29952   29951   29953   29954   29955   29954   29956
   29957   29958   29957   29959   29960   29961   29960   29962
   29963   29964   29963   29965   29966   29967   29966   29968
   29969   29970   29969   29971   29972   29973   29972   29974
   29975   29976   29975   29977   29978   29979   29978   29980
   29981   29982   29981   29983   29984   29985   29984   29986
   29987   29988   29987   29989   29990   29991   29990   29992
   29993   29994   29993   29995   29996   29997   29996   29998
   29999   30000   29999   30001   30002   30003   30002   30004
   30005   30006   30005   30007   30008   30009   30008   30010
   30011   30012   30011   30013   30014   30015   30014   30016
   30017   30018   30017   30019   30020   30021   30020   30022
   30023   30024   30023   30025   30026   30027   30026   30028
   30029   30030   30029   30031   30032   30033   30032   30034
   30035   30036   30035   30037   30038   30039   30038   30040
   30041   30042   30041   30043   30044   30045   30044   30046
   30047   30048   30047   30049   30050   30051   30050   30052
   30053   30054   30053   30055   30056   30057   30056   30058
   30059   30060   30059   30061   30062   30063   30062   30064
   30065   30066   30065   30067   30068   30069   30068   30070
   30071   30072   30071   30073   30074   30075   30074   30076
   30077   30078   30077   30079   30080   30081   30080   30082
   30083   30084   30083   30085   30086   30087   30086   30088
   30089   30090   30089   30091   30092   30093   30092   30094
   30095   30096   30095   30097   30098   30099   30098   30100
   30101   30102   30101   30103   30104   30105   30104   30106
   30107   30108   30107   30109   30110   30111   30110   30112
   30113   30114   30113   30115   30116   30117   30116   30118
   30119   30120   30119   30121   30122   30123   30122   30124
   30125   30126   30125   30127   30128   30129   30128   30130
   30131   30132   30131   30133   30134   30135   30134   30136
   30137   30138   30137   30139   30140   30141   30140   30142
   30143   30144   30143   30145   30146   30147   30146   30148
   30149   30150   30149   30151   30152   30153   30152   30154
   30155   30156   30155   30157   30158   30159   30158   30160
   30161   30162   30161   30163   30164   30165   30164   30166
   30167   30168   30167   30169   30170   30171   30170   30172
   30173   30174   30173   30175   30176   30177   30176   30178
   30179   30180   30179   30181   30182   30183   30182   30184
   30185   30186   30185   30187   30188   30189   30188   30190
   30191   30192   30191   30193   30194   30195   30194   30196
   30197   30198   30197   30199   30200   30201   30200   30202
   30203   30204   30203   30205   30206   30207   30206   30208
   30209   30210   30209   30211   30212   30213   30212   30214
   30215   30216   30215   30217   30218   30219   30218   30220
   30221   30222   30221   30223   30224   30225   30224   30226
   30227   30228   30227   30229   30230   30231   30230   30232
   30233   30234   30233   30235   30236   30237   30236   30238
   30239   30240   30239   30241   30242   30243   30242   30244
   30245   30246   30245   30247   30248   30249   30248   30250
   30251   30252   30251   30253   30254   30255   30254   30256
   30257   30258   30257   30259   30260   30261   30260   30262
   30263   30264   30263   30265   30266   30267   30266   30268
   30269   30270   30269   30271   30272   30273   30272   30274
   30275   30276   30275   30277   30278   30279   30278   30280
   30281   30282   30281   30283   30284   30285   30284   30286
   30287   30288   30287   30289   30290   30291   30290   30292
   30293   30294   30293   30295   30296   30297   30296   30298
   30299   30300   30299   30301   30302   30303   30302   30304
   30305   30306   30305   30307   30308   30309   30308   30310
   30311   30312   30311   30313   30314   30315   30314   30316
   30317   30318   30317   30319   30320   30321   30320   30322
   30323   30324   30323   30325   30326   30327   30326   30328
   30329   30330   30329   30331   30332   30333   30332   30334
   30335   30336   30335   30337   30338   30339   30338   30340
   30341   30342   30341   30343   30344   30345   30344   30346
   30347   30348   30347   30349   30350   30351   30350   30352
   30353   30354   30353   30355   30356   30357   30356   30358
   30359   30360   30359   30361   30362   30363   30362   30364
   30365   30366   30365   30367   30368   30369   30368   30370
   30371   30372   30371   30373   30374   30375   30374   30376
   30377   30378   30377   30379   30380   30381   30380   30382
   30383   30384   30383   30385   30386   30387   30386   30388
   30389   30390   30389   30391   30392   30393   30392   30394
   30395   30396   30395   30397   30398   30399   30398   30400
   30401   30402   30401   30403   30404   30405   30404   30406
   30407   30408   30407   30409   30410   30411   30410   30412
   30413   30414   30413   30415   30416   30417   30416   30418
   30419   30420   30419   30421   30422   30423   30422   30424
   30425   30426   30425   30427   30428   30429   30428   30430
   30431   30432   30431   30433   30434   30435   30434   30436
   30437   30438   30437   30439   30440   30441   30440   30442
   30443   30444   30443   30445   30446   30447   30446   30448
   30449   30450   30449   30451   30452   30453   30452   30454
   30455   30456   30455   30457   30458   30459   30458   30460
   30461   30462   30461   30463   30464   30465   30464   30466
   30467   30468   30467   30469   30470   30471   30470   30472
   30473   30474   30473   30475   30476   30477   30476   30478
   30479   30480   30479   30481   30482   30483   30482   30484
   30485   30486   30485   30487   30488   30489   30488   30490
   30491   30492   30491   30493   30494   30495   30494   30496
   30497   30498   30497   30499   30500   30501   30500   30502
   30503   30504   30503   30505   30506   30507   30506   30508
   30509   30510   30509   30511   30512   30513   30512   30514
   30515   30516   30515   30517   30518   30519   30518   30520
   30521   30522   30521   30523   30524   30525   30524   30526
   30527   30528   30527   30529   30530   30531   30530   30532
   30533   30534   30533   30535   30536   30537   30536   30538
   30539   30540   30539   30541   30542   30543   30542   30544
   30545   30546   30545   30547   30548   30549   30548   30550
   30551   30552   30551   30553   30554   30555   30554   30556
   30557   30558   30557   30559   30560   30561   30560   30562
   30563   30564   30563   30565   30566   30567   30566   30568
   30569   30570   30569   30571   30572   30573   30572   30574
   30575   30576   30575   30577   30578   30579   30578   30580
   30581   30582   30581   30583   30584   30585   30584   30586
   30587   30588   30587   30589   30590   30591   30590   30592
   30593   30594   30593   30595   30596   30597   30596   30598
   30599   30600   30599   30601   30602   30603   30602   30604
   30605   30606   30605   30607   30608   30609   30608   30610
   30611   30612   30611   30613   30614   30615   30614   30616
   30617   30618   30617   30619   30620   30621   30620   30622
   30623   30624   30623   30625   30626   30627   30626   30628
   30629   30630   30629   30631   30632   30633   30632   30634
   30635   30636   30635   30637   30638   30639   30638   30640
   30641   30642   30641   30643   30644   30645   30644   30646
   30647   30648   30647   30649   30650   30651   30650   30652
   30653   30654   30653   30655   30656   30657   30656   30658
   30659   30660   30659   30661   30662   30663   30662   30664
   30665   30666   30665   30667   30668   30669   30668   30670
   30671   30672   30671   30673   30674   30675   30674   30676
   30677   30678   30677   30679   30680   30681   30680   30682
   30683   30684   30683   30685   30686   30687   30686   30688
   30689   30690   30689   30691   30692   30693   30692   30694
   30695   30696   30695   30697   30698   30699   30698   30700
   30701   30702   30701   30703   30704   30705   30704   30706
   30707   30708   30707   30709   30710   30711   30710   30712
   30713   30714   30713   30715   30716   30717   30716   30718
   30719   30720   30719   30721   30722   30723   30722   30724
   30725   30726   30725   30727   30728   30729   30728   30730
   30731   30732   30731   30733   30734   30735   30734   30736
   30737   30738   30737   30739   30740   30741   30740   30742
   30743   30744   30743   30745   30746   30747   30746   30748
   30749   30750   30749   30751   30752   30753   30752   30754
   30755   30756   30755   30757   30758   30759   30758   30760
   30761   30762   30761   30763   30764   30765   30764   30766
   30767   30768   30767   30769   30770   30771   30770   30772
   30773   30774   30773   30775   30776   30777   30776   30778
   30779   30780   30779   30781   30782   30783   30782   30784
   30785   30786   30785   30787   30788   30789   30788   30790
   30791   30792   30791   30793   30794   30795   30794   30796
   30797   30798   30797   30799   30800   30801   30800   30802
   30803   30804   30803   30805   30806   30807   30806   30808
   30809   30810   30809   30811   30812   30813   30812   30814
   30815   30816   30815   30817   30818   30819   30818   30820
   30821   30822   30821   30823   30824   30825   30824   30826
   30827   30828   30827   30829   30830   30831   30830   30832
   30833   30834   30833   30835   30836   30837   30836   30838
   30839   30840   30839   30841   30842   30843   30842   30844
   30845   30846   30845   30847   30848   30849   30848   30850
   30851   30852   30851   30853   30854   30855   30854   30856
   30857   30858   30857   30859   30860   30861   30860   30862
   30863   30864   30863   30865   30866   30867   30866   30868
   30869   30870   30869   30871   30872   30873   30872   30874
   30875   30876   30875   30877   30878   30879   30878   30880
   30881   30882   30881   30883   30884   30885   30884   30886
   30887   30888   30887   30889   30890   30891   30890   30892
   30893   30894   30893   30895   30896   30897   30896   30898
   30899   30900   30899   30901   30902   30903   30902   30904
   30905   30906   30905   30907   30908   30909   30908   30910
   30911   30912   30911   30913   30914   30915   30914   30916
   30917   30918   30917   30919   30920   30921   30920   30922
   30923   30924   30923   30925   30926   30927   30926   30928
   30929   30930   30929   30931   30932   30933   30932   30934
   30935   30936   30935   30937   30938   30939   30938   30940
   30941   30942   30941   30943   30944   30945   30944   30946
   30947   30948   30947   30949   30950   30951   30950   30952
   30953   30954   30953   30955   30956   30957   30956   30958
   30959   30960   30959   30961   30962   30963   30962   30964
   30965   30966   30965   30967   30968   30969   30968   30970
   30971   30972   30971   30973   30974   30975   30974   30976
   30977   30978   30977   30979   30980   30981   30980   30982
   30983   30984   30983   30985   30986   30987   30986   30988
   30989   30990   30989   30991   30992   30993   30992   30994
   30995   30996   30995   30997   30998   30999   30998   31000
   31001   31002   31001   31003   31004   31005   31004   31006
   31007   31008   31007   31009   31010   31011   31010   31012
   31013   31014   31013   31015   31016   31017   31016   31018
   31019   31020   31019   31021   31022   31023   31022   31024
   31025   31026   31025   31027   31028   31029   31028   31030
   31031   31032   31031   31033   31034   31035   31034   31036
   31037   31038   31037   31039   31040   31041   31040   31042
   31043   31044   31043   31045   31046   31047   31046   31048
   31049   31050   31049   31051   31052   31053   31052   31054
   31055   31056   31055   31057   31058   31059   31058   31060
   31061   31062   31061   31063   31064   31065   31064   31066
   31067   31068   31067   31069   31070   31071   31070   31072
   31073   31074   31073   31075   31076   31077   31076   31078
   31079   31080   31079   31081   31082   31083   31082   31084
   31085   31086   31085   31087   31088   31089   31088   31090
   31091   31092   31091   31093   31094   31095   31094   31096
   31097   31098   31097   31099   31100   31101   31100   31102
   31103   31104   31103   31105   31106   31107   31106   31108
   31109   31110   31109   31111   31112   31113   31112   31114
   31115   31116   31115   31117   31118   31119   31118   31120
   31121   31122   31121   31123   31124   31125   31124   31126
   31127   31128   31127   31129   31130   31131   31130   31132
   31133   31134   31133   31135   31136   31137   31136   31138
   31139   31140   31139   31141   31142   31143   31142   31144
   31145   31146   31145   31147   31148   31149   31148   31150
   31151   31152   31151   31153   31154   31155   31154   31156
   31157   31158   31157   31159   31160   31161   31160   31162
   31163   31164   31163   31165   31166   31167   31166   31168
   31169   31170   31169   31171   31172   31173   31172   31174
   31175   31176   31175   31177   31178   31179   31178   31180
   31181   31182   31181   31183   31184   31185   31184   31186
   31187   31188   31187   31189   31190   31191   31190   31192
   31193   31194   31193   31195   31196   31197   31196   31198
   31199   31200   31199   31201   31202   31203   31202   31204
   31205   31206   31205   31207   31208   31209   31208   31210
   31211   31212   31211   31213   31214   31215   31214   31216
   31217   31218   31217   31219   31220   31221   31220   31222
   31223   31224   31223   31225   31226   31227   31226   31228
   31229   31230   31229   31231   31232   31233   31232   31234
   31235   31236   31235   31237   31238   31239   31238   31240
   31241   31242   31241   31243   31244   31245   31244   31246
   31247   31248   31247   31249   31250   31251   31250   31252
   31253   31254   31253   31255   31256   31257   31256   31258
   31259   31260   31259   31261   31262   31263   31262   31264
   31265   31266   31265   31267   31268   31269   31268   31270
   31271   31272   31271   31273   31274   31275   31274   31276
   31277   31278   31277   31279   31280   31281   31280   31282
   31283   31284   31283   31285   31286   31287   31286   31288
   31289   31290   31289   31291   31292   31293   31292   31294
   31295   31296   31295   31297   31298   31299   31298   31300
   31301   31302   31301   31303   31304   31305   31304   31306
   31307   31308   31307   31309   31310   31311   31310   31312
   31313   31314   31313   31315   31316   31317   31316   31318
   31319   31320   31319   31321   31322   31323   31322   31324
   31325   31326   31325   31327   31328   31329   31328   31330
   31331   31332   31331   31333   31334   31335   31334   31336
   31337   31338   31337   31339   31340   31341   31340   31342
   31343   31344   31343   31345   31346   31347   31346   31348
   31349   31350   31349   31351   31352   31353   31352   31354
   31355   31356   31355   31357   31358   31359   31358   31360
   31361   31362   31361   31363   31364   31365   31364   31366
   31367   31368   31367   31369   31370   31371   31370   31372
   31373   31374   31373   31375   31376   31377   31376   31378
   31379   31380   31379   31381   31382   31383   31382   31384
   31385   31386   31385   31387   31388   31389   31388   31390
   31391   31392   31391   31393   31394   31395   31394   31396
   31397   31398   31397   31399   31400   31401   31400   31402
   31403   31404   31403   31405   31406   31407   31406   31408
   31409   31410   31409   31411   31412   31413   31412   31414
   31415   31416   31415   31417   31418   31419   31418   31420
   31421   31422   31421   31423   31424   31425   31424   31426
   31427   31428   31427   31429   31430   31431   31430   31432
   31433   31434   31433   31435   31436   31437   31436   31438
   31439   31440   31439   31441   31442   31443   31442   31444
   31445   31446   31445   31447   31448   31449   31448   31450
   31451   31452   31451   31453   31454   31455   31454   31456
   31457   31458   31457   31459   31460   31461   31460   31462
   31463   31464   31463   31465   31466   31467   31466   31468
   31469   31470   31469   31471   31472   31473   31472   31474
   31475   31476   31475   31477   31478   31479   31478   31480
   31481   31482   31481   31483   31484   31485   31484   31486
   31487   31488   31487   31489   31490   31491   31490   31492
   31493   31494   31493   31495   31496   31497   31496   31498
   31499   31500   31499   31501   31502   31503   31502   31504
   31505   31506   31505   31507   31508   31509   31508   31510
   31511   31512   31511   31513   31514   31515   31514   31516
   31517   31518   31517   31519   31520   31521   31520   31522
   31523   31524   31523   31525   31526   31527   31526   31528
   31529   31530   31529   31531   31532   31533   31532   31534
   31535   31536   31535   31537   31538   31539   31538   31540
   31541   31542   31541   31543   31544   31545   31544   31546
   31547   31548   31547   31549   31550   31551   31550   31552
   31553   31554   31553   31555   31556   31557   31556   31558
   31559   31560   31559   31561   31562   31563   31562   31564
   31565   31566   31565   31567   31568   31569   31568   31570
   31571   31572   31571   31573   31574   31575   31574   31576
   31577   31578   31577   31579   31580   31581   31580   31582
   31583   31584   31583   31585   31586   31587   31586   31588
   31589   31590   31589   31591   31592   31593   31592   31594
   31595   31596   31595   31597   31598   31599   31598   31600
   31601   31602   31601   31603   31604   31605   31604   31606
   31607   31608   31607   31609   31610   31611   31610   31612
   31613   31614   31613   31615   31616   31617   31616   31618
   31619   31620   31619   31621   31622   31623   31622   31624
   31625   31626   31625   31627   31628   31629   31628   31630
   31631   31632   31631   31633   31634   31635   31634   31636
   31637   31638   31637   31639   31640   31641   31640   31642
   31643   31644   31643   31645   31646   31647   31646   31648
   31649   31650   31649   31651   31652   31653   31652   31654
   31655   31656   31655   31657   31658   31659   31658   31660
   31661   31662   31661   31663   31664   31665   31664   31666
   31667   31668   31667   31669   31670   31671   31670   31672
   31673   31674   31673   31675   31676   31677   31676   31678
   31679   31680   31679   31681   31682   31683   31682   31684
   31685   31686   31685   31687   31688   31689   31688   31690
   31691   31692   31691   31693   31694   31695   31694   31696
   31697   31698   31697   31699   31700   31701   31700   31702
   31703   31704   31703   31705   31706   31707   31706   31708
   31709   31710   31709   31711   31712   31713   31712   31714
   31715   31716   31715   31717   31718   31719   31718   31720
   31721   31722   31721   31723   31724   31725   31724   31726
   31727   31728   31727   31729   31730   31731   31730   31732
   31733   31734   31733   31735   31736   31737   31736   31738
   31739   31740   31739   31741   31742   31743   31742   31744
   31745   31746   31745   31747   31748   31749   31748   31750
   31751   31752   31751   31753   31754   31755   31754   31756
   31757   31758   31757   31759   31760   31761   31760   31762
   31763   31764   31763   31765   31766   31767   31766   31768
   31769   31770   31769   31771   31772   31773   31772   31774
   31775   31776   31775   31777   31778   31779   31778   31780
   31781   31782   31781   31783   31784   31785   31784   31786
   31787   31788   31787   31789   31790   31791   31790   31792
   31793   31794   31793   31795   31796   31797   31796   31798
   31799   31800   31799   31801   31802   31803   31802   31804
   31805   31806   31805   31807   31808   31809   31808   31810
   31811   31812   31811   31813   31814   31815   31814   31816
   31817   31818   31817   31819   31820   31821   31820   31822
   31823   31824   31823   31825   31826   31827   31826   31828
   31829   31830   31829   31831   31832   31833   31832   31834
   31835   31836   31835   31837   31838   31839   31838   31840
   31841   31842   31841   31843   31844   31845   31844   31846
   31847   31848   31847   31849   31850   31851   31850   31852
   31853   31854   31853   31855   31856   31857   31856   31858
   31859   31860   31859   31861   31862   31863   31862   31864
   31865   31866   31865   31867   31868   31869   31868   31870
   31871   31872   31871   31873   31874   31875   31874   31876
   31877   31878   31877   31879   31880   31881   31880   31882
   31883   31884   31883   31885   31886   31887   31886   31888
   31889   31890   31889   31891   31892   31893   31892   31894
   31895   31896   31895   31897   31898   31899   31898   31900
   31901   31902   31901   31903   31904   31905   31904   31906
   31907   31908   31907   31909   31910   31911   31910   31912
   31913   31914   31913   31915   31916   31917   31916   31918
   31919   31920   31919   31921   31922   31923   31922   31924
   31925   31926   31925   31927   31928   31929   31928   31930
   31931   31932   31931   31933   31934   31935   31934   31936
   31937   31938   31937   31939   31940   31941   31940   31942
   31943   31944   31943   31945   31946   31947   31946   31948
   31949   31950   31949   31951   31952   31953   31952   31954
   31955   31956   31955   31957   31958   31959   31958   31960
   31961   31962   31961   31963   31964   31965   31964   31966
   31967   31968   31967   31969   31970   31971   31970   31972
   31973   31974   31973   31975   31976   31977   31976   31978
   31979   31980   31979   31981   31982   31983   31982   31984
   31985   31986   31985   31987   31988   31989   31988   31990
   31991   31992   31991   31993   31994   31995   31994   31996
   31997   31998   31997   31999   32000   32001   32000   32002
   32003   32004   32003   32005   32006   32007   32006   32008
   32009   32010   32009   32011   32012   32013   32012   32014
   32015   32016   32015   32017   32018   32019   32018   32020
   32021   32022   32021   32023   32024   32025   32024   32026
   32027   32028   32027   32029   32030   32031   32030   32032
   32033   32034   32033   32035   32036   32037   32036   32038
   32039   32040   32039   32041   32042   32043   32042   32044
   32045   32046   32045   32047   32048   32049   32048   32050
   32051   32052   32051   32053   32054   32055   32054   32056
   32057   32058   32057   32059   32060   32061   32060   32062
   32063   32064   32063   32065   32066   32067   32066   32068
   32069   32070   32069   32071   32072   32073   32072   32074
   32075   32076   32075   32077   32078   32079   32078   32080
   32081   32082   32081   32083   32084   32085   32084   32086
   32087   32088   32087   32089   32090   32091   32090   32092
   32093   32094   32093   32095   32096   32097   32096   32098
   32099   32100   32099   32101   32102   32103   32102   32104
   32105   32106   32105   32107   32108   32109   32108   32110
   32111   32112   32111   32113   32114   32115   32114   32116
   32117   32118   32117   32119   32120   32121   32120   32122
   32123   32124   32123   32125   32126   32127   32126   32128
   32129   32130   32129   32131   32132   32133   32132   32134
   32135   32136   32135   32137   32138   32139   32138   32140
   32141   32142   32141   32143   32144   32145   32144   32146
   32147   32148   32147   32149   32150   32151   32150   32152
   32153   32154   32153   32155   32156   32157   32156   32158
   32159   32160   32159   32161   32162   32163   32162   32164
   32165   32166   32165   32167   32168   32169   32168   32170
   32171   32172   32171   32173   32174   32175   32174   32176
   32177   32178   32177   32179   32180   32181   32180   32182
   32183   32184   32183   32185   32186   32187   32186   32188
   32189   32190   32189   32191   32192   32193   32192   32194
   32195   32196   32195   32197   32198   32199   32198   32200
   32201   32202   32201   32203   32204   32205   32204   32206
   32207   32208   32207   32209   32210   32211   32210   32212
   32213   32214   32213   32215   32216   32217   32216   32218
   32219   32220   32219   32221   32222   32223   32222   32224
   32225   32226   32225   32227   32228   32229   32228   32230
   32231   32232   32231   32233   32234   32235   32234   32236
   32237   32238   32237   32239   32240   32241   32240   32242
   32243   32244   32243   32245   32246   32247   32246   32248
   32249   32250   32249   32251   32252   32253   32252   32254
   32255   32256   32255   32257   32258   32259   32258   32260
   32261   32262   32261   32263   32264   32265   32264   32266
   32267   32268   32267   32269   32270   32271   32270   32272
   32273   32274   32273   32275   32276   32277   32276   32278
   32279   32280   32279   32281   32282   32283   32282   32284
   32285   32286   32285   32287   32288   32289   32288   32290
   32291   32292   32291   32293   32294   32295   32294   32296
   32297   32298   32297   32299   32300   32301   32300   32302
   32303   32304   32303   32305   32306   32307   32306   32308
   32309   32310   32309   32311   32312   32313   32312   32314
   32315   32316   32315   32317   32318   32319   32318   32320
   32321   32322   32321   32323   32324   32325   32324   32326
   32327   32328   32327   32329   32330   32331   32330   32332
   32333   32334   32333   32335   32336   32337   32336   32338
   32339   32340   32339   32341   32342   32343   32342   32344
   32345   32346   32345   32347   32348   32349   32348   32350
   32351   32352   32351   32353   32354   32355   32354   32356
   32357   32358   32357   32359   32360   32361   32360   32362
   32363   32364   32363   32365   32366   32367   32366   32368
   32369   32370   32369   32371   32372   32373   32372   32374
   32375   32376   32375   32377   32378   32379   32378   32380
   32381   32382   32381   32383   32384   32385   32384   32386
   32387   32388   32387   32389   32390   32391   32390   32392
   32393   32394   32393   32395   32396   32397   32396   32398
   32399   32400   32399   32401   32402   32403   32402   32404
   32405   32406   32405   32407   32408   32409   32408   32410
   32411   32412   32411   32413   32414   32415   32414   32416
   32417   32418   32417   32419   32420   32421   32420   32422
   32423   32424   32423   32425   32426   32427   32426   32428
   32429   32430   32429   32431   32432   32433   32432   32434
   32435   32436   32435   32437   32438   32439   32438   32440
   32441   32442   32441   32443   32444   32445   32444   32446
   32447   32448   32447   32449   32450   32451   32450   32452
   32453   32454   32453   32455   32456   32457   32456   32458
   32459   32460   32459   32461   32462   32463   32462   32464
   32465   32466   32465   32467   32468   32469   32468   32470
   32471   32472   32471   32473   32474   32475   32474   32476
   32477   32478   32477   32479   32480   32481   32480   32482
   32483   32484   32483   32485   32486   32487   32486   32488
   32489   32490   32489   32491   32492   32493   32492   32494
   32495   32496   32495   32497   32498   32499   32498   32500
   32501   32502   32501   32503   32504   32505   32504   32506
   32507   32508   32507   32509   32510   32511   32510   32512
   32513   32514   32513   32515   32516   32517   32516   32518
   32519   32520   32519   32521   32522   32523   32522   32524
   32525   32526   32525   32527   32528   32529   32528   32530
   32531   32532   32531   32533   32534   32535   32534   32536
   32537   32538   32537   32539   32540   32541   32540   32542
   32543   32544   32543   32545   32546   32547   32546   32548
   32549   32550   32549   32551   32552   32553   32552   32554
   32555   32556   32555   32557   32558   32559   32558   32560
   32561   32562   32561   32563   32564   32565   32564   32566
   32567   32568   32567   32569   32570   32571   32570   32572
   32573   32574   32573   32575   32576   32577   32576   32578
   32579   32580   32579   32581   32582   32583   32582   32584
   32585   32586   32585   32587   32588   32589   32588   32590
   32591   32592   32591   32593   32594   32595   32594   32596
   32597   32598   32597   32599   32600   32601   32600   32602
   32603   32604   32603   32605   32606   32607   32606   32608
   32609   32610   32609   32611   32612   32613   32612   32614
   32615   32616   32615   32617   32618   32619   32618   32620
   32621   32622   32621   32623   32624   32625   32624   32626
   32627   32628   32627   32629   32630   32631   32630   32632
   32633   32634   32633   32635   32636   32637   32636   32638
   32639   32640   32639   32641   32642   32643   32642   32644
   32645   32646   32645   32647   32648   32649   32648   32650
   32651   32652   32651   32653   32654   32655   32654   32656
   32657   32658   32657   32659   32660   32661   32660   32662
   32663   32664   32663   32665   32666   32667   32666   32668
   32669   32670   32669   32671   32672   32673   32672   32674
   32675   32676   32675   32677   32678   32679   32678   32680
   32681   32682   32681   32683   32684   32685   32684   32686
   32687   32688   32687   32689   32690   32691   32690   32692
   32693   32694   32693   32695   32696   32697   32696   32698
   32699   32700   32699   32701   32702   32703   32702   32704
   32705   32706   32705   32707   32708   32709   32708   32710
   32711   32712   32711   32713   32714   32715   32714   32716
   32717   32718   32717   32719   32720   32721   32720   32722
   32723   32724   32723   32725   32726   32727   32726   32728
   32729   32730   32729   32731   32732   32733   32732   32734
   32735   32736   32735   32737   32738   32739   32738   32740
   32741   32742   32741   32743   32744   32745   32744   32746
   32747   32748   32747   32749   32750   32751   32750   32752
   32753   32754   32753   32755   32756   32757   32756   32758
   32759   32760   32759   32761   32762   32763   32762   32764
   32765   32766   32765   32767   32768   32769   32768   32770
   32771   32772   32771   32773   32774   32775   32774   32776
   32777   32778   32777   32779   32780   32781   32780   32782
   32783   32784   32783   32785   32786   32787   32786   32788
   32789   32790   32789   32791   32792   32793   32792   32794
   32795   32796   32795   32797   32798   32799   32798   32800
   32801   32802   32801   32803   32804   32805   32804   32806
   32807   32808   32807   32809   32810   32811   32810   32812
   32813   32814   32813   32815   32816   32817   32816   32818
   32819   32820   32819   32821   32822   32823   32822   32824
   32825   32826   32825   32827   32828   32829   32828   32830
   32831   32832   32831   32833   32834   32835   32834   32836
   32837   32838   32837   32839   32840   32841   32840   32842
   32843   32844   32843   32845   32846   32847   32846   32848
   32849   32850   32849   32851   32852   32853   32852   32854
   32855   32856   32855   32857   32858   32859   32858   32860
   32861   32862   32861   32863   32864   32865   32864   32866
   32867   32868   32867   32869   32870   32871   32870   32872
   32873   32874   32873   32875   32876   32877   32876   32878
   32879   32880   32879   32881   32882   32883   32882   32884
   32885   32886   32885   32887   32888   32889   32888   32890
   32891   32892   32891   32893   32894   32895   32894   32896
   32897   32898   32897   32899   32900   32901   32900   32902
   32903   32904   32903   32905   32906   32907   32906   32908
   32909   32910   32909   32911   32912   32913   32912   32914
   32915   32916   32915   32917   32918   32919   32918   32920
   32921   32922   32921   32923   32924   32925   32924   32926
   32927   32928   32927   32929   32930   32931   32930   32932
   32933   32934   32933   32935   32936   32937   32936   32938
   32939   32940   32939   32941   32942   32943   32942   32944
   32945   32946   32945   32947   32948   32949   32948   32950
   32951   32952   32951   32953   32954   32955   32954   32956
   32957   32958   32957   32959   32960   32961   32960   32962
   32963   32964   32963   32965   32966   32967   32966   32968
   32969   32970   32969   32971   32972   32973   32972   32974
   32975   32976   32975   32977   32978   32979   32978   32980
   32981   32982   32981   32983   32984   32985   32984   32986
   32987   32988   32987   32989   32990   32991   32990   32992
   32993   32994   32993   32995   32996   32997   32996   32998
   32999   33000   32999   33001   33002   33003   33002   33004
   33005   33006   33005   33007   33008   33009   33008   33010
   33011   33012   33011   33013   33014   33015   33014   33016
   33017   33018   33017   33019   33020   33021   33020   33022
   33023   33024   33023   33025   33026   33027   33026   33028
   33029   33030   33029   33031   33032   33033   33032   33034
   33035   33036   33035   33037   33038   33039   33038   33040
   33041   33042   33041   33043   33044   33045   33044   33046
   33047   33048   33047   33049   33050   33051   33050   33052
   33053   33054   33053   33055   33056   33057   33056   33058
   33059   33060   33059   33061   33062   33063   33062   33064
   33065   33066   33065   33067   33068   33069   33068   33070
   33071   33072   33071   33073   33074   33075   33074   33076
   33077   33078   33077   33079   33080   33081   33080   33082
   33083   33084   33083   33085   33086   33087   33086   33088
   33089   33090   33089   33091   33092   33093   33092   33094
   33095   33096   33095   33097   33098   33099   33098   33100
   33101   33102   33101   33103   33104   33105   33104   33106
   33107   33108   33107   33109   33110   33111   33110   33112
   33113   33114   33113   33115   33116   33117   33116   33118
   33119   33120   33119   33121   33122   33123   33122   33124
   33125   33126   33125   33127   33128   33129   33128   33130
   33131   33132   33131   33133   33134   33135   33134   33136
   33137   33138   33137   33139   33140   33141   33140   33142
   33143   33144   33143   33145   33146   33147   33146   33148
   33149   33150   33149   33151   33152   33153   33152   33154
   33155   33156   33155   33157   33158   33159   33158   33160
   33161   33162   33161   33163   33164   33165   33164   33166
   33167   33168   33167   33169   33170   33171   33170   33172
   33173   33174   33173   33175   33176   33177   33176   33178
   33179   33180   33179   33181   33182   33183   33182   33184
   33185   33186   33185   33187   33188   33189   33188   33190
   33191   33192   33191   33193   33194   33195   33194   33196
   33197   33198   33197   33199   33200   33201   33200   33202
   33203   33204   33203   33205   33206   33207   33206   33208
   33209   33210   33209   33211   33212   33213   33212   33214
   33215   33216   33215   33217   33218   33219   33218   33220
   33221   33222   33221   33223   33224   33225   33224   33226
   33227   33228   33227   33229   33230   33231   33230   33232
   33233   33234   33233   33235   33236   33237   33236   33238
   33239   33240   33239   33241   33242   33243   33242   33244
   33245   33246   33245   33247   33248   33249   33248   33250
   33251   33252   33251   33253   33254   33255   33254   33256
   33257   33258   33257   33259   33260   33261   33260   33262
   33263   33264   33263   33265   33266   33267   33266   33268
   33269   33270   33269   33271   33272   33273   33272   33274
   33275   33276   33275   33277   33278   33279   33278   33280
   33281   33282   33281   33283   33284   33285   33284   33286
   33287   33288   33287   33289   33290   33291   33290   33292
   33293   33294   33293   33295   33296   33297   33296   33298
   33299   33300   33299   33301   33302   33303   33302   33304
   33305   33306   33305   33307   33308   33309   33308   33310
   33311   33312   33311   33313   33314   33315   33314   33316
   33317   33318   33317   33319   33320   33321   33320   33322
   33323   33324   33323   33325   33326   33327   33326   33328
   33329   33330   33329   33331   33332   33333   33332   33334
   33335   33336   33335   33337   33338   33339   33338   33340
   33341   33342   33341   33343   33344   33345   33344   33346
   33347   33348   33347   33349   33350   33351   33350   33352
   33353   33354   33353   33355   33356   33357   33356   33358
   33359   33360   33359   33361   33362   33363   33362   33364
   33365   33366   33365   33367   33368   33369   33368   33370
   33371   33372   33371   33373   33374   33375   33374   33376
   33377   33378   33377   33379   33380   33381   33380   33382
   33383   33384   33383   33385   33386   33387   33386   33388
   33389   33390   33389   33391   33392   33393   33392   33394
   33395   33396   33395   33397   33398   33399   33398   33400
   33401   33402   33401   33403   33404   33405   33404   33406
   33407   33408   33407   33409   33410   33411   33410   33412
   33413   33414   33413   33415   33416   33417   33416   33418
   33419   33420   33419   33421   33422   33423   33422   33424
   33425   33426   33425   33427   33428   33429   33428   33430
   33431   33432   33431   33433   33434   33435   33434   33436
   33437   33438   33437   33439   33440   33441   33440   33442
   33443   33444   33443   33445   33446   33447   33446   33448
   33449   33450   33449   33451   33452   33453   33452   33454
   33455   33456   33455   33457   33458   33459   33458   33460
   33461   33462   33461   33463   33464   33465   33464   33466
   33467   33468   33467   33469   33470   33471   33470   33472
   33473   33474   33473   33475   33476   33477   33476   33478
   33479   33480   33479   33481   33482   33483   33482   33484
   33485   33486   33485   33487   33488   33489   33488   33490
   33491   33492   33491   33493   33494   33495   33494   33496
   33497   33498   33497   33499   33500   33501   33500   33502
   33503   33504   33503   33505   33506   33507   33506   33508
   33509   33510   33509   33511   33512   33513   33512   33514
   33515   33516   33515   33517   33518   33519   33518   33520
   33521   33522   33521   33523   33524   33525   33524   33526
   33527   33528   33527   33529   33530   33531   33530   33532
   33533   33534   33533   33535   33536   33537   33536   33538
   33539   33540   33539   33541   33542   33543   33542   33544
   33545   33546   33545   33547   33548   33549   33548   33550
   33551   33552   33551   33553   33554   33555   33554   33556
   33557   33558   33557   33559   33560   33561   33560   33562
   33563   33564   33563   33565   33566   33567   33566   33568
   33569   33570   33569   33571   33572   33573   33572   33574
   33575   33576   33575   33577   33578   33579   33578   33580
   33581   33582   33581   33583   33584   33585   33584   33586
   33587   33588   33587   33589   33590   33591   33590   33592
   33593   33594   33593   33595   33596   33597   33596   33598
   33599   33600   33599   33601   33602   33603   33602   33604
   33605   33606   33605   33607   33608   33609   33608   33610
   33611   33612   33611   33613   33614   33615   33614   33616
   33617   33618   33617   33619   33620   33621   33620   33622
   33623   33624   33623   33625   33626   33627   33626   33628
   33629   33630   33629   33631   33632   33633   33632   33634
   33635   33636   33635   33637   33638   33639   33638   33640
   33641   33642   33641   33643   33644   33645   33644   33646
   33647   33648   33647   33649   33650   33651   33650   33652
   33653   33654   33653   33655   33656   33657   33656   33658
   33659   33660   33659   33661   33662   33663   33662   33664
   33665   33666   33665   33667   33668   33669   33668   33670
   33671   33672   33671   33673   33674   33675   33674   33676
   33677   33678   33677   33679   33680   33681   33680   33682
   33683   33684   33683   33685   33686   33687   33686   33688
   33689   33690   33689   33691   33692   33693   33692   33694
   33695   33696   33695   33697   33698   33699   33698   33700
   33701   33702   33701   33703   33704   33705   33704   33706
   33707   33708   33707   33709   33710   33711   33710   33712
   33713   33714   33713   33715   33716   33717   33716   33718
   33719   33720   33719   33721   33722   33723   33722   33724
   33725   33726   33725   33727   33728   33729   33728   33730
   33731   33732   33731   33733   33734   33735   33734   33736
   33737   33738   33737   33739   33740   33741   33740   33742
   33743   33744   33743   33745   33746   33747   33746   33748
   33749   33750   33749   33751   33752   33753   33752   33754
   33755   33756   33755   33757   33758   33759   33758   33760
   33761   33762   33761   33763   33764   33765   33764   33766
   33767   33768   33767   33769   33770   33771   33770   33772
   33773   33774   33773   33775   33776   33777   33776   33778
   33779   33780   33779   33781   33782   33783   33782   33784
   33785   33786   33785   33787   33788   33789   33788   33790
   33791   33792   33791   33793   33794   33795   33794   33796
   33797   33798   33797   33799   33800   33801   33800   33802
   33803   33804   33803   33805   33806   33807   33806   33808
   33809   33810   33809   33811   33812   33813   33812   33814
   33815   33816   33815   33817   33818   33819   33818   33820
   33821   33822   33821   33823   33824   33825   33824   33826
   33827   33828   33827   33829   33830   33831   33830   33832
   33833   33834   33833   33835   33836   33837   33836   33838
   33839   33840   33839   33841   33842   33843   33842   33844
   33845   33846   33845   33847   33848   33849   33848   33850
   33851   33852   33851   33853   33854   33855   33854   33856
   33857   33858   33857   33859   33860   33861   33860   33862
   33863   33864   33863   33865   33866   33867   33866   33868
   33869   33870   33869   33871   33872   33873   33872   33874
   33875   33876   33875   33877   33878   33879   33878   33880
   33881   33882   33881   33883   33884   33885   33884   33886
   33887   33888   33887   33889   33890   33891   33890   33892
   33893   33894   33893   33895   33896   33897   33896   33898
   33899   33900   33899   33901   33902   33903   33902   33904
   33905   33906   33905   33907   33908   33909   33908   33910
   33911   33912   33911   33913   33914   33915   33914   33916
   33917   33918   33917   33919   33920   33921   33920   33922
   33923   33924   33923   33925   33926   33927   33926   33928
   33929   33930   33929   33931   33932   33933   33932   33934
   33935   33936   33935   33937   33938   33939   33938   33940
   33941   33942   33941   33943   33944   33945   33944   33946
   33947   33948   33947   33949   33950   33951   33950   33952
   33953   33954   33953   33955   33956   33957   33956   33958
   33959   33960   33959   33961   33962   33963   33962   33964
   33965   33966   33965   33967   33968   33969   33968   33970
   33971   33972   33971   33973   33974   33975   33974   33976
   33977   33978   33977   33979   33980   33981   33980   33982
   33983   33984   33983   33985   33986   33987   33986   33988
   33989   33990   33989   33991   33992   33993   33992   33994
   33995   33996   33995   33997   33998   33999   33998   34000
   34001   34002   34001   34003   34004   34005   34004   34006
   34007   34008   34007   34009   34010   34011   34010   34012
   34013   34014   34013   34015   34016   34017   34016   34018
   34019   34020   34019   34021   34022   34023   34022   34024
   34025   34026   34025   34027   34028   34029   34028   34030
   34031   34032   34031   34033   34034   34035   34034   34036
   34037   34038   34037   34039   34040   34041   34040   34042
   34043   34044   34043   34045   34046   34047   34046   34048
   34049   34050   34049   34051   34052   34053   34052   34054
   34055   34056   34055   34057   34058   34059   34058   34060
   34061   34062   34061   34063   34064   34065   34064   34066
   34067   34068   34067   34069   34070   34071   34070   34072
   34073   34074   34073   34075   34076   34077   34076   34078
   34079   34080   34079   34081   34082   34083   34082   34084
   34085   34086   34085   34087   34088   34089   34088   34090
   34091   34092   34091   34093   34094   34095   34094   34096
   34097   34098   34097   34099   34100   34101   34100   34102
   34103   34104   34103   34105   34106   34107   34106   34108
   34109   34110   34109   34111   34112   34113   34112   34114
   34115   34116   34115   34117   34118   34119   34118   34120
   34121   34122   34121   34123   34124   34125   34124   34126
   34127   34128   34127   34129   34130   34131   34130   34132
   34133   34134   34133   34135   34136   34137   34136   34138
   34139   34140   34139   34141   34142   34143   34142   34144
   34145   34146   34145   34147   34148   34149   34148   34150
   34151   34152   34151   34153   34154   34155   34154   34156
   34157   34158   34157   34159   34160   34161   34160   34162
   34163   34164   34163   34165   34166   34167   34166   34168
   34169   34170   34169   34171   34172   34173   34172   34174
   34175   34176   34175   34177   34178   34179   34178   34180
   34181   34182   34181   34183   34184   34185   34184   34186
   34187   34188   34187   34189   34190   34191   34190   34192
   34193   34194   34193   34195   34196   34197   34196   34198
   34199   34200   34199   34201   34202   34203   34202   34204
   34205   34206   34205   34207   34208   34209   34208   34210
   34211   34212   34211   34213   34214   34215   34214   34216
   34217   34218   34217   34219   34220   34221   34220   34222
   34223   34224   34223   34225   34226   34227   34226   34228
   34229   34230   34229   34231   34232   34233   34232   34234
   34235   34236   34235   34237   34238   34239   34238   34240
   34241   34242   34241   34243   34244   34245   34244   34246
   34247   34248   34247   34249   34250   34251   34250   34252
   34253   34254   34253   34255   34256   34257   34256   34258
   34259   34260   34259   34261   34262   34263   34262   34264
   34265   34266   34265   34267   34268   34269   34268   34270
   34271   34272   34271   34273   34274   34275   34274   34276
   34277   34278   34277   34279   34280   34281   34280   34282
   34283   34284   34283   34285   34286   34287   34286   34288
   34289   34290   34289   34291   34292   34293   34292   34294
   34295   34296   34295   34297   34298   34299   34298   34300
   34301   34302   34301   34303   34304   34305   34304   34306
   34307   34308   34307   34309   34310   34311   34310   34312
   34313   34314   34313   34315   34316   34317   34316   34318
   34319   34320   34319   34321   34322   34323   34322   34324
   34325   34326   34325   34327   34328   34329   34328   34330
   34331   34332   34331   34333   34334   34335   34334   34336
   34337   34338   34337   34339   34340   34341   34340   34342
   34343   34344   34343   34345   34346   34347   34346   34348
   34349   34350   34349   34351   34352   34353   34352   34354
   34355   34356   34355   34357   34358   34359   34358   34360
   34361   34362   34361   34363   34364   34365   34364   34366
   34367   34368   34367   34369   34370   34371   34370   34372
   34373   34374   34373   34375   34376   34377   34376   34378
   34379   34380   34379   34381   34382   34383   34382   34384
   34385   34386   34385   34387   34388   34389   34388   34390
   34391   34392   34391   34393   34394   34395   34394   34396
   34397   34398   34397   34399   34400   34401   34400   34402
   34403   34404   34403   34405   34406   34407   34406   34408
   34409   34410   34409   34411   34412   34413   34412   34414
   34415   34416   34415   34417   34418   34419   34418   34420
   34421   34422   34421   34423   34424   34425   34424   34426
   34427   34428   34427   34429   34430   34431   34430   34432
   34433   34434   34433   34435   34436   34437   34436   34438
   34439   34440   34439   34441   34442   34443   34442   34444
   34445   34446   34445   34447   34448   34449   34448   34450
   34451   34452   34451   34453   34454   34455   34454   34456
   34457   34458   34457   34459   34460   34461   34460   34462
   34463   34464   34463   34465   34466   34467   34466   34468
   34469   34470   34469   34471   34472   34473   34472   34474
   34475   34476   34475   34477   34478   34479   34478   34480
   34481   34482   34481   34483   34484   34485   34484   34486
   34487   34488   34487   34489   34490   34491   34490   34492
   34493   34494   34493   34495   34496   34497   34496   34498
   34499   34500   34499   34501   34502   34503   34502   34504
   34505   34506   34505   34507   34508   34509   34508   34510
   34511   34512   34511   34513   34514   34515   34514   34516
   34517   34518   34517   34519   34520   34521   34520   34522
   34523   34524   34523   34525   34526   34527   34526   34528
   34529   34530   34529   34531   34532   34533   34532   34534
   34535   34536   34535   34537   34538   34539   34538   34540
   34541   34542   34541   34543   34544   34545   34544   34546
   34547   34548   34547   34549   34550   34551   34550   34552
   34553   34554   34553   34555   34556   34557   34556   34558
   34559   34560   34559   34561   34562   34563   34562   34564
   34565   34566   34565   34567   34568   34569   34568   34570
   34571   34572   34571   34573   34574   34575   34574   34576
   34577   34578   34577   34579   34580   34581   34580   34582
   34583   34584   34583   34585   34586   34587   34586   34588
   34589   34590   34589   34591   34592   34593   34592   34594
   34595   34596   34595   34597   34598   34599   34598   34600
   34601   34602   34601   34603   34604   34605   34604   34606
   34607   34608   34607   34609   34610   34611   34610   34612
   34613   34614   34613   34615   34616   34617   34616   34618
   34619   34620   34619   34621   34622   34623   34622   34624
   34625   34626   34625   34627   34628   34629   34628   34630
   34631   34632   34631   34633   34634   34635   34634   34636
   34637   34638   34637   34639   34640   34641   34640   34642
   34643   34644   34643   34645   34646   34647   34646   34648
   34649   34650   34649   34651   34652   34653   34652   34654
   34655   34656   34655   34657   34658   34659   34658   34660
   34661   34662   34661   34663   34664   34665   34664   34666
   34667   34668   34667   34669   34670   34671   34670   34672
   34673   34674   34673   34675   34676   34677   34676   34678
   34679   34680   34679   34681   34682   34683   34682   34684
   34685   34686   34685   34687   34688   34689   34688   34690
   34691   34692   34691   34693   34694   34695   34694   34696
   34697   34698   34697   34699   34700   34701   34700   34702
   34703   34704   34703   34705   34706   34707   34706   34708
   34709   34710   34709   34711   34712   34713   34712   34714
   34715   34716   34715   34717   34718   34719   34718   34720
   34721   34722   34721   34723   34724   34725   34724   34726
   34727   34728   34727   34729   34730   34731   34730   34732
   34733   34734   34733   34735   34736   34737   34736   34738
   34739   34740   34739   34741   34742   34743   34742   34744
   34745   34746   34745   34747   34748   34749   34748   34750
   34751   34752   34751   34753   34754   34755   34754   34756
   34757   34758   34757   34759   34760   34761   34760   34762
   34763   34764   34763   34765   34766   34767   34766   34768
   34769   34770   34769   34771   34772   34773   34772   34774
   34775   34776   34775   34777   34778   34779   34778   34780
   34781   34782   34781   34783   34784   34785   34784   34786
   34787   34788   34787   34789   34790   34791   34790   34792
   34793   34794   34793   34795   34796   34797   34796   34798
   34799   34800   34799   34801   34802   34803   34802   34804
   34805   34806   34805   34807   34808   34809   34808   34810
   34811   34812   34811   34813   34814   34815   34814   34816
   34817   34818   34817   34819   34820   34821   34820   34822
   34823   34824   34823   34825   34826   34827   34826   34828
   34829   34830   34829   34831   34832   34833   34832   34834
   34835   34836   34835   34837   34838   34839   34838   34840
   34841   34842   34841   34843   34844   34845   34844   34846
   34847   34848   34847   34849   34850   34851   34850   34852
   34853   34854   34853   34855   34856   34857   34856   34858
   34859   34860   34859   34861   34862   34863   34862   34864
   34865   34866   34865   34867   34868   34869   34868   34870
   34871   34872   34871   34873   34874   34875   34874   34876
   34877   34878   34877   34879   34880   34881   34880   34882
   34883   34884   34883   34885   34886   34887   34886   34888
   34889   34890   34889   34891   34892   34893   34892   34894
   34895   34896   34895   34897   34898   34899   34898   34900
   34901   34902   34901   34903   34904   34905   34904   34906
   34907   34908   34907   34909   34910   34911   34910   34912
   34913   34914   34913   34915   34916   34917   34916   34918
   34919   34920   34919   34921   34922   34923   34922   34924
   34925   34926   34925   34927   34928   34929   34928   34930
   34931   34932   34931   34933   34934   34935   34934   34936
   34937   34938   34937   34939   34940   34941   34940   34942
   34943   34944   34943   34945   34946   34947   34946   34948
   34949   34950   34949   34951   34952   34953   34952   34954
   34955   34956   34955   34957   34958   34959   34958   34960
   34961   34962   34961   34963   34964   34965   34964   34966
   34967   34968   34967   34969   34970   34971   34970   34972
   34973   34974   34973   34975   34976   34977   34976   34978
   34979   34980   34979   34981   34982   34983   34982   34984
   34985   34986   34985   34987   34988   34989   34988   34990
   34991   34992   34991   34993   34994   34995   34994   34996
   34997   34998   34997   34999   35000   35001   35000   35002
   35003   35004   35003   35005   35006   35007   35006   35008
   35009   35010   35009   35011   35012   35013   35012   35014
   35015   35016   35015   35017   35018   35019   35018   35020
   35021   35022   35021   35023   35024   35025   35024   35026
   35027   35028   35027   35029   35030   35031   35030   35032
   35033   35034   35033   35035   35036   35037   35036   35038
   35039   35040   35039   35041   35042   35043   35042   35044
   35045   35046   35045   35047   35048   35049   35048   35050
   35051   35052   35051   35053   35054   35055   35054   35056
   35057   35058   35057   35059   35060   35061   35060   35062
   35063   35064   35063   35065   35066   35067   35066   35068
   35069   35070   35069   35071   35072   35073   35072   35074
   35075   35076   35075   35077   35078   35079   35078   35080
   35081   35082   35081   35083   35084   35085   35084   35086
   35087   35088   35087   35089   35090   35091   35090   35092
   35093   35094   35093   35095   35096   35097   35096   35098
   35099   35100   35099   35101   35102   35103   35102   35104
   35105   35106   35105   35107   35108   35109   35108   35110
   35111   35112   35111   35113   35114   35115   35114   35116
   35117   35118   35117   35119   35120   35121   35120   35122
   35123   35124   35123   35125   35126   35127   35126   35128
   35129   35130   35129   35131   35132   35133   35132   35134
   35135   35136   35135   35137   35138   35139   35138   35140
   35141   35142   35141   35143   35144   35145   35144   35146
   35147   35148   35147   35149   35150   35151   35150   35152
   35153   35154   35153   35155   35156   35157   35156   35158
   35159   35160   35159   35161   35162   35163   35162   35164
   35165   35166   35165   35167   35168   35169   35168   35170
   35171   35172   35171   35173   35174   35175   35174   35176
   35177   35178   35177   35179   35180   35181   35180   35182
   35183   35184   35183   35185   35186   35187   35186   35188
   35189   35190   35189   35191   35192   35193   35192   35194
   35195   35196   35195   35197   35198   35199   35198   35200
   35201   35202   35201   35203   35204   35205   35204   35206
   35207   35208   35207   35209   35210   35211   35210   35212
   35213   35214   35213   35215   35216   35217   35216   35218
   35219   35220   35219   35221   35222   35223   35222   35224
   35225   35226   35225   35227   35228   35229   35228   35230
   35231   35232   35231   35233   35234   35235   35234   35236
   35237   35238   35237   35239   35240   35241   35240   35242
   35243   35244   35243   35245   35246   35247   35246   35248
   35249   35250   35249   35251   35252   35253   35252   35254
   35255   35256   35255   35257   35258   35259   35258   35260
   35261   35262   35261   35263   35264   35265   35264   35266
   35267   35268   35267   35269   35270   35271   35270   35272
   35273   35274   35273   35275   35276   35277   35276   35278
   35279   35280   35279   35281   35282   35283   35282   35284
   35285   35286   35285   35287   35288   35289   35288   35290
   35291   35292   35291   35293   35294   35295   35294   35296
   35297   35298   35297   35299   35300   35301   35300   35302
   35303   35304   35303   35305   35306   35307   35306   35308
   35309   35310   35309   35311   35312   35313   35312   35314
   35315   35316   35315   35317   35318   35319   35318   35320
   35321   35322   35321   35323   35324   35325   35324   35326
   35327   35328   35327   35329   35330   35331   35330   35332
   35333   35334   35333   35335   35336   35337   35336   35338
   35339   35340   35339   35341   35342   35343   35342   35344
   35345   35346   35345   35347   35348   35349   35348   35350
   35351   35352   35351   35353   35354   35355   35354   35356
   35357   35358   35357   35359   35360   35361   35360   35362
   35363   35364   35363   35365   35366   35367   35366   35368
   35369   35370   35369   35371   35372   35373   35372   35374
   35375   35376   35375   35377   35378   35379   35378   35380
   35381   35382   35381   35383   35384   35385   35384   35386
   35387   35388   35387   35389   35390   35391   35390   35392
   35393   35394   35393   35395   35396   35397   35396   35398
   35399   35400   35399   35401   35402   35403   35402   35404
   35405   35406   35405   35407   35408   35409   35408   35410
   35411   35412   35411   35413   35414   35415   35414   35416
   35417   35418   35417   35419   35420   35421   35420   35422
   35423   35424   35423   35425   35426   35427   35426   35428
   35429   35430   35429   35431   35432   35433   35432   35434
   35435   35436   35435   35437   35438   35439   35438   35440
   35441   35442   35441   35443   35444   35445   35444   35446
   35447   35448   35447   35449   35450   35451   35450   35452
   35453   35454   35453   35455   35456   35457   35456   35458
   35459   35460   35459   35461   35462   35463   35462   35464
   35465   35466   35465   35467   35468   35469   35468   35470
   35471   35472   35471   35473   35474   35475   35474   35476
   35477   35478   35477   35479   35480   35481   35480   35482
   35483   35484   35483   35485   35486   35487   35486   35488
   35489   35490   35489   35491   35492   35493   35492   35494
   35495   35496   35495   35497   35498   35499   35498   35500
   35501   35502   35501   35503   35504   35505   35504   35506
   35507   35508   35507   35509   35510   35511   35510   35512
   35513   35514   35513   35515   35516   35517   35516   35518
   35519   35520   35519   35521   35522   35523   35522   35524
   35525   35526   35525   35527   35528   35529   35528   35530
   35531   35532   35531   35533   35534   35535   35534   35536
   35537   35538   35537   35539   35540   35541   35540   35542
   35543   35544   35543   35545   35546   35547   35546   35548
   35549   35550   35549   35551   35552   35553   35552   35554
   35555   35556   35555   35557   35558   35559   35558   35560
   35561   35562   35561   35563   35564   35565   35564   35566
   35567   35568   35567   35569   35570   35571   35570   35572
   35573   35574   35573   35575   35576   35577   35576   35578
   35579   35580   35579   35581   35582   35583   35582   35584
   35585   35586   35585   35587   35588   35589   35588   35590
   35591   35592   35591   35593   35594   35595   35594   35596
   35597   35598   35597   35599   35600   35601   35600   35602
   35603   35604   35603   35605   35606   35607   35606   35608
   35609   35610   35609   35611   35612   35613   35612   35614
   35615   35616   35615   35617   35618   35619   35618   35620
   35621   35622   35621   35623   35624   35625   35624   35626
   35627   35628   35627   35629   35630   35631   35630   35632
   35633   35634   35633   35635   35636   35637   35636   35638
   35639   35640   35639   35641   35642   35643   35642   35644
   35645   35646   35645   35647   35648   35649   35648   35650
   35651   35652   35651   35653   35654   35655   35654   35656
   35657   35658   35657   35659   35660   35661   35660   35662
   35663   35664   35663   35665   35666   35667   35666   35668
   35669   35670   35669   35671   35672   35673   35672   35674
   35675   35676   35675   35677   35678   35679   35678   35680
   35681   35682   35681   35683   35684   35685   35684   35686
   35687   35688   35687   35689   35690   35691   35690   35692
   35693   35694   35693   35695   35696   35697   35696   35698
   35699   35700   35699   35701   35702   35703   35702   35704
   35705   35706   35705   35707   35708   35709   35708   35710
   35711   35712   35711   35713   35714   35715   35714   35716
   35717   35718   35717   35719   35720   35721   35720   35722
   35723   35724   35723   35725   35726   35727   35726   35728
   35729   35730   35729   35731   35732   35733   35732   35734
   35735   35736   35735   35737   35738   35739   35738   35740
   35741   35742   35741   35743   35744   35745   35744   35746
   35747   35748   35747   35749   35750   35751   35750   35752
   35753   35754   35753   35755   35756   35757   35756   35758
   35759   35760   35759   35761   35762   35763   35762   35764
   35765   35766   35765   35767   35768   35769   35768   35770
   35771   35772   35771   35773   35774   35775   35774   35776
   35777   35778   35777   35779   35780   35781   35780   35782
   35783   35784   35783   35785   35786   35787   35786   35788
   35789   35790   35789   35791   35792   35793   35792   35794
   35795   35796   35795   35797   35798   35799   35798   35800
   35801   35802   35801   35803   35804   35805   35804   35806
   35807   35808   35807   35809   35810   35811   35810   35812
   35813   35814   35813   35815   35816   35817   35816   35818
   35819   35820   35819   35821   35822   35823   35822   35824
   35825   35826   35825   35827   35828   35829   35828   35830
   35831   35832   35831   35833   35834   35835   35834   35836
   35837   35838   35837   35839   35840   35841   35840   35842
   35843   35844   35843   35845   35846   35847   35846   35848
   35849   35850   35849   35851   35852   35853   35852   35854
   35855   35856   35855   35857   35858   35859   35858   35860
   35861   35862   35861   35863   35864   35865   35864   35866
   35867   35868   35867   35869   35870   35871   35870   35872
   35873   35874   35873   35875   35876   35877   35876   35878
   35879   35880   35879   35881   35882   35883   35882   35884
   35885   35886   35885   35887   35888   35889   35888   35890
   35891   35892   35891   35893   35894   35895   35894   35896
   35897   35898   35897   35899   35900   35901   35900   35902
   35903   35904   35903   35905   35906   35907   35906   35908
   35909   35910   35909   35911   35912   35913   35912   35914
   35915   35916   35915   35917   35918   35919   35918   35920
   35921   35922   35921   35923   35924   35925   35924   35926
   35927   35928   35927   35929   35930   35931   35930   35932
   35933   35934   35933   35935   35936   35937   35936   35938
   35939   35940   35939   35941   35942   35943   35942   35944
   35945   35946   35945   35947   35948   35949   35948   35950
   35951   35952   35951   35953   35954   35955   35954   35956
   35957   35958   35957   35959   35960   35961   35960   35962
   35963   35964   35963   35965   35966   35967   35966   35968
   35969   35970   35969   35971   35972   35973   35972   35974
   35975   35976   35975   35977   35978   35979   35978   35980
   35981   35982   35981   35983   35984   35985   35984   35986
   35987   35988   35987   35989   35990   35991   35990   35992
   35993   35994   35993   35995   35996   35997   35996   35998
   35999   36000   35999   36001   36002   36003   36002   36004
   36005   36006   36005   36007   36008   36009   36008   36010
   36011   36012   36011   36013   36014   36015   36014   36016
   36017   36018   36017   36019   36020   36021   36020   36022
   36023   36024   36023   36025   36026   36027   36026   36028
   36029   36030   36029   36031   36032   36033   36032   36034
   36035   36036   36035   36037   36038   36039   36038   36040
   36041   36042   36041   36043   36044   36045   36044   36046
   36047   36048   36047   36049   36050   36051   36050   36052
   36053   36054   36053   36055   36056   36057   36056   36058
   36059   36060   36059   36061   36062   36063   36062   36064
   36065   36066   36065   36067   36068   36069   36068   36070
   36071   36072   36071   36073   36074   36075   36074   36076
   36077   36078   36077   36079   36080   36081   36080   36082
   36083   36084   36083   36085   36086   36087   36086   36088
   36089   36090   36089   36091   36092   36093   36092   36094
   36095   36096   36095   36097   36098   36099   36098   36100
   36101   36102   36101   36103   36104   36105   36104   36106
   36107   36108   36107   36109   36110   36111   36110   36112
   36113   36114   36113   36115   36116   36117   36116   36118
   36119   36120   36119   36121   36122   36123   36122   36124
   36125   36126   36125   36127   36128   36129   36128   36130
   36131   36132   36131   36133   36134   36135   36134   36136
   36137   36138   36137   36139   36140   36141   36140   36142
   36143   36144   36143   36145   36146   36147   36146   36148
   36149   36150   36149   36151   36152   36153   36152   36154
   36155   36156   36155   36157   36158   36159   36158   36160
   36161   36162   36161   36163   36164   36165   36164   36166
   36167   36168   36167   36169   36170   36171   36170   36172
   36173   36174   36173   36175   36176   36177   36176   36178
   36179   36180   36179   36181   36182   36183   36182   36184
   36185   36186   36185   36187   36188   36189   36188   36190
   36191   36192   36191   36193   36194   36195   36194   36196
   36197   36198   36197   36199   36200   36201   36200   36202
   36203   36204   36203   36205   36206   36207   36206   36208
   36209   36210   36209   36211   36212   36213   36212   36214
   36215   36216   36215   36217   36218   36219   36218   36220
   36221   36222   36221   36223   36224   36225   36224   36226
   36227   36228   36227   36229   36230   36231   36230   36232
   36233   36234   36233   36235   36236   36237   36236   36238
   36239   36240   36239   36241   36242   36243   36242   36244
   36245   36246   36245   36247   36248   36249   36248   36250
   36251   36252   36251   36253   36254   36255   36254   36256
   36257   36258   36257   36259   36260   36261   36260   36262
   36263   36264   36263   36265   36266   36267   36266   36268
   36269   36270   36269   36271   36272   36273   36272   36274
   36275   36276   36275   36277   36278   36279   36278   36280
   36281   36282   36281   36283   36284   36285   36284   36286
   36287   36288   36287   36289   36290   36291   36290   36292
   36293   36294   36293   36295   36296   36297   36296   36298
   36299   36300   36299   36301   36302   36303   36302   36304
   36305   36306   36305   36307   36308   36309   36308   36310
   36311   36312   36311   36313   36314   36315   36314   36316
   36317   36318   36317   36319   36320   36321   36320   36322
   36323   36324   36323   36325   36326   36327   36326   36328
   36329   36330   36329   36331   36332   36333   36332   36334
   36335   36336   36335   36337   36338   36339   36338   36340
   36341   36342   36341   36343   36344   36345   36344   36346
   36347   36348   36347   36349   36350   36351   36350   36352
   36353   36354   36353   36355   36356   36357   36356   36358
   36359   36360   36359   36361   36362   36363   36362   36364
   36365   36366   36365   36367   36368   36369   36368   36370
   36371   36372   36371   36373   36374   36375   36374   36376
   36377   36378   36377   36379   36380   36381   36380   36382
   36383   36384   36383   36385   36386   36387   36386   36388
   36389   36390   36389   36391   36392   36393   36392   36394
   36395   36396   36395   36397   36398   36399   36398   36400
   36401   36402   36401   36403   36404   36405   36404   36406
   36407   36408   36407   36409   36410   36411   36410   36412
   36413   36414   36413   36415   36416   36417   36416   36418
   36419   36420   36419   36421   36422   36423   36422   36424
   36425   36426   36425   36427   36428   36429   36428   36430
   36431   36432   36431   36433   36434   36435   36434   36436
   36437   36438   36437   36439   36440   36441   36440   36442
   36443   36444   36443   36445   36446   36447   36446   36448
   36449   36450   36449   36451   36452   36453   36452   36454
   36455   36456   36455   36457   36458   36459   36458   36460
   36461   36462   36461   36463   36464   36465   36464   36466
   36467   36468   36467   36469   36470   36471   36470   36472
   36473   36474   36473   36475   36476   36477   36476   36478
   36479   36480   36479   36481   36482   36483   36482   36484
   36485   36486   36485   36487   36488   36489   36488   36490
   36491   36492   36491   36493   36494   36495   36494   36496
   36497   36498   36497   36499   36500   36501   36500   36502
   36503   36504   36503   36505   36506   36507   36506   36508
   36509   36510   36509   36511   36512   36513   36512   36514
   36515   36516   36515   36517   36518   36519   36518   36520
   36521   36522   36521   36523   36524   36525   36524   36526
   36527   36528   36527   36529   36530   36531   36530   36532
   36533   36534   36533   36535   36536   36537   36536   36538
   36539   36540   36539   36541   36542   36543   36542   36544
   36545   36546   36545   36547   36548   36549   36548   36550
   36551   36552   36551   36553   36554   36555   36554   36556
   36557   36558   36557   36559   36560   36561   36560   36562
   36563   36564   36563   36565   36566   36567   36566   36568
   36569   36570   36569   36571   36572   36573   36572   36574
   36575   36576   36575   36577   36578   36579   36578   36580
   36581   36582   36581   36583   36584   36585   36584   36586
   36587   36588   36587   36589   36590   36591   36590   36592
   36593   36594   36593   36595   36596   36597   36596   36598
   36599   36600   36599   36601   36602   36603   36602   36604
   36605   36606   36605   36607   36608   36609   36608   36610
   36611   36612   36611   36613   36614   36615   36614   36616
   36617   36618   36617   36619   36620   36621   36620   36622
   36623   36624   36623   36625   36626   36627   36626   36628
   36629   36630   36629   36631   36632   36633   36632   36634
   36635   36636   36635   36637   36638   36639   36638   36640
   36641   36642   36641   36643   36644   36645   36644   36646
   36647   36648   36647   36649   36650   36651   36650   36652
   36653   36654   36653   36655   36656   36657   36656   36658
   36659   36660   36659   36661   36662   36663   36662   36664
   36665   36666   36665   36667   36668   36669   36668   36670
   36671   36672   36671   36673   36674   36675   36674   36676
   36677   36678   36677   36679   36680   36681   36680   36682
   36683   36684   36683   36685   36686   36687   36686   36688
   36689   36690   36689   36691   36692   36693   36692   36694
   36695   36696   36695   36697   36698   36699   36698   36700
   36701   36702   36701   36703   36704   36705   36704   36706
   36707   36708   36707   36709   36710   36711   36710   36712
   36713   36714   36713   36715   36716   36717   36716   36718
   36719   36720   36719   36721   36722   36723   36722   36724
   36725   36726   36725   36727   36728   36729   36728   36730
   36731   36732   36731   36733   36734   36735   36734   36736
   36737   36738   36737   36739   36740   36741   36740   36742
   36743   36744   36743   36745   36746   36747   36746   36748
   36749   36750   36749   36751   36752   36753   36752   36754
   36755   36756   36755   36757   36758   36759   36758   36760
   36761   36762   36761   36763   36764   36765   36764   36766
   36767   36768   36767   36769   36770   36771   36770   36772
   36773   36774   36773   36775   36776   36777   36776   36778
   36779   36780   36779   36781   36782   36783   36782   36784
   36785   36786   36785   36787   36788   36789   36788   36790
   36791   36792   36791   36793   36794   36795   36794   36796
   36797   36798   36797   36799   36800   36801   36800   36802
   36803   36804   36803   36805   36806   36807   36806   36808
   36809   36810   36809   36811   36812   36813   36812   36814
   36815   36816   36815   36817   36818   36819   36818   36820
   36821   36822   36821   36823   36824   36825   36824   36826
   36827   36828   36827   36829   36830   36831   36830   36832
   36833   36834   36833   36835   36836   36837   36836   36838
   36839   36840   36839   36841   36842   36843   36842   36844
   36845   36846   36845   36847   36848   36849   36848   36850
   36851   36852   36851   36853   36854   36855   36854   36856
   36857   36858   36857   36859   36860   36861   36860   36862
   36863   36864   36863   36865   36866   36867   36866   36868
   36869   36870   36869   36871   36872   36873   36872   36874
   36875   36876   36875   36877   36878   36879   36878   36880
   36881   36882   36881   36883   36884   36885   36884   36886
   36887   36888   36887   36889   36890   36891   36890   36892
   36893   36894   36893   36895   36896   36897   36896   36898
   36899   36900   36899   36901   36902   36903   36902   36904
   36905   36906   36905   36907   36908   36909   36908   36910
   36911   36912   36911   36913   36914   36915   36914   36916
   36917   36918   36917   36919   36920   36921   36920   36922
   36923   36924   36923   36925   36926   36927   36926   36928
   36929   36930   36929   36931   36932   36933   36932   36934
   36935   36936   36935   36937   36938   36939   36938   36940
   36941   36942   36941   36943   36944   36945   36944   36946
   36947   36948   36947   36949   36950   36951   36950   36952
   36953   36954   36953   36955   36956   36957   36956   36958
   36959   36960   36959   36961   36962   36963   36962   36964
   36965   36966   36965   36967   36968   36969   36968   36970
   36971   36972   36971   36973   36974   36975   36974   36976
   36977   36978   36977   36979   36980   36981   36980   36982
   36983   36984   36983   36985   36986   36987   36986   36988
   36989   36990   36989   36991   36992   36993   36992   36994
   36995   36996   36995   36997   36998   36999   36998   37000
   37001   37002   37001   37003   37004   37005   37004   37006
   37007   37008   37007   37009   37010   37011   37010   37012
   37013   37014   37013   37015   37016   37017   37016   37018
   37019   37020   37019   37021   37022   37023   37022   37024
   37025   37026   37025   37027   37028   37029   37028   37030
   37031   37032   37031   37033   37034   37035   37034   37036
   37037   37038   37037   37039   37040   37041   37040   37042
   37043   37044   37043   37045   37046   37047   37046   37048
   37049   37050   37049   37051   37052   37053   37052   37054
   37055   37056   37055   37057   37058   37059   37058   37060
   37061   37062   37061   37063   37064   37065   37064   37066
   37067   37068   37067   37069   37070   37071   37070   37072
   37073   37074   37073   37075   37076   37077   37076   37078
   37079   37080   37079   37081   37082   37083   37082   37084
   37085   37086   37085   37087   37088   37089   37088   37090
   37091   37092   37091   37093   37094   37095   37094   37096
   37097   37098   37097   37099   37100   37101   37100   37102
   37103   37104   37103   37105   37106   37107   37106   37108
   37109   37110   37109   37111   37112   37113   37112   37114
   37115   37116   37115   37117   37118   37119   37118   37120
   37121   37122   37121   37123   37124   37125   37124   37126
   37127   37128   37127   37129   37130   37131   37130   37132
   37133   37134   37133   37135   37136   37137   37136   37138
   37139   37140   37139   37141   37142   37143   37142   37144
   37145   37146   37145   37147   37148   37149   37148   37150
   37151   37152   37151   37153   37154   37155   37154   37156
   37157   37158   37157   37159   37160   37161   37160   37162
   37163   37164   37163   37165   37166   37167   37166   37168
   37169   37170   37169   37171   37172   37173   37172   37174
   37175   37176   37175   37177   37178   37179   37178   37180
   37181   37182   37181   37183   37184   37185   37184   37186
   37187   37188   37187   37189   37190   37191   37190   37192
   37193   37194   37193   37195   37196   37197   37196   37198
   37199   37200   37199   37201   37202   37203   37202   37204
   37205   37206   37205   37207   37208   37209   37208   37210
   37211   37212   37211   37213   37214   37215   37214   37216
   37217   37218   37217   37219   37220   37221   37220   37222
   37223   37224   37223   37225   37226   37227   37226   37228
   37229   37230   37229   37231   37232   37233   37232   37234
   37235   37236   37235   37237   37238   37239   37238   37240
   37241   37242   37241   37243   37244   37245   37244   37246
   37247   37248   37247   37249   37250   37251   37250   37252
   37253   37254   37253   37255   37256   37257   37256   37258
   37259   37260   37259   37261   37262   37263   37262   37264
   37265   37266   37265   37267   37268   37269   37268   37270
   37271   37272   37271   37273   37274   37275   37274   37276
   37277   37278   37277   37279   37280   37281   37280   37282
   37283   37284   37283   37285   37286   37287   37286   37288
   37289   37290   37289   37291   37292   37293   37292   37294
   37295   37296   37295   37297   37298   37299   37298   37300
   37301   37302   37301   37303   37304   37305   37304   37306
   37307   37308   37307   37309   37310   37311   37310   37312
   37313   37314   37313   37315   37316   37317   37316   37318
   37319   37320   37319   37321   37322   37323   37322   37324
   37325   37326   37325   37327   37328   37329   37328   37330
   37331   37332   37331   37333   37334   37335   37334   37336
   37337   37338   37337   37339   37340   37341   37340   37342
   37343   37344   37343   37345   37346   37347   37346   37348
   37349   37350   37349   37351   37352   37353   37352   37354
   37355   37356   37355   37357   37358   37359   37358   37360
   37361   37362   37361   37363   37364   37365   37364   37366
   37367   37368   37367   37369   37370   37371   37370   37372
   37373   37374   37373   37375   37376   37377   37376   37378
   37379   37380   37379   37381   37382   37383   37382   37384
   37385   37386   37385   37387   37388   37389   37388   37390
   37391   37392   37391   37393   37394   37395   37394   37396
   37397   37398   37397   37399   37400   37401   37400   37402
   37403   37404   37403   37405   37406   37407   37406   37408
   37409   37410   37409   37411   37412   37413   37412   37414
   37415   37416   37415   37417   37418   37419   37418   37420
   37421   37422   37421   37423   37424   37425   37424   37426
   37427   37428   37427   37429   37430   37431   37430   37432
   37433   37434   37433   37435   37436   37437   37436   37438
   37439   37440   37439   37441   37442   37443   37442   37444
   37445   37446   37445   37447   37448   37449   37448   37450
   37451   37452   37451   37453   37454   37455   37454   37456
   37457   37458   37457   37459   37460   37461   37460   37462
   37463   37464   37463   37465   37466   37467   37466   37468
   37469   37470   37469   37471   37472   37473   37472   37474
   37475   37476   37475   37477   37478   37479   37478   37480
   37481   37482   37481   37483   37484   37485   37484   37486
   37487   37488   37487   37489   37490   37491   37490   37492
   37493   37494   37493   37495   37496   37497   37496   37498
   37499   37500   37499   37501   37502   37503   37502   37504
   37505   37506   37505   37507   37508   37509   37508   37510
   37511   37512   37511   37513   37514   37515   37514   37516
   37517   37518   37517   37519   37520   37521   37520   37522
   37523   37524   37523   37525   37526   37527   37526   37528
   37529   37530   37529   37531   37532   37533   37532   37534
   37535   37536   37535   37537   37538   37539   37538   37540
   37541   37542   37541   37543   37544   37545   37544   37546
   37547   37548   37547   37549   37550   37551   37550   37552
   37553   37554   37553   37555   37556   37557   37556   37558
   37559   37560   37559   37561   37562   37563   37562   37564
   37565   37566   37565   37567   37568   37569   37568   37570
   37571   37572   37571   37573   37574   37575   37574   37576
   37577   37578   37577   37579   37580   37581   37580   37582
   37583   37584   37583   37585   37586   37587   37586   37588
   37589   37590   37589   37591   37592   37593   37592   37594
   37595   37596   37595   37597   37598   37599   37598   37600
   37601   37602   37601   37603   37604   37605   37604   37606
   37607   37608   37607   37609   37610   37611   37610   37612
   37613   37614   37613   37615   37616   37617   37616   37618
   37619   37620   37619   37621   37622   37623   37622   37624
   37625   37626   37625   37627   37628   37629   37628   37630
   37631   37632   37631   37633   37634   37635   37634   37636
   37637   37638   37637   37639   37640   37641   37640   37642
   37643   37644   37643   37645   37646   37647   37646   37648
   37649   37650   37649   37651   37652   37653   37652   37654
   37655   37656   37655   37657   37658   37659   37658   37660
   37661   37662   37661   37663   37664   37665   37664   37666
   37667   37668   37667   37669   37670   37671   37670   37672
   37673   37674   37673   37675   37676   37677   37676   37678
   37679   37680   37679   37681   37682   37683   37682   37684
   37685   37686   37685   37687   37688   37689   37688   37690
   37691   37692   37691   37693   37694   37695   37694   37696
   37697   37698   37697   37699   37700   37701   37700   37702
   37703   37704   37703   37705   37706   37707   37706   37708
   37709   37710   37709   37711   37712   37713   37712   37714
   37715   37716   37715   37717   37718   37719   37718   37720
   37721   37722   37721   37723   37724   37725   37724   37726
   37727   37728   37727   37729   37730   37731   37730   37732
   37733   37734   37733   37735   37736   37737   37736   37738
   37739   37740   37739   37741   37742   37743   37742   37744
   37745   37746   37745   37747   37748   37749   37748   37750
   37751   37752   37751   37753   37754   37755   37754   37756
   37757   37758   37757   37759   37760   37761   37760   37762
   37763   37764   37763   37765   37766   37767   37766   37768
   37769   37770   37769   37771   37772   37773   37772   37774
   37775   37776   37775   37777   37778   37779   37778   37780
   37781   37782   37781   37783   37784   37785   37784   37786
   37787   37788   37787   37789   37790   37791   37790   37792
   37793   37794   37793   37795   37796   37797   37796   37798
   37799   37800   37799   37801   37802   37803   37802   37804
   37805   37806   37805   37807   37808   37809   37808   37810
   37811   37812   37811   37813   37814   37815   37814   37816
   37817   37818   37817   37819   37820   37821   37820   37822
   37823   37824   37823   37825   37826   37827   37826   37828
   37829   37830   37829   37831   37832   37833   37832   37834
   37835   37836   37835   37837   37838   37839   37838   37840
   37841   37842   37841   37843   37844   37845   37844   37846
   37847   37848   37847   37849   37850   37851   37850   37852
   37853   37854   37853   37855   37856   37857   37856   37858
   37859   37860   37859   37861   37862   37863   37862   37864
   37865   37866   37865   37867   37868   37869   37868   37870
   37871   37872   37871   37873   37874   37875   37874   37876
   37877   37878   37877   37879   37880   37881   37880   37882
   37883   37884   37883   37885   37886   37887   37886   37888
   37889   37890   37889   37891   37892   37893   37892   37894
   37895   37896   37895   37897   37898   37899   37898   37900
   37901   37902   37901   37903   37904   37905   37904   37906
   37907   37908   37907   37909   37910   37911   37910   37912
   37913   37914   37913   37915   37916   37917   37916   37918
   37919   37920   37919   37921   37922   37923   37922   37924
   37925   37926   37925   37927   37928   37929   37928   37930
   37931   37932   37931   37933   37934   37935   37934   37936
   37937   37938   37937   37939   37940   37941   37940   37942
   37943   37944   37943   37945   37946   37947   37946   37948
   37949   37950   37949   37951   37952   37953   37952   37954
   37955   37956   37955   37957   37958   37959   37958   37960
   37961   37962   37961   37963   37964   37965   37964   37966
   37967   37968   37967   37969   37970   37971   37970   37972
   37973   37974   37973   37975   37976   37977   37976   37978
   37979   37980   37979   37981   37982   37983   37982   37984
   37985   37986   37985   37987   37988   37989   37988   37990
   37991   37992   37991   37993   37994   37995   37994   37996
   37997   37998   37997   37999   38000   38001   38000   38002
   38003   38004   38003   38005   38006   38007   38006   38008
   38009   38010   38009   38011   38012   38013   38012   38014
   38015   38016   38015   38017   38018   38019   38018   38020
   38021   38022   38021   38023   38024   38025   38024   38026
   38027   38028   38027   38029   38030   38031   38030   38032
   38033   38034   38033   38035   38036   38037   38036   38038
   38039   38040   38039   38041   38042   38043   38042   38044
   38045   38046   38045   38047   38048   38049   38048   38050
   38051   38052   38051   38053   38054   38055   38054   38056
   38057   38058   38057   38059   38060   38061   38060   38062
   38063   38064   38063   38065   38066   38067   38066   38068
   38069   38070   38069   38071   38072   38073   38072   38074
   38075   38076   38075   38077   38078   38079   38078   38080
   38081   38082   38081   38083   38084   38085   38084   38086
   38087   38088   38087   38089   38090   38091   38090   38092
   38093   38094   38093   38095   38096   38097   38096   38098
   38099   38100   38099   38101   38102   38103   38102   38104
   38105   38106   38105   38107   38108   38109   38108   38110
   38111   38112   38111   38113   38114   38115   38114   38116
   38117   38118   38117   38119   38120   38121   38120   38122
   38123   38124   38123   38125   38126   38127   38126   38128
   38129   38130   38129   38131   38132   38133   38132   38134
   38135   38136   38135   38137   38138   38139   38138   38140
   38141   38142   38141   38143   38144   38145   38144   38146
   38147   38148   38147   38149   38150   38151   38150   38152
   38153   38154   38153   38155   38156   38157   38156   38158
   38159   38160   38159   38161   38162   38163   38162   38164
   38165   38166   38165   38167   38168   38169   38168   38170
   38171   38172   38171   38173   38174   38175   38174   38176
   38177   38178   38177   38179   38180   38181   38180   38182
   38183   38184   38183   38185   38186   38187   38186   38188
   38189   38190   38189   38191   38192   38193   38192   38194
   38195   38196   38195   38197   38198   38199   38198   38200
   38201   38202   38201   38203   38204   38205   38204   38206
   38207   38208   38207   38209   38210   38211   38210   38212
   38213   38214   38213   38215   38216   38217   38216   38218
   38219   38220   38219   38221   38222   38223   38222   38224
   38225   38226   38225   38227   38228   38229   38228   38230
   38231   38232   38231   38233   38234   38235   38234   38236
   38237   38238   38237   38239   38240   38241   38240   38242
   38243   38244   38243   38245   38246   38247   38246   38248
   38249   38250   38249   38251   38252   38253   38252   38254
   38255   38256   38255   38257   38258   38259   38258   38260
   38261   38262   38261   38263   38264   38265   38264   38266
   38267   38268   38267   38269   38270   38271   38270   38272
   38273   38274   38273   38275   38276   38277   38276   38278
   38279   38280   38279   38281   38282   38283   38282   38284
   38285   38286   38285   38287   38288   38289   38288   38290
   38291   38292   38291   38293   38294   38295   38294   38296
   38297   38298   38297   38299   38300   38301   38300   38302
   38303   38304   38303   38305   38306   38307   38306   38308
   38309   38310   38309   38311   38312   38313   38312   38314
   38315   38316   38315   38317   38318   38319   38318   38320
   38321   38322   38321   38323   38324   38325   38324   38326
   38327   38328   38327   38329   38330   38331   38330   38332
   38333   38334   38333   38335   38336   38337   38336   38338
   38339   38340   38339   38341   38342   38343   38342   38344
   38345   38346   38345   38347   38348   38349   38348   38350
   38351   38352   38351   38353   38354   38355   38354   38356
   38357   38358   38357   38359   38360   38361   38360   38362
   38363   38364   38363   38365   38366   38367   38366   38368
   38369   38370   38369   38371   38372   38373   38372   38374
   38375   38376   38375   38377   38378   38379   38378   38380
   38381   38382   38381   38383   38384   38385   38384   38386
   38387   38388   38387   38389   38390   38391   38390   38392
   38393   38394   38393   38395   38396   38397   38396   38398
   38399   38400   38399   38401   38402   38403   38402   38404
   38405   38406   38405   38407   38408   38409   38408   38410
   38411   38412   38411   38413   38414   38415   38414   38416
   38417   38418   38417   38419   38420   38421   38420   38422
   38423   38424   38423   38425   38426   38427   38426   38428
   38429   38430   38429   38431   38432   38433   38432   38434
   38435   38436   38435   38437   38438   38439   38438   38440
   38441   38442   38441   38443   38444   38445   38444   38446
   38447   38448   38447   38449   38450   38451   38450   38452
   38453   38454   38453   38455   38456   38457   38456   38458
   38459   38460   38459   38461   38462   38463   38462   38464
   38465   38466   38465   38467   38468   38469   38468   38470
   38471   38472   38471   38473   38474   38475   38474   38476
   38477   38478   38477   38479   38480   38481   38480   38482
   38483   38484   38483   38485   38486   38487   38486   38488
   38489   38490   38489   38491   38492   38493   38492   38494
   38495   38496   38495   38497   38498   38499   38498   38500
   38501   38502   38501   38503   38504   38505   38504   38506
   38507   38508   38507   38509   38510   38511   38510   38512
   38513   38514   38513   38515   38516   38517   38516   38518
   38519   38520   38519   38521   38522   38523   38522   38524
   38525   38526   38525   38527   38528   38529   38528   38530
   38531   38532   38531   38533   38534   38535   38534   38536
   38537   38538   38537   38539   38540   38541   38540   38542
   38543   38544   38543   38545   38546   38547   38546   38548
   38549   38550   38549   38551   38552   38553   38552   38554
   38555   38556   38555   38557   38558   38559   38558   38560
   38561   38562   38561   38563   38564   38565   38564   38566
   38567   38568   38567   38569   38570   38571   38570   38572
   38573   38574   38573   38575   38576   38577   38576   38578
   38579   38580   38579   38581   38582   38583   38582   38584
   38585   38586   38585   38587   38588   38589   38588   38590
   38591   38592   38591   38593   38594   38595   38594   38596
   38597   38598   38597   38599   38600   38601   38600   38602
   38603   38604   38603   38605   38606   38607   38606   38608
   38609   38610   38609   38611   38612   38613   38612   38614
   38615   38616   38615   38617   38618   38619   38618   38620
   38621   38622   38621   38623   38624   38625   38624   38626
   38627   38628   38627   38629   38630   38631   38630   38632
   38633   38634   38633   38635   38636   38637   38636   38638
   38639   38640   38639   38641   38642   38643   38642   38644
   38645   38646   38645   38647   38648   38649   38648   38650
   38651   38652   38651   38653   38654   38655   38654   38656
   38657   38658   38657   38659   38660   38661   38660   38662
   38663   38664   38663   38665   38666   38667   38666   38668
   38669   38670   38669   38671   38672   38673   38672   38674
   38675   38676   38675   38677   38678   38679   38678   38680
   38681   38682   38681   38683   38684   38685   38684   38686
   38687   38688   38687   38689   38690   38691   38690   38692
   38693   38694   38693   38695   38696   38697   38696   38698
   38699   38700   38699   38701   38702   38703   38702   38704
   38705   38706   38705   38707   38708   38709   38708   38710
   38711   38712   38711   38713   38714   38715   38714   38716
   38717   38718   38717   38719   38720   38721   38720   38722
   38723   38724   38723   38725   38726   38727   38726   38728
   38729   38730   38729   38731   38732   38733   38732   38734
   38735   38736   38735   38737   38738   38739   38738   38740
   38741   38742   38741   38743   38744   38745   38744   38746
   38747   38748   38747   38749   38750   38751   38750   38752
   38753   38754   38753   38755   38756   38757   38756   38758
   38759   38760   38759   38761   38762   38763   38762   38764
   38765   38766   38765   38767   38768   38769   38768   38770
   38771   38772   38771   38773   38774   38775   38774   38776
   38777   38778   38777   38779   38780   38781   38780   38782
   38783   38784   38783   38785   38786   38787   38786   38788
   38789   38790   38789   38791   38792   38793   38792   38794
   38795   38796   38795   38797   38798   38799   38798   38800
   38801   38802   38801   38803   38804   38805   38804   38806
   38807   38808   38807   38809   38810   38811   38810   38812
   38813   38814   38813   38815   38816   38817   38816   38818
   38819   38820   38819   38821   38822   38823   38822   38824
   38825   38826   38825   38827   38828   38829   38828   38830
   38831   38832   38831   38833   38834   38835   38834   38836
   38837   38838   38837   38839   38840   38841   38840   38842
   38843   38844   38843   38845   38846   38847   38846   38848
   38849   38850   38849   38851   38852   38853   38852   38854
   38855   38856   38855   38857   38858   38859   38858   38860
   38861   38862   38861   38863   38864   38865   38864   38866
   38867   38868   38867   38869   38870   38871   38870   38872
   38873   38874   38873   38875   38876   38877   38876   38878
   38879   38880   38879   38881   38882   38883   38882   38884
   38885   38886   38885   38887   38888   38889   38888   38890
   38891   38892   38891   38893   38894   38895   38894   38896
   38897   38898   38897   38899   38900   38901   38900   38902
   38903   38904   38903   38905   38906   38907   38906   38908
   38909   38910   38909   38911   38912   38913   38912   38914
   38915   38916   38915   38917   38918   38919   38918   38920
   38921   38922   38921   38923   38924   38925   38924   38926
   38927   38928   38927   38929   38930   38931   38930   38932
   38933   38934   38933   38935   38936   38937   38936   38938
   38939   38940   38939   38941   38942   38943   38942   38944
   38945   38946   38945   38947   38948   38949   38948   38950
   38951   38952   38951   38953   38954   38955   38954   38956
   38957   38958   38957   38959   38960   38961   38960   38962
   38963   38964   38963   38965   38966   38967   38966   38968
   38969   38970   38969   38971   38972   38973   38972   38974
   38975   38976   38975   38977   38978   38979   38978   38980
   38981   38982   38981   38983   38984   38985   38984   38986
   38987   38988   38987   38989   38990   38991   38990   38992
   38993   38994   38993   38995   38996   38997   38996   38998
   38999   39000   38999   39001   39002   39003   39002   39004
   39005   39006   39005   39007   39008   39009   39008   39010
   39011   39012   39011   39013   39014   39015   39014   39016
   39017   39018   39017   39019   39020   39021   39020   39022
   39023   39024   39023   39025   39026   39027   39026   39028
   39029   39030   39029   39031   39032   39033   39032   39034
   39035   39036   39035   39037   39038   39039   39038   39040
   39041   39042   39041   39043   39044   39045   39044   39046
   39047   39048   39047   39049   39050   39051   39050   39052
   39053   39054   39053   39055   39056   39057   39056   39058
   39059   39060   39059   39061   39062   39063   39062   39064
   39065   39066   39065   39067   39068   39069   39068   39070
   39071   39072   39071   39073   39074   39075   39074   39076
   39077   39078   39077   39079   39080   39081   39080   39082
   39083   39084   39083   39085   39086   39087   39086   39088
   39089   39090   39089   39091   39092   39093   39092   39094
   39095   39096   39095   39097   39098   39099   39098   39100
   39101   39102   39101   39103   39104   39105   39104   39106
   39107   39108   39107   39109   39110   39111   39110   39112
   39113   39114   39113   39115   39116   39117   39116   39118
   39119   39120   39119   39121   39122   39123   39122   39124
   39125   39126   39125   39127   39128   39129   39128   39130
   39131   39132   39131   39133   39134   39135   39134   39136
   39137   39138   39137   39139   39140   39141   39140   39142
   39143   39144   39143   39145   39146   39147   39146   39148
   39149   39150   39149   39151   39152   39153   39152   39154
   39155   39156   39155   39157   39158   39159   39158   39160
   39161   39162   39161   39163   39164   39165   39164   39166
   39167   39168   39167   39169   39170   39171   39170   39172
   39173   39174   39173   39175   39176   39177   39176   39178
   39179   39180   39179   39181   39182   39183   39182   39184
   39185   39186   39185   39187   39188   39189   39188   39190
   39191   39192   39191   39193   39194   39195   39194   39196
   39197   39198   39197   39199   39200   39201   39200   39202
   39203   39204   39203   39205   39206   39207   39206   39208
   39209   39210   39209   39211   39212   39213   39212   39214
   39215   39216   39215   39217   39218   39219   39218   39220
   39221   39222   39221   39223   39224   39225   39224   39226
   39227   39228   39227   39229   39230   39231   39230   39232
   39233   39234   39233   39235   39236   39237   39236   39238
   39239   39240   39239   39241   39242   39243   39242   39244
   39245   39246   39245   39247   39248   39249   39248   39250
   39251   39252   39251   39253   39254   39255   39254   39256
   39257   39258   39257   39259   39260   39261   39260   39262
   39263   39264   39263   39265   39266   39267   39266   39268
   39269   39270   39269   39271   39272   39273   39272   39274
   39275   39276   39275   39277   39278   39279   39278   39280
   39281   39282   39281   39283   39284   39285   39284   39286
   39287   39288   39287   39289   39290   39291   39290   39292
   39293   39294   39293   39295   39296   39297   39296   39298
   39299   39300   39299   39301   39302   39303   39302   39304
   39305   39306   39305   39307   39308   39309   39308   39310
   39311   39312   39311   39313   39314   39315   39314   39316
   39317   39318   39317   39319   39320   39321   39320   39322
   39323   39324   39323   39325   39326   39327   39326   39328
   39329   39330   39329   39331   39332   39333   39332   39334
   39335   39336   39335   39337   39338   39339   39338   39340
   39341   39342   39341   39343   39344   39345   39344   39346
   39347   39348   39347   39349   39350   39351   39350   39352
   39353   39354   39353   39355   39356   39357   39356   39358
   39359   39360   39359   39361   39362   39363   39362   39364
   39365   39366   39365   39367   39368   39369   39368   39370
   39371   39372   39371   39373   39374   39375   39374   39376
   39377   39378   39377   39379   39380   39381   39380   39382
   39383   39384   39383   39385   39386   39387   39386   39388
   39389   39390   39389   39391   39392   39393   39392   39394
   39395   39396   39395   39397   39398   39399   39398   39400
   39401   39402   39401   39403   39404   39405   39404   39406
   39407   39408   39407   39409   39410   39411   39410   39412
   39413   39414   39413   39415   39416   39417   39416   39418
   39419   39420   39419   39421   39422   39423   39422   39424
   39425   39426   39425   39427   39428   39429   39428   39430
   39431   39432   39431   39433   39434   39435   39434   39436
   39437   39438   39437   39439   39440   39441   39440   39442
   39443   39444   39443   39445   39446   39447   39446   39448
   39449   39450   39449   39451   39452   39453   39452   39454
   39455   39456   39455   39457   39458   39459   39458   39460
   39461   39462   39461   39463   39464   39465   39464   39466
   39467   39468   39467   39469   39470   39471   39470   39472
   39473   39474   39473   39475   39476   39477   39476   39478
   39479   39480   39479   39481   39482   39483   39482   39484
   39485   39486   39485   39487   39488   39489   39488   39490
   39491   39492   39491   39493   39494   39495   39494   39496
   39497   39498   39497   39499   39500   39501   39500   39502
   39503   39504   39503   39505   39506   39507   39506   39508
   39509   39510   39509   39511   39512   39513   39512   39514
   39515   39516   39515   39517   39518   39519   39518   39520
   39521   39522   39521   39523   39524   39525   39524   39526
   39527   39528   39527   39529   39530   39531   39530   39532
   39533   39534   39533   39535   39536   39537   39536   39538
   39539   39540   39539   39541   39542   39543   39542   39544
   39545   39546   39545   39547   39548   39549   39548   39550
   39551   39552   39551   39553   39554   39555   39554   39556
   39557   39558   39557   39559   39560   39561   39560   39562
   39563   39564   39563   39565   39566   39567   39566   39568
   39569   39570   39569   39571   39572   39573   39572   39574
   39575   39576   39575   39577   39578   39579   39578   39580
   39581   39582   39581   39583   39584   39585   39584   39586
   39587   39588   39587   39589   39590   39591   39590   39592
   39593   39594   39593   39595   39596   39597   39596   39598
   39599   39600   39599   39601   39602   39603   39602   39604
   39605   39606   39605   39607   39608   39609   39608   39610
   39611   39612   39611   39613   39614   39615   39614   39616
   39617   39618   39617   39619   39620   39621   39620   39622
   39623   39624   39623   39625   39626   39627   39626   39628
   39629   39630   39629   39631   39632   39633   39632   39634
   39635   39636   39635   39637   39638   39639   39638   39640
   39641   39642   39641   39643   39644   39645   39644   39646
   39647   39648   39647   39649   39650   39651   39650   39652
   39653   39654   39653   39655   39656   39657   39656   39658
   39659   39660   39659   39661   39662   39663   39662   39664
   39665   39666   39665   39667   39668   39669   39668   39670
   39671   39672   39671   39673   39674   39675   39674   39676
   39677   39678   39677   39679   39680   39681   39680   39682
   39683   39684   39683   39685   39686   39687   39686   39688
   39689   39690   39689   39691   39692   39693   39692   39694
   39695   39696   39695   39697   39698   39699   39698   39700
   39701   39702   39701   39703   39704   39705   39704   39706
   39707   39708   39707   39709   39710   39711   39710   39712
   39713   39714   39713   39715   39716   39717   39716   39718
   39719   39720   39719   39721   39722   39723   39722   39724
   39725   39726   39725   39727   39728   39729   39728   39730
   39731   39732   39731   39733   39734   39735   39734   39736
   39737   39738   39737   39739   39740   39741   39740   39742
   39743   39744   39743   39745   39746   39747   39746   39748
   39749   39750   39749   39751   39752   39753   39752   39754
   39755   39756   39755   39757   39758   39759   39758   39760
   39761   39762   39761   39763   39764   39765   39764   39766
   39767   39768   39767   39769   39770   39771   39770   39772
   39773   39774   39773   39775   39776   39777   39776   39778
   39779   39780   39779   39781   39782   39783   39782   39784
   39785   39786   39785   39787   39788   39789   39788   39790
   39791   39792   39791   39793   39794   39795   39794   39796
   39797   39798   39797   39799   39800   39801   39800   39802
   39803   39804   39803   39805   39806   39807   39806   39808
   39809   39810   39809   39811   39812   39813   39812   39814
   39815   39816   39815   39817   39818   39819   39818   39820
   39821   39822   39821   39823   39824   39825   39824   39826
   39827   39828   39827   39829   39830   39831   39830   39832
   39833   39834   39833   39835   39836   39837   39836   39838
   39839   39840   39839   39841   39842   39843   39842   39844
   39845   39846   39845   39847   39848   39849   39848   39850
   39851   39852   39851   39853   39854   39855   39854   39856
   39857   39858   39857   39859   39860   39861   39860   39862
   39863   39864   39863   39865   39866   39867   39866   39868
   39869   39870   39869   39871   39872   39873   39872   39874
   39875   39876   39875   39877   39878   39879   39878   39880
   39881   39882   39881   39883   39884   39885   39884   39886
   39887   39888   39887   39889   39890   39891   39890   39892
   39893   39894   39893   39895   39896   39897   39896   39898
   39899   39900   39899   39901   39902   39903   39902   39904
   39905   39906   39905   39907   39908   39909   39908   39910
   39911   39912   39911   39913   39914   39915   39914   39916
   39917   39918   39917   39919   39920   39921   39920   39922
   39923   39924   39923   39925   39926   39927   39926   39928
   39929   39930   39929   39931   39932   39933   39932   39934
   39935   39936   39935   39937   39938   39939   39938   39940
   39941   39942   39941   39943   39944   39945   39944   39946
   39947   39948   39947   39949   39950   39951   39950   39952
   39953   39954   39953   39955   39956   39957   39956   39958
   39959   39960   39959   39961   39962   39963   39962   39964
   39965   39966   39965   39967   39968   39969   39968   39970
   39971   39972   39971   39973   39974   39975   39974   39976
   39977   39978   39977   39979   39980   39981   39980   39982
   39983   39984   39983   39985   39986   39987   39986   39988
   39989   39990   39989   39991   39992   39993   39992   39994
   39995   39996   39995   39997   39998   39999   39998   40000
   40001   40002   40001   40003   40004   40005   40004   40006
   40007   40008   40007   40009   40010   40011   40010   40012
   40013   40014   40013   40015   40016   40017   40016   40018
   40019   40020   40019   40021   40022   40023   40022   40024
   40025   40026   40025   40027   40028   40029   40028   40030
   40031   40032   40031   40033   40034   40035   40034   40036
   40037   40038   40037   40039   40040   40041   40040   40042
   40043   40044   40043   40045   40046   40047   40046   40048
   40049   40050   40049   40051   40052   40053   40052   40054
   40055   40056   40055   40057   40058   40059   40058   40060
   40061   40062   40061   40063   40064   40065   40064   40066
   40067   40068   40067   40069   40070   40071   40070   40072
   40073   40074   40073   40075   40076   40077   40076   40078
   40079   40080   40079   40081   40082   40083   40082   40084
   40085   40086   40085   40087   40088   40089   40088   40090
   40091   40092   40091   40093   40094   40095   40094   40096
   40097   40098   40097   40099   40100   40101   40100   40102
   40103   40104   40103   40105   40106   40107   40106   40108
   40109   40110   40109   40111   40112   40113   40112   40114
   40115   40116   40115   40117   40118   40119   40118   40120
   40121   40122   40121   40123   40124   40125   40124   40126
   40127   40128   40127   40129   40130   40131   40130   40132
   40133   40134   40133   40135   40136   40137   40136   40138
   40139   40140   40139   40141   40142   40143   40142   40144
   40145   40146   40145   40147   40148   40149   40148   40150
   40151   40152   40151   40153   40154   40155   40154   40156
   40157   40158   40157   40159   40160   40161   40160   40162
   40163   40164   40163   40165   40166   40167   40166   40168
   40169   40170   40169   40171   40172   40173   40172   40174
   40175   40176   40175   40177   40178   40179   40178   40180
   40181   40182   40181   40183   40184   40185   40184   40186
   40187   40188   40187   40189   40190   40191   40190   40192
   40193   40194   40193   40195   40196   40197   40196   40198
   40199   40200   40199   40201   40202   40203   40202   40204
   40205   40206   40205   40207   40208   40209   40208   40210
   40211   40212   40211   40213   40214   40215   40214   40216
   40217   40218   40217   40219   40220   40221   40220   40222
   40223   40224   40223   40225   40226   40227   40226   40228
   40229   40230   40229   40231   40232   40233   40232   40234
   40235   40236   40235   40237   40238   40239   40238   40240
   40241   40242   40241   40243   40244   40245   40244   40246
   40247   40248   40247   40249   40250   40251   40250   40252
   40253   40254   40253   40255   40256   40257   40256   40258
   40259   40260   40259   40261   40262   40263   40262   40264
   40265   40266   40265   40267   40268   40269   40268   40270
   40271   40272   40271   40273   40274   40275   40274   40276
   40277   40278   40277   40279   40280   40281   40280   40282
   40283   40284   40283   40285   40286   40287   40286   40288
   40289   40290   40289   40291   40292   40293   40292   40294
   40295   40296   40295   40297   40298   40299   40298   40300
   40301   40302   40301   40303   40304   40305   40304   40306
   40307   40308   40307   40309   40310   40311   40310   40312
   40313   40314   40313   40315   40316   40317   40316   40318
   40319   40320   40319   40321   40322   40323   40322   40324
   40325   40326   40325   40327   40328   40329   40328   40330
   40331   40332   40331   40333   40334   40335   40334   40336
   40337   40338   40337   40339   40340   40341   40340   40342
   40343   40344   40343   40345   40346   40347   40346   40348
   40349   40350   40349   40351   40352   40353   40352   40354
   40355   40356   40355   40357   40358   40359   40358   40360
   40361   40362   40361   40363   40364   40365   40364   40366
   40367   40368   40367   40369   40370   40371   40370   40372
   40373   40374   40373   40375   40376   40377   40376   40378
   40379   40380   40379   40381   40382   40383   40382   40384
   40385   40386   40385   40387   40388   40389   40388   40390
   40391   40392   40391   40393   40394   40395   40394   40396
   40397   40398   40397   40399   40400   40401   40400   40402
   40403   40404   40403   40405   40406   40407   40406   40408
   40409   40410   40409   40411   40412   40413   40412   40414
   40415   40416   40415   40417   40418   40419   40418   40420
   40421   40422   40421   40423   40424   40425   40424   40426
   40427   40428   40427   40429   40430   40431   40430   40432
   40433   40434   40433   40435   40436   40437   40436   40438
   40439   40440   40439   40441   40442   40443   40442   40444
   40445   40446   40445   40447   40448   40449   40448   40450
   40451   40452   40451   40453   40454   40455   40454   40456
   40457   40458   40457   40459   40460   40461   40460   40462
   40463   40464   40463   40465   40466   40467   40466   40468
   40469   40470   40469   40471   40472   40473   40472   40474
   40475   40476   40475   40477   40478   40479   40478   40480
   40481   40482   40481   40483   40484   40485   40484   40486
   40487   40488   40487   40489   40490   40491   40490   40492
   40493   40494   40493   40495   40496   40497   40496   40498
   40499   40500   40499   40501   40502   40503   40502   40504
   40505   40506   40505   40507   40508   40509   40508   40510
   40511   40512   40511   40513   40514   40515   40514   40516
   40517   40518   40517   40519   40520   40521   40520   40522
   40523   40524   40523   40525   40526   40527   40526   40528
   40529   40530   40529   40531   40532   40533   40532   40534
   40535   40536   40535   40537   40538   40539   40538   40540
   40541   40542   40541   40543   40544   40545   40544   40546
   40547   40548   40547   40549   40550   40551   40550   40552
   40553   40554   40553   40555   40556   40557   40556   40558
   40559   40560   40559   40561   40562   40563   40562   40564
   40565   40566   40565   40567   40568   40569   40568   40570
   40571   40572   40571   40573   40574   40575   40574   40576
   40577   40578   40577   40579   40580   40581   40580   40582
   40583   40584   40583   40585   40586   40587   40586   40588
   40589   40590   40589   40591   40592   40593   40592   40594
   40595   40596   40595   40597   40598   40599   40598   40600
   40601   40602   40601   40603   40604   40605   40604   40606
   40607   40608   40607   40609   40610   40611   40610   40612
   40613   40614   40613   40615   40616   40617   40616   40618
   40619   40620   40619   40621   40622   40623   40622   40624
   40625   40626   40625   40627   40628   40629   40628   40630
   40631   40632   40631   40633   40634   40635   40634   40636
   40637   40638   40637   40639   40640   40641   40640   40642
   40643   40644   40643   40645   40646   40647   40646   40648
   40649   40650   40649   40651   40652   40653   40652   40654
   40655   40656   40655   40657   40658   40659   40658   40660
   40661   40662   40661   40663   40664   40665   40664   40666
   40667   40668   40667   40669   40670   40671   40670   40672
   40673   40674   40673   40675   40676   40677   40676   40678
   40679   40680   40679   40681   40682   40683   40682   40684
   40685   40686   40685   40687   40688   40689   40688   40690
   40691   40692   40691   40693   40694   40695   40694   40696
   40697   40698   40697   40699   40700   40701   40700   40702
   40703   40704   40703   40705   40706   40707   40706   40708
   40709   40710   40709   40711   40712   40713   40712   40714
   40715   40716   40715   40717   40718   40719   40718   40720
   40721   40722   40721   40723   40724   40725   40724   40726
   40727   40728   40727   40729   40730   40731   40730   40732
   40733   40734   40733   40735   40736   40737   40736   40738
   40739   40740   40739   40741   40742   40743   40742   40744
   40745   40746   40745   40747   40748   40749   40748   40750
   40751   40752   40751   40753   40754   40755   40754   40756
   40757   40758   40757   40759   40760   40761   40760   40762
   40763   40764   40763   40765   40766   40767   40766   40768
   40769   40770   40769   40771   40772   40773   40772   40774
   40775   40776   40775   40777   40778   40779   40778   40780
   40781   40782   40781   40783   40784   40785   40784   40786
   40787   40788   40787   40789   40790   40791   40790   40792
   40793   40794   40793   40795   40796   40797   40796   40798
   40799   40800   40799   40801   40802   40803   40802   40804
   40805   40806   40805   40807   40808   40809   40808   40810
   40811   40812   40811   40813   40814   40815   40814   40816
   40817   40818   40817   40819   40820   40821   40820   40822
   40823   40824   40823   40825   40826   40827   40826   40828
   40829   40830   40829   40831   40832   40833   40832   40834
   40835   40836   40835   40837   40838   40839   40838   40840
   40841   40842   40841   40843   40844   40845   40844   40846
   40847   40848   40847   40849   40850   40851   40850   40852
   40853   40854   40853   40855   40856   40857   40856   40858
   40859   40860   40859   40861   40862   40863   40862   40864
   40865   40866   40865   40867   40868   40869   40868   40870
   40871   40872   40871   40873   40874   40875   40874   40876
   40877   40878   40877   40879   40880   40881   40880   40882
   40883   40884   40883   40885   40886   40887   40886   40888
   40889   40890   40889   40891   40892   40893   40892   40894
   40895   40896   40895   40897   40898   40899   40898   40900
   40901   40902   40901   40903   40904   40905   40904   40906
   40907   40908   40907   40909   40910   40911   40910   40912
   40913   40914   40913   40915   40916   40917   40916   40918
   40919   40920   40919   40921   40922   40923   40922   40924
   40925   40926   40925   40927   40928   40929   40928   40930
   40931   40932   40931   40933   40934   40935   40934   40936
   40937   40938   40937   40939   40940   40941   40940   40942
   40943   40944   40943   40945   40946   40947   40946   40948
   40949   40950   40949   40951   40952   40953   40952   40954
   40955   40956   40955   40957   40958   40959   40958   40960
   40961   40962   40961   40963   40964   40965   40964   40966
   40967   40968   40967   40969   40970   40971   40970   40972
   40973   40974   40973   40975   40976   40977   40976   40978
   40979   40980   40979   40981   40982   40983   40982   40984
   40985   40986   40985   40987   40988   40989   40988   40990
   40991   40992   40991   40993   40994   40995   40994   40996
   40997   40998   40997   40999   41000   41001   41000   41002
   41003   41004   41003   41005   41006   41007   41006   41008
   41009   41010   41009   41011   41012   41013   41012   41014
   41015   41016   41015   41017   41018   41019   41018   41020
   41021   41022   41021   41023   41024   41025   41024   41026
   41027   41028   41027   41029   41030   41031   41030   41032
   41033   41034   41033   41035   41036   41037   41036   41038
   41039   41040   41039   41041   41042   41043   41042   41044
   41045   41046   41045   41047   41048   41049   41048   41050
   41051   41052   41051   41053   41054   41055   41054   41056
   41057   41058   41057   41059   41060   41061   41060   41062
   41063   41064   41063   41065   41066   41067   41066   41068
   41069   41070   41069   41071   41072   41073   41072   41074
   41075   41076   41075   41077   41078   41079   41078   41080
   41081   41082   41081   41083   41084   41085   41084   41086
   41087   41088   41087   41089   41090   41091   41090   41092
   41093   41094   41093   41095   41096   41097   41096   41098
   41099   41100   41099   41101   41102   41103   41102   41104
   41105   41106   41105   41107   41108   41109   41108   41110
   41111   41112   41111   41113   41114   41115   41114   41116
   41117   41118   41117   41119   41120   41121   41120   41122
   41123   41124   41123   41125   41126   41127   41126   41128
   41129   41130   41129   41131   41132   41133   41132   41134
   41135   41136   41135   41137   41138   41139   41138   41140
   41141   41142   41141   41143   41144   41145   41144   41146
   41147   41148   41147   41149   41150   41151   41150   41152
   41153   41154   41153   41155   41156   41157   41156   41158
   41159   41160   41159   41161   41162   41163   41162   41164
   41165   41166   41165   41167   41168   41169   41168   41170
   41171   41172   41171   41173   41174   41175   41174   41176
   41177   41178   41177   41179   41180   41181   41180   41182
   41183   41184   41183   41185   41186   41187   41186   41188
   41189   41190   41189   41191   41192   41193   41192   41194
   41195   41196   41195   41197   41198   41199   41198   41200
   41201   41202   41201   41203   41204   41205   41204   41206
   41207   41208   41207   41209   41210   41211   41210   41212
   41213   41214   41213   41215   41216   41217   41216   41218
   41219   41220   41219   41221   41222   41223   41222   41224
   41225   41226   41225   41227   41228   41229   41228   41230
   41231   41232   41231   41233   41234   41235   41234   41236
   41237   41238   41237   41239   41240   41241   41240   41242
   41243   41244   41243   41245   41246   41247   41246   41248
   41249   41250   41249   41251   41252   41253   41252   41254
   41255   41256   41255   41257   41258   41259   41258   41260
   41261   41262   41261   41263   41264   41265   41264   41266
   41267   41268   41267   41269   41270   41271   41270   41272
   41273   41274   41273   41275   41276   41277   41276   41278
   41279   41280   41279   41281   41282   41283   41282   41284
   41285   41286   41285   41287   41288   41289   41288   41290
   41291   41292   41291   41293   41294   41295   41294   41296
   41297   41298   41297   41299   41300   41301   41300   41302
   41303   41304   41303   41305   41306   41307   41306   41308
   41309   41310   41309   41311   41312   41313   41312   41314
   41315   41316   41315   41317   41318   41319   41318   41320
   41321   41322   41321   41323   41324   41325   41324   41326
   41327   41328   41327   41329   41330   41331   41330   41332
   41333   41334   41333   41335   41336   41337   41336   41338
   41339   41340   41339   41341   41342   41343   41342   41344
   41345   41346   41345   41347   41348   41349   41348   41350
   41351   41352   41351   41353   41354   41355   41354   41356
   41357   41358   41357   41359   41360   41361   41360   41362
   41363   41364   41363   41365   41366   41367   41366   41368
   41369   41370   41369   41371   41372   41373   41372   41374
   41375   41376   41375   41377   41378   41379   41378   41380
   41381   41382   41381   41383   41384   41385   41384   41386
   41387   41388   41387   41389   41390   41391   41390   41392
   41393   41394   41393   41395   41396   41397   41396   41398
   41399   41400   41399   41401   41402   41403   41402   41404
   41405   41406   41405   41407   41408   41409   41408   41410
   41411   41412   41411   41413   41414   41415   41414   41416
   41417   41418   41417   41419   41420   41421   41420   41422
   41423   41424   41423   41425   41426   41427   41426   41428
   41429   41430   41429   41431   41432   41433   41432   41434
   41435   41436   41435   41437   41438   41439   41438   41440
   41441   41442   41441   41443   41444   41445   41444   41446
   41447   41448   41447   41449   41450   41451   41450   41452
   41453   41454   41453   41455   41456   41457   41456   41458
   41459   41460   41459   41461   41462   41463   41462   41464
   41465   41466   41465   41467   41468   41469   41468   41470
   41471   41472   41471   41473   41474   41475   41474   41476
   41477   41478   41477   41479   41480   41481   41480   41482
   41483   41484   41483   41485   41486   41487   41486   41488
   41489   41490   41489   41491   41492   41493   41492   41494
   41495   41496   41495   41497   41498   41499   41498   41500
   41501   41502   41501   41503   41504   41505   41504   41506
   41507   41508   41507   41509   41510   41511   41510   41512
   41513   41514   41513   41515   41516   41517   41516   41518
   41519   41520   41519   41521   41522   41523   41522   41524
   41525   41526   41525   41527   41528   41529   41528   41530
   41531   41532   41531   41533   41534   41535   41534   41536
   41537   41538   41537   41539   41540   41541   41540   41542
   41543   41544   41543   41545   41546   41547   41546   41548
   41549   41550   41549   41551   41552   41553   41552   41554
   41555   41556   41555   41557   41558   41559   41558   41560
   41561   41562   41561   41563   41564   41565   41564   41566
   41567   41568   41567   41569   41570   41571   41570   41572
   41573   41574   41573   41575   41576   41577   41576   41578
   41579   41580   41579   41581   41582   41583   41582   41584
   41585   41586   41585   41587   41588   41589   41588   41590
   41591   41592   41591   41593   41594   41595   41594   41596
   41597   41598   41597   41599   41600   41601   41600   41602
   41603   41604   41603   41605   41606   41607   41606   41608
   41609   41610   41609   41611   41612   41613   41612   41614
   41615   41616   41615   41617   41618   41619   41618   41620
   41621   41622   41621   41623   41624   41625   41624   41626
   41627   41628   41627   41629   41630   41631   41630   41632
   41633   41634   41633   41635   41636   41637   41636   41638
   41639   41640   41639   41641   41642   41643   41642   41644
   41645   41646   41645   41647   41648   41649   41648   41650
   41651   41652   41651   41653   41654   41655   41654   41656
   41657   41658   41657   41659   41660   41661   41660   41662
   41663   41664   41663   41665   41666   41667   41666   41668
   41669   41670   41669   41671   41672   41673   41672   41674
   41675   41676   41675   41677   41678   41679   41678   41680
   41681   41682   41681   41683   41684   41685   41684   41686
   41687   41688   41687   41689   41690   41691   41690   41692
   41693   41694   41693   41695   41696   41697   41696   41698
   41699   41700   41699   41701   41702   41703   41702   41704
   41705   41706   41705   41707   41708   41709   41708   41710
   41711   41712   41711   41713   41714   41715   41714   41716
   41717   41718   41717   41719   41720   41721   41720   41722
   41723   41724   41723   41725   41726   41727   41726   41728
   41729   41730   41729   41731   41732   41733   41732   41734
   41735   41736   41735   41737   41738   41739   41738   41740
   41741   41742   41741   41743   41744   41745   41744   41746
   41747   41748   41747   41749   41750   41751   41750   41752
   41753   41754   41753   41755   41756   41757   41756   41758
   41759   41760   41759   41761   41762   41763   41762   41764
   41765   41766   41765   41767   41768   41769   41768   41770
   41771   41772   41771   41773   41774   41775   41774   41776
   41777   41778   41777   41779   41780   41781   41780   41782
   41783   41784   41783   41785   41786   41787   41786   41788
   41789   41790   41789   41791   41792   41793   41792   41794
   41795   41796   41795   41797   41798   41799   41798   41800
   41801   41802   41801   41803   41804   41805   41804   41806
   41807   41808   41807   41809   41810   41811   41810   41812
   41813   41814   41813   41815   41816   41817   41816   41818
   41819   41820   41819   41821   41822   41823   41822   41824
   41825   41826   41825   41827   41828   41829   41828   41830
   41831   41832   41831   41833   41834   41835   41834   41836
   41837   41838   41837   41839   41840   41841   41840   41842
   41843   41844   41843   41845   41846   41847   41846   41848
   41849   41850   41849   41851   41852   41853   41852   41854
   41855   41856   41855   41857   41858   41859   41858   41860
   41861   41862   41861   41863   41864   41865   41864   41866
   41867   41868   41867   41869   41870   41871   41870   41872
   41873   41874   41873   41875   41876   41877   41876   41878
   41879   41880   41879   41881   41882   41883   41882   41884
   41885   41886   41885   41887   41888   41889   41888   41890
   41891   41892   41891   41893   41894   41895   41894   41896
   41897   41898   41897   41899   41900   41901   41900   41902
   41903   41904   41903   41905   41906   41907   41906   41908
   41909   41910   41909   41911   41912   41913   41912   41914
   41915   41916   41915   41917   41918   41919   41918   41920
   41921   41922   41921   41923   41924   41925   41924   41926
   41927   41928   41927   41929   41930   41931   41930   41932
   41933   41934   41933   41935   41936   41937   41936   41938
   41939   41940   41939   41941   41942   41943   41942   41944
   41945   41946   41945   41947   41948   41949   41948   41950
   41951   41952   41951   41953   41954   41955   41954   41956
   41957   41958   41957   41959   41960   41961   41960   41962
   41963   41964   41963   41965   41966   41967   41966   41968
   41969   41970   41969   41971   41972   41973   41972   41974
   41975   41976   41975   41977   41978   41979   41978   41980
   41981   41982   41981   41983   41984   41985   41984   41986
   41987   41988   41987   41989   41990   41991   41990   41992
   41993   41994   41993   41995   41996   41997   41996   41998
   41999   42000   41999   42001   42002   42003   42002   42004
   42005   42006   42005   42007   42008   42009   42008   42010
   42011   42012   42011   42013   42014   42015   42014   42016
   42017   42018   42017   42019   42020   42021   42020   42022
   42023   42024   42023   42025   42026   42027   42026   42028
   42029   42030   42029   42031   42032   42033   42032   42034
   42035   42036   42035   42037   42038   42039   42038   42040
   42041   42042   42041   42043   42044   42045   42044   42046
   42047   42048   42047   42049   42050   42051   42050   42052
   42053   42054   42053   42055   42056   42057   42056   42058
   42059   42060   42059   42061   42062   42063   42062   42064
   42065   42066   42065   42067   42068   42069   42068   42070
   42071   42072   42071   42073   42074   42075   42074   42076
   42077   42078   42077   42079   42080   42081   42080   42082
   42083   42084   42083   42085   42086   42087   42086   42088
   42089   42090   42089   42091   42092   42093   42092   42094
   42095   42096   42095   42097   42098   42099   42098   42100
   42101   42102   42101   42103   42104   42105   42104   42106
   42107   42108   42107   42109   42110   42111   42110   42112
   42113   42114   42113   42115   42116   42117   42116   42118
   42119   42120   42119   42121   42122   42123   42122   42124
   42125   42126   42125   42127   42128   42129   42128   42130
   42131   42132   42131   42133   42134   42135   42134   42136
   42137   42138   42137   42139   42140   42141   42140   42142
   42143   42144   42143   42145   42146   42147   42146   42148
   42149   42150   42149   42151   42152   42153   42152   42154
   42155   42156   42155   42157   42158   42159   42158   42160
   42161   42162   42161   42163   42164   42165   42164   42166
   42167   42168   42167   42169   42170   42171   42170   42172
   42173   42174   42173   42175   42176   42177   42176   42178
   42179   42180   42179   42181   42182   42183   42182   42184
   42185   42186   42185   42187   42188   42189   42188   42190
   42191   42192   42191   42193   42194   42195   42194   42196
   42197   42198   42197   42199   42200   42201   42200   42202
   42203   42204   42203   42205   42206   42207   42206   42208
   42209   42210   42209   42211   42212   42213   42212   42214
   42215   42216   42215   42217   42218   42219   42218   42220
   42221   42222   42221   42223   42224   42225   42224   42226
   42227   42228   42227   42229   42230   42231   42230   42232
   42233   42234   42233   42235   42236   42237   42236   42238
   42239   42240   42239   42241   42242   42243   42242   42244
   42245   42246   42245   42247   42248   42249   42248   42250
   42251   42252   42251   42253   42254   42255   42254   42256
   42257   42258   42257   42259   42260   42261   42260   42262
   42263   42264   42263   42265   42266   42267   42266   42268
   42269   42270   42269   42271   42272   42273   42272   42274
   42275   42276   42275   42277   42278   42279   42278   42280
   42281   42282   42281   42283   42284   42285   42284   42286
   42287   42288   42287   42289   42290   42291   42290   42292
   42293   42294   42293   42295   42296   42297   42296   42298
   42299   42300   42299   42301   42302   42303   42302   42304
   42305   42306   42305   42307   42308   42309   42308   42310
   42311   42312   42311   42313   42314   42315   42314   42316
   42317   42318   42317   42319   42320   42321   42320   42322
   42323   42324   42323   42325   42326   42327   42326   42328
   42329   42330   42329   42331   42332   42333   42332   42334
   42335   42336   42335   42337   42338   42339   42338   42340
   42341   42342   42341   42343   42344   42345   42344   42346
   42347   42348   42347   42349   42350   42351   42350   42352
   42353   42354   42353   42355   42356   42357   42356   42358
   42359   42360   42359   42361   42362   42363   42362   42364
   42365   42366   42365   42367   42368   42369   42368   42370
   42371   42372   42371   42373   42374   42375   42374   42376
   42377   42378   42377   42379   42380   42381   42380   42382
   42383   42384   42383   42385   42386   42387   42386   42388
   42389   42390   42389   42391   42392   42393   42392   42394
   42395   42396   42395   42397   42398   42399   42398   42400
   42401   42402   42401   42403   42404   42405   42404   42406
   42407   42408   42407   42409   42410   42411   42410   42412
   42413   42414   42413   42415   42416   42417   42416   42418
   42419   42420   42419   42421   42422   42423   42422   42424
   42425   42426   42425   42427   42428   42429   42428   42430
   42431   42432   42431   42433   42434   42435   42434   42436
   42437   42438   42437   42439   42440   42441   42440   42442
   42443   42444   42443   42445   42446   42447   42446   42448
   42449   42450   42449   42451   42452   42453   42452   42454
   42455   42456   42455   42457   42458   42459   42458   42460
   42461   42462   42461   42463   42464   42465   42464   42466
   42467   42468   42467   42469   42470   42471   42470   42472
   42473   42474   42473   42475   42476   42477   42476   42478
   42479   42480   42479   42481   42482   42483   42482   42484
   42485   42486   42485   42487   42488   42489   42488   42490
   42491   42492   42491   42493   42494   42495   42494   42496
   42497   42498   42497   42499   42500   42501   42500   42502
   42503   42504   42503   42505   42506   42507   42506   42508
   42509   42510   42509   42511   42512   42513   42512   42514
   42515   42516   42515   42517   42518   42519   42518   42520
   42521   42522   42521   42523   42524   42525   42524   42526
   42527   42528   42527   42529   42530   42531   42530   42532
   42533   42534   42533   42535   42536   42537   42536   42538
   42539   42540   42539   42541   42542   42543   42542   42544
   42545   42546   42545   42547   42548   42549   42548   42550
   42551   42552   42551   42553   42554   42555   42554   42556
   42557   42558   42557   42559   42560   42561   42560   42562
   42563   42564   42563   42565   42566   42567   42566   42568
   42569   42570   42569   42571   42572   42573   42572   42574
   42575   42576   42575   42577   42578   42579   42578   42580
   42581   42582   42581   42583   42584   42585   42584   42586
   42587   42588   42587   42589   42590   42591   42590   42592
   42593   42594   42593   42595   42596   42597   42596   42598
   42599   42600   42599   42601   42602   42603   42602   42604
   42605   42606   42605   42607   42608   42609   42608   42610
   42611   42612   42611   42613   42614   42615   42614   42616
   42617   42618   42617   42619   42620   42621   42620   42622
   42623   42624   42623   42625   42626   42627   42626   42628
   42629   42630   42629   42631   42632   42633   42632   42634
   42635   42636   42635   42637   42638   42639   42638   42640
   42641   42642   42641   42643   42644   42645   42644   42646
   42647   42648   42647   42649   42650   42651   42650   42652
   42653   42654   42653   42655   42656   42657   42656   42658
   42659   42660   42659   42661   42662   42663   42662   42664
   42665   42666   42665   42667   42668   42669   42668   42670
   42671   42672   42671   42673   42674   42675   42674   42676
   42677   42678   42677   42679   42680   42681   42680   42682
   42683   42684   42683   42685   42686   42687   42686   42688
   42689   42690   42689   42691   42692   42693   42692   42694
   42695   42696   42695   42697   42698   42699   42698   42700
   42701   42702   42701   42703   42704   42705   42704   42706
   42707   42708   42707   42709   42710   42711   42710   42712
   42713   42714   42713   42715   42716   42717   42716   42718
   42719   42720   42719   42721   42722   42723   42722   42724
   42725   42726   42725   42727   42728   42729   42728   42730
   42731   42732   42731   42733   42734   42735   42734   42736
   42737   42738   42737   42739   42740   42741   42740   42742
   42743   42744   42743   42745   42746   42747   42746   42748
   42749   42750   42749   42751   42752   42753   42752   42754
   42755   42756   42755   42757   42758   42759   42758   42760
   42761   42762   42761   42763   42764   42765   42764   42766
   42767   42768   42767   42769   42770   42771   42770   42772
   42773   42774   42773   42775   42776   42777   42776   42778
   42779   42780   42779   42781   42782   42783   42782   42784
   42785   42786   42785   42787   42788   42789   42788   42790
   42791   42792   42791   42793   42794   42795   42794   42796
   42797   42798   42797   42799   42800   42801   42800   42802
   42803   42804   42803   42805   42806   42807   42806   42808
   42809   42810   42809   42811   42812   42813   42812   42814
   42815   42816   42815   42817   42818   42819   42818   42820
   42821   42822   42821   42823   42824   42825   42824   42826
   42827   42828   42827   42829   42830   42831   42830   42832
   42833   42834   42833   42835   42836   42837   42836   42838
   42839   42840   42839   42841   42842   42843   42842   42844
   42845   42846   42845   42847   42848   42849   42848   42850
   42851   42852   42851   42853   42854   42855   42854   42856
   42857   42858   42857   42859   42860   42861   42860   42862
   42863   42864   42863   42865   42866   42867   42866   42868
   42869   42870   42869   42871   42872   42873   42872   42874
   42875   42876   42875   42877   42878   42879   42878   42880
   42881   42882   42881   42883   42884   42885   42884   42886
   42887   42888   42887   42889   42890   42891   42890   42892
   42893   42894   42893   42895   42896   42897   42896   42898
   42899   42900   42899   42901   42902   42903   42902   42904
   42905   42906   42905   42907   42908   42909   42908   42910
   42911   42912   42911   42913   42914   42915   42914   42916
   42917   42918   42917   42919   42920   42921   42920   42922
   42923   42924   42923   42925   42926   42927   42926   42928
   42929   42930   42929   42931   42932   42933   42932   42934
   42935   42936   42935   42937   42938   42939   42938   42940
   42941   42942   42941   42943   42944   42945   42944   42946
   42947   42948   42947   42949   42950   42951   42950   42952
   42953   42954   42953   42955   42956   42957   42956   42958
   42959   42960   42959   42961   42962   42963   42962   42964
   42965   42966   42965   42967   42968   42969   42968   42970
   42971   42972   42971   42973   42974   42975   42974   42976
   42977   42978   42977   42979   42980   42981   42980   42982
   42983   42984   42983   42985   42986   42987   42986   42988
   42989   42990   42989   42991   42992   42993   42992   42994
   42995   42996   42995   42997   42998   42999   42998   43000
   43001   43002   43001   43003   43004   43005   43004   43006
   43007   43008   43007   43009   43010   43011   43010   43012
   43013   43014   43013   43015   43016   43017   43016   43018
   43019   43020   43019   43021   43022   43023   43022   43024
   43025   43026   43025   43027   43028   43029   43028   43030
   43031   43032   43031   43033   43034   43035   43034   43036
   43037   43038   43037   43039   43040   43041   43040   43042
   43043   43044   43043   43045   43046   43047   43046   43048
   43049   43050   43049   43051   43052   43053   43052   43054
   43055   43056   43055   43057   43058   43059   43058   43060
   43061   43062   43061   43063   43064   43065   43064   43066
   43067   43068   43067   43069   43070   43071   43070   43072
   43073   43074   43073   43075   43076   43077   43076   43078
   43079   43080   43079   43081   43082   43083   43082   43084
   43085   43086   43085   43087   43088   43089   43088   43090
   43091   43092   43091   43093   43094   43095   43094   43096
   43097   43098   43097   43099   43100   43101   43100   43102
   43103   43104   43103   43105   43106   43107   43106   43108
   43109   43110   43109   43111   43112   43113   43112   43114
   43115   43116   43115   43117   43118   43119   43118   43120
   43121   43122   43121   43123   43124   43125   43124   43126
   43127   43128   43127   43129   43130   43131   43130   43132
   43133   43134   43133   43135   43136   43137   43136   43138
   43139   43140   43139   43141   43142   43143   43142   43144
   43145   43146   43145   43147   43148   43149   43148   43150
   43151   43152   43151   43153   43154   43155   43154   43156
   43157   43158   43157   43159   43160   43161   43160   43162
   43163   43164   43163   43165   43166   43167   43166   43168
   43169   43170   43169   43171   43172   43173   43172   43174
   43175   43176   43175   43177   43178   43179   43178   43180
   43181   43182   43181   43183   43184   43185   43184   43186
   43187   43188   43187   43189   43190   43191   43190   43192
   43193   43194   43193   43195   43196   43197   43196   43198
   43199   43200   43199   43201   43202   43203   43202   43204
   43205   43206   43205   43207   43208   43209   43208   43210
   43211   43212   43211   43213   43214   43215   43214   43216
   43217   43218   43217   43219   43220   43221   43220   43222
   43223   43224   43223   43225   43226   43227   43226   43228
   43229   43230   43229   43231   43232   43233   43232   43234
   43235   43236   43235   43237   43238   43239   43238   43240
   43241   43242   43241   43243   43244   43245   43244   43246
   43247   43248   43247   43249   43250   43251   43250   43252
   43253   43254   43253   43255   43256   43257   43256   43258
   43259   43260   43259   43261   43262   43263   43262   43264
   43265   43266   43265   43267   43268   43269   43268   43270
   43271   43272   43271   43273   43274   43275   43274   43276
   43277   43278   43277   43279   43280   43281   43280   43282
   43283   43284   43283   43285   43286   43287   43286   43288
   43289   43290   43289   43291   43292   43293   43292   43294
   43295   43296   43295   43297   43298   43299   43298   43300
   43301   43302   43301   43303   43304   43305   43304   43306
   43307   43308   43307   43309   43310   43311   43310   43312
   43313   43314   43313   43315   43316   43317   43316   43318
   43319   43320   43319   43321   43322   43323   43322   43324
   43325   43326   43325   43327   43328   43329   43328   43330
   43331   43332   43331   43333   43334   43335   43334   43336
   43337   43338   43337   43339   43340   43341   43340   43342
   43343   43344   43343   43345   43346   43347   43346   43348
   43349   43350   43349   43351   43352   43353   43352   43354
   43355   43356   43355   43357   43358   43359   43358   43360
   43361   43362   43361   43363   43364   43365   43364   43366
   43367   43368   43367   43369   43370   43371   43370   43372
   43373   43374   43373   43375   43376   43377   43376   43378
   43379   43380   43379   43381   43382   43383   43382   43384
   43385   43386   43385   43387   43388   43389   43388   43390
   43391   43392   43391   43393   43394   43395   43394   43396
   43397   43398   43397   43399   43400   43401   43400   43402
   43403   43404   43403   43405   43406   43407   43406   43408
   43409   43410   43409   43411   43412   43413   43412   43414
   43415   43416   43415   43417   43418   43419   43418   43420
   43421   43422   43421   43423   43424   43425   43424   43426
   43427   43428   43427   43429   43430   43431   43430   43432
   43433   43434   43433   43435   43436   43437   43436   43438
   43439   43440   43439   43441   43442   43443   43442   43444
   43445   43446   43445   43447   43448   43449   43448   43450
   43451   43452   43451   43453   43454   43455   43454   43456
   43457   43458   43457   43459   43460   43461   43460   43462
   43463   43464   43463   43465   43466   43467   43466   43468
   43469   43470   43469   43471   43472   43473   43472   43474
   43475   43476   43475   43477   43478   43479   43478   43480
   43481   43482   43481   43483   43484   43485   43484   43486
   43487   43488   43487   43489   43490   43491   43490   43492
   43493   43494   43493   43495   43496   43497   43496   43498
   43499   43500   43499   43501   43502   43503   43502   43504
   43505   43506   43505   43507   43508   43509   43508   43510
   43511   43512   43511   43513   43514   43515   43514   43516
   43517   43518   43517   43519   43520   43521   43520   43522
   43523   43524   43523   43525   43526   43527   43526   43528
   43529   43530   43529   43531   43532   43533   43532   43534
   43535   43536   43535   43537   43538   43539   43538   43540
   43541   43542   43541   43543   43544   43545   43544   43546
   43547   43548   43547   43549   43550   43551   43550   43552
   43553   43554   43553   43555   43556   43557   43556   43558
   43559   43560   43559   43561   43562   43563   43562   43564
   43565   43566   43565   43567   43568   43569   43568   43570
   43571   43572   43571   43573   43574   43575   43574   43576
   43577   43578   43577   43579   43580   43581   43580   43582
   43583   43584   43583   43585   43586   43587   43586   43588
   43589   43590   43589   43591   43592   43593   43592   43594
   43595   43596   43595   43597   43598   43599   43598   43600
   43601   43602   43601   43603   43604   43605   43604   43606
   43607   43608   43607   43609   43610   43611   43610   43612
   43613   43614   43613   43615   43616   43617   43616   43618
   43619   43620   43619   43621   43622   43623   43622   43624
   43625   43626   43625   43627   43628   43629   43628   43630
   43631   43632   43631   43633   43634   43635   43634   43636
   43637   43638   43637   43639   43640   43641   43640   43642
   43643   43644   43643   43645   43646   43647   43646   43648
   43649   43650   43649   43651   43652   43653   43652   43654
   43655   43656   43655   43657   43658   43659   43658   43660
   43661   43662   43661   43663   43664   43665   43664   43666
   43667   43668   43667   43669   43670   43671   43670   43672
   43673   43674   43673   43675   43676   43677   43676   43678
   43679   43680   43679   43681   43682   43683   43682   43684
   43685   43686   43685   43687   43688   43689   43688   43690
   43691   43692   43691   43693   43694   43695   43694   43696
   43697   43698   43697   43699   43700   43701   43700   43702
   43703   43704   43703   43705   43706   43707   43706   43708
   43709   43710   43709   43711   43712   43713   43712   43714
   43715   43716   43715   43717   43718   43719   43718   43720
   43721   43722   43721   43723   43724   43725   43724   43726
   43727   43728   43727   43729   43730   43731   43730   43732
   43733   43734   43733   43735   43736   43737   43736   43738
   43739   43740   43739   43741   43742   43743   43742   43744
   43745   43746   43745   43747   43748   43749   43748   43750
   43751   43752   43751   43753   43754   43755   43754   43756
   43757   43758   43757   43759   43760   43761   43760   43762
   43763   43764   43763   43765   43766   43767   43766   43768
   43769   43770   43769   43771   43772   43773   43772   43774
   43775   43776   43775   43777   43778   43779   43778   43780
   43781   43782   43781   43783   43784   43785   43784   43786
   43787   43788   43787   43789   43790   43791   43790   43792
   43793   43794   43793   43795   43796   43797   43796   43798
   43799   43800   43799   43801   43802   43803   43802   43804
   43805   43806   43805   43807   43808   43809   43808   43810
   43811   43812   43811   43813   43814   43815   43814   43816
   43817   43818   43817   43819   43820   43821   43820   43822
   43823   43824   43823   43825   43826   43827   43826   43828
   43829   43830   43829   43831   43832   43833   43832   43834
   43835   43836   43835   43837   43838   43839   43838   43840
   43841   43842   43841   43843   43844   43845   43844   43846
   43847   43848   43847   43849   43850   43851   43850   43852
   43853   43854   43853   43855   43856   43857   43856   43858
   43859   43860   43859   43861   43862   43863   43862   43864
   43865   43866   43865   43867   43868   43869   43868   43870
   43871   43872   43871   43873   43874   43875   43874   43876
   43877   43878   43877   43879   43880   43881   43880   43882
   43883   43884   43883   43885   43886   43887   43886   43888
   43889   43890   43889   43891   43892   43893   43892   43894
   43895   43896   43895   43897   43898   43899   43898   43900
   43901   43902   43901   43903   43904   43905   43904   43906
   43907   43908   43907   43909   43910   43911   43910   43912
   43913   43914   43913   43915   43916   43917   43916   43918
   43919   43920   43919   43921   43922   43923   43922   43924
   43925   43926   43925   43927   43928   43929   43928   43930
   43931   43932   43931   43933   43934   43935   43934   43936
   43937   43938   43937   43939   43940   43941   43940   43942
   43943   43944   43943   43945   43946   43947   43946   43948
   43949   43950   43949   43951   43952   43953   43952   43954
   43955   43956   43955   43957   43958   43959   43958   43960
   43961   43962   43961   43963   43964   43965   43964   43966
   43967   43968   43967   43969   43970   43971   43970   43972
   43973   43974   43973   43975   43976   43977   43976   43978
   43979   43980   43979   43981   43982   43983   43982   43984
   43985   43986   43985   43987   43988   43989   43988   43990
   43991   43992   43991   43993   43994   43995   43994   43996
   43997   43998   43997   43999   44000   44001   44000   44002
   44003   44004   44003   44005   44006   44007   44006   44008
   44009   44010   44009   44011   44012   44013   44012   44014
   44015   44016   44015   44017   44018   44019   44018   44020
   44021   44022   44021   44023   44024   44025   44024   44026
   44027   44028   44027   44029   44030   44031   44030   44032
   44033   44034   44033   44035   44036   44037   44036   44038
   44039   44040   44039   44041   44042   44043   44042   44044
   44045   44046   44045   44047   44048   44049   44048   44050
   44051   44052   44051   44053   44054   44055   44054   44056
   44057   44058   44057   44059   44060   44061   44060   44062
   44063   44064   44063   44065   44066   44067   44066   44068
   44069   44070   44069   44071   44072   44073   44072   44074
   44075   44076   44075   44077   44078   44079   44078   44080
   44081   44082   44081   44083   44084   44085   44084   44086
   44087   44088   44087   44089   44090   44091   44090   44092
   44093   44094   44093   44095   44096   44097   44096   44098
   44099   44100   44099   44101   44102   44103   44102   44104
   44105   44106   44105   44107   44108   44109   44108   44110
   44111   44112   44111   44113   44114   44115   44114   44116
   44117   44118   44117   44119   44120   44121   44120   44122
   44123   44124   44123   44125   44126   44127   44126   44128
   44129   44130   44129   44131   44132   44133   44132   44134
   44135   44136   44135   44137   44138   44139   44138   44140
   44141   44142   44141   44143   44144   44145   44144   44146
   44147   44148   44147   44149   44150   44151   44150   44152
   44153   44154   44153   44155   44156   44157   44156   44158
   44159   44160   44159   44161   44162   44163   44162   44164
   44165   44166   44165   44167   44168   44169   44168   44170
   44171   44172   44171   44173   44174   44175   44174   44176
   44177   44178   44177   44179   44180   44181   44180   44182
   44183   44184   44183   44185   44186   44187   44186   44188
   44189   44190   44189   44191   44192   44193   44192   44194
   44195   44196   44195   44197   44198   44199   44198   44200
   44201   44202   44201   44203   44204   44205   44204   44206
   44207   44208   44207   44209   44210   44211   44210   44212
   44213   44214   44213   44215   44216   44217   44216   44218
   44219   44220   44219   44221   44222   44223   44222   44224
   44225   44226   44225   44227   44228   44229   44228   44230
   44231   44232   44231   44233   44234   44235   44234   44236
   44237   44238   44237   44239   44240   44241   44240   44242
   44243   44244   44243   44245   44246   44247   44246   44248
   44249   44250   44249   44251   44252   44253   44252   44254
   44255   44256   44255   44257   44258   44259   44258   44260
   44261   44262   44261   44263   44264   44265   44264   44266
   44267   44268   44267   44269   44270   44271   44270   44272
   44273   44274   44273   44275   44276   44277   44276   44278
   44279   44280   44279   44281   44282   44283   44282   44284
   44285   44286   44285   44287   44288   44289   44288   44290
   44291   44292   44291   44293   44294   44295   44294   44296
   44297   44298   44297   44299   44300   44301   44300   44302
   44303   44304   44303   44305   44306   44307   44306   44308
   44309   44310   44309   44311   44312   44313   44312   44314
   44315   44316   44315   44317   44318   44319   44318   44320
   44321   44322   44321   44323   44324   44325   44324   44326
   44327   44328   44327   44329   44330   44331   44330   44332
   44333   44334   44333   44335   44336   44337   44336   44338
   44339   44340   44339   44341   44342   44343   44342   44344
   44345   44346   44345   44347   44348   44349   44348   44350
   44351   44352   44351   44353   44354   44355   44354   44356
   44357   44358   44357   44359   44360   44361   44360   44362
   44363   44364   44363   44365   44366   44367   44366   44368
   44369   44370   44369   44371   44372   44373   44372   44374
   44375   44376   44375   44377   44378   44379   44378   44380
   44381   44382   44381   44383   44384   44385   44384   44386
   44387   44388   44387   44389   44390   44391   44390   44392
   44393   44394   44393   44395   44396   44397   44396   44398
   44399   44400   44399   44401   44402   44403   44402   44404
   44405   44406   44405   44407   44408   44409   44408   44410
   44411   44412   44411   44413   44414   44415   44414   44416
   44417   44418   44417   44419   44420   44421   44420   44422
   44423   44424   44423   44425   44426   44427   44426   44428
   44429   44430   44429   44431   44432   44433   44432   44434
   44435   44436   44435   44437   44438   44439   44438   44440
   44441   44442   44441   44443   44444   44445   44444   44446
   44447   44448   44447   44449   44450   44451   44450   44452
   44453   44454   44453   44455   44456   44457   44456   44458
   44459   44460   44459   44461   44462   44463   44462   44464
   44465   44466   44465   44467   44468   44469   44468   44470
   44471   44472   44471   44473   44474   44475   44474   44476
   44477   44478   44477   44479   44480   44481   44480   44482
   44483   44484   44483   44485   44486   44487   44486   44488
   44489   44490   44489   44491   44492   44493   44492   44494
   44495   44496   44495   44497   44498   44499   44498   44500
   44501   44502   44501   44503   44504   44505   44504   44506
   44507   44508   44507   44509   44510   44511   44510   44512
   44513   44514   44513   44515   44516   44517   44516   44518
   44519   44520   44519   44521   44522   44523   44522   44524
   44525   44526   44525   44527   44528   44529   44528   44530
   44531   44532   44531   44533   44534   44535   44534   44536
   44537   44538   44537   44539   44540   44541   44540   44542
   44543   44544   44543   44545   44546   44547   44546   44548
   44549   44550   44549   44551   44552   44553   44552   44554
   44555   44556   44555   44557   44558   44559   44558   44560
   44561   44562   44561   44563   44564   44565   44564   44566
   44567   44568   44567   44569   44570   44571   44570   44572
   44573   44574   44573   44575   44576   44577   44576   44578
   44579   44580   44579   44581   44582   44583   44582   44584
   44585   44586   44585   44587   44588   44589   44588   44590
   44591   44592   44591   44593   44594   44595   44594   44596
   44597   44598   44597   44599   44600   44601   44600   44602
   44603   44604   44603   44605   44606   44607   44606   44608
   44609   44610   44609   44611   44612   44613   44612   44614
   44615   44616   44615   44617   44618   44619   44618   44620
   44621   44622   44621   44623   44624   44625   44624   44626
   44627   44628   44627   44629   44630   44631   44630   44632
   44633   44634   44633   44635   44636   44637   44636   44638
   44639   44640   44639   44641   44642   44643   44642   44644
   44645   44646   44645   44647   44648   44649   44648   44650
   44651   44652   44651   44653   44654   44655   44654   44656
   44657   44658   44657   44659   44660   44661   44660   44662
   44663   44664   44663   44665   44666   44667   44666   44668
   44669   44670   44669   44671   44672   44673   44672   44674
   44675   44676   44675   44677   44678   44679   44678   44680
   44681   44682   44681   44683   44684   44685   44684   44686
   44687   44688   44687   44689   44690   44691   44690   44692
   44693   44694   44693   44695   44696   44697   44696   44698
   44699   44700   44699   44701   44702   44703   44702   44704
   44705   44706   44705   44707   44708   44709   44708   44710
   44711   44712   44711   44713   44714   44715   44714   44716
   44717   44718   44717   44719   44720   44721   44720   44722
   44723   44724   44723   44725   44726   44727   44726   44728
   44729   44730   44729   44731   44732   44733   44732   44734
   44735   44736   44735   44737   44738   44739   44738   44740
   44741   44742   44741   44743   44744   44745   44744   44746
   44747   44748   44747   44749   44750   44751   44750   44752
   44753   44754   44753   44755   44756   44757   44756   44758
   44759   44760   44759   44761   44762   44763   44762   44764
   44765   44766   44765   44767   44768   44769   44768   44770
   44771   44772   44771   44773   44774   44775   44774   44776
   44777   44778   44777   44779   44780   44781   44780   44782
   44783   44784   44783   44785   44786   44787   44786   44788
   44789   44790   44789   44791   44792   44793   44792   44794
   44795   44796   44795   44797   44798   44799   44798   44800
   44801   44802   44801   44803   44804   44805   44804   44806
   44807   44808   44807   44809   44810   44811   44810   44812
   44813   44814   44813   44815   44816   44817   44816   44818
   44819   44820   44819   44821   44822   44823   44822   44824
   44825   44826   44825   44827   44828   44829   44828   44830
   44831   44832   44831   44833   44834   44835   44834   44836
   44837   44838   44837   44839   44840   44841   44840   44842
   44843   44844   44843   44845   44846   44847   44846   44848
   44849   44850   44849   44851   44852   44853   44852   44854
   44855   44856   44855   44857   44858   44859   44858   44860
   44861   44862   44861   44863   44864   44865   44864   44866
   44867   44868   44867   44869   44870   44871   44870   44872
   44873   44874   44873   44875   44876   44877   44876   44878
   44879   44880   44879   44881   44882   44883   44882   44884
   44885   44886   44885   44887   44888   44889   44888   44890
   44891   44892   44891   44893   44894   44895   44894   44896
   44897   44898   44897   44899   44900   44901   44900   44902
   44903   44904   44903   44905   44906   44907   44906   44908
   44909   44910   44909   44911   44912   44913   44912   44914
   44915   44916   44915   44917   44918   44919   44918   44920
   44921   44922   44921   44923   44924   44925   44924   44926
   44927   44928   44927   44929   44930   44931   44930   44932
   44933   44934   44933   44935   44936   44937   44936   44938
   44939   44940   44939   44941   44942   44943   44942   44944
   44945   44946   44945   44947   44948   44949   44948   44950
   44951   44952   44951   44953   44954   44955   44954   44956
   44957   44958   44957   44959   44960   44961   44960   44962
   44963   44964   44963   44965   44966   44967   44966   44968
   44969   44970   44969   44971   44972   44973   44972   44974
   44975   44976   44975   44977   44978   44979   44978   44980
   44981   44982   44981   44983   44984   44985   44984   44986
   44987   44988   44987   44989   44990   44991   44990   44992
   44993   44994   44993   44995   44996   44997   44996   44998
   44999   45000   44999   45001   45002   45003   45002   45004
   45005   45006   45005   45007   45008   45009   45008   45010
   45011   45012   45011   45013   45014   45015   45014   45016
   45017   45018   45017   45019   45020   45021   45020   45022
   45023   45024   45023   45025   45026   45027   45026   45028
   45029   45030   45029   45031   45032   45033   45032   45034
   45035   45036   45035   45037   45038   45039   45038   45040
   45041   45042   45041   45043   45044   45045   45044   45046
   45047   45048   45047   45049   45050   45051   45050   45052
   45053   45054   45053   45055   45056   45057   45056   45058
   45059   45060   45059   45061   45062   45063   45062   45064
   45065   45066   45065   45067   45068   45069   45068   45070
   45071   45072   45071   45073   45074   45075   45074   45076
   45077   45078   45077   45079   45080   45081   45080   45082
   45083   45084   45083   45085   45086   45087   45086   45088
   45089   45090   45089   45091   45092   45093   45092   45094
   45095   45096   45095   45097   45098   45099   45098   45100
   45101   45102   45101   45103   45104   45105   45104   45106
   45107   45108   45107   45109   45110   45111   45110   45112
   45113   45114   45113   45115   45116   45117   45116   45118
   45119   45120   45119   45121   45122   45123   45122   45124
   45125   45126   45125   45127   45128   45129   45128   45130
   45131   45132   45131   45133   45134   45135   45134   45136
   45137   45138   45137   45139   45140   45141   45140   45142
   45143   45144   45143   45145   45146   45147   45146   45148
   45149   45150   45149   45151   45152   45153   45152   45154
   45155   45156   45155   45157   45158   45159   45158   45160
   45161   45162   45161   45163   45164   45165   45164   45166
   45167   45168   45167   45169   45170   45171   45170   45172
   45173   45174   45173   45175   45176   45177   45176   45178
   45179   45180   45179   45181   45182   45183   45182   45184
   45185   45186   45185   45187   45188   45189   45188   45190
   45191   45192   45191   45193   45194   45195   45194   45196
   45197   45198   45197   45199   45200   45201   45200   45202
   45203   45204   45203   45205   45206   45207   45206   45208
   45209   45210   45209   45211   45212   45213   45212   45214
   45215   45216   45215   45217   45218   45219   45218   45220
   45221   45222   45221   45223   45224   45225   45224   45226
   45227   45228   45227   45229   45230   45231   45230   45232
   45233   45234   45233   45235   45236   45237   45236   45238
   45239   45240   45239   45241   45242   45243   45242   45244
   45245   45246   45245   45247   45248   45249   45248   45250
   45251   45252   45251   45253   45254   45255   45254   45256
   45257   45258   45257   45259   45260   45261   45260   45262
   45263   45264   45263   45265   45266   45267   45266   45268
   45269   45270   45269   45271   45272   45273   45272   45274
   45275   45276   45275   45277   45278   45279   45278   45280
   45281   45282   45281   45283   45284   45285   45284   45286
   45287   45288   45287   45289   45290   45291   45290   45292
   45293   45294   45293   45295   45296   45297   45296   45298
   45299   45300   45299   45301   45302   45303   45302   45304
   45305   45306   45305   45307   45308   45309   45308   45310
   45311   45312   45311   45313   45314   45315   45314   45316
   45317   45318   45317   45319   45320   45321   45320   45322
   45323   45324   45323   45325   45326   45327   45326   45328
   45329   45330   45329   45331   45332   45333   45332   45334
   45335   45336   45335   45337   45338   45339   45338   45340
   45341   45342   45341   45343   45344   45345   45344   45346
   45347   45348   45347   45349   45350   45351   45350   45352
   45353   45354   45353   45355   45356   45357   45356   45358
   45359   45360   45359   45361   45362   45363   45362   45364
   45365   45366   45365   45367   45368   45369   45368   45370
   45371   45372   45371   45373   45374   45375   45374   45376
   45377   45378   45377   45379   45380   45381   45380   45382
   45383   45384   45383   45385   45386   45387   45386   45388
   45389   45390   45389   45391   45392   45393   45392   45394
   45395   45396   45395   45397   45398   45399   45398   45400
   45401   45402   45401   45403   45404   45405   45404   45406
   45407   45408   45407   45409   45410   45411   45410   45412
   45413   45414   45413   45415   45416   45417   45416   45418
   45419   45420   45419   45421   45422   45423   45422   45424
   45425   45426   45425   45427   45428   45429   45428   45430
   45431   45432   45431   45433   45434   45435   45434   45436
   45437   45438   45437   45439   45440   45441   45440   45442
   45443   45444   45443   45445   45446   45447   45446   45448
   45449   45450   45449   45451   45452   45453   45452   45454
   45455   45456   45455   45457   45458   45459   45458   45460
   45461   45462   45461   45463   45464   45465   45464   45466
   45467   45468   45467   45469   45470   45471   45470   45472
   45473   45474   45473   45475   45476   45477   45476   45478
   45479   45480   45479   45481   45482   45483   45482   45484
   45485   45486   45485   45487   45488   45489   45488   45490
   45491   45492   45491   45493   45494   45495   45494   45496
   45497   45498   45497   45499   45500   45501   45500   45502
   45503   45504   45503   45505   45506   45507   45506   45508
   45509   45510   45509   45511   45512   45513   45512   45514
   45515   45516   45515   45517   45518   45519   45518   45520
   45521   45522   45521   45523   45524   45525   45524   45526
   45527   45528   45527   45529   45530   45531   45530   45532
   45533   45534   45533   45535   45536   45537   45536   45538
   45539   45540   45539   45541   45542   45543   45542   45544
   45545   45546   45545   45547   45548   45549   45548   45550
   45551   45552   45551   45553   45554   45555   45554   45556
   45557   45558   45557   45559   45560   45561   45560   45562
   45563   45564   45563   45565   45566   45567   45566   45568
   45569   45570   45569   45571   45572   45573   45572   45574
   45575   45576   45575   45577   45578   45579   45578   45580
   45581   45582   45581   45583   45584   45585   45584   45586
   45587   45588   45587   45589   45590   45591   45590   45592
   45593   45594   45593   45595   45596   45597   45596   45598
   45599   45600   45599   45601   45602   45603   45602   45604
   45605   45606   45605   45607   45608   45609   45608   45610
   45611   45612   45611   45613   45614   45615   45614   45616
   45617   45618   45617   45619   45620   45621   45620   45622
   45623   45624   45623   45625   45626   45627   45626   45628
   45629   45630   45629   45631   45632   45633   45632   45634
   45635   45636   45635   45637   45638   45639   45638   45640
   45641   45642   45641   45643   45644   45645   45644   45646
   45647   45648   45647   45649   45650   45651   45650   45652
   45653   45654   45653   45655   45656   45657   45656   45658
   45659   45660   45659   45661   45662   45663   45662   45664
   45665   45666   45665   45667   45668   45669   45668   45670
   45671   45672   45671   45673   45674   45675   45674   45676
   45677   45678   45677   45679   45680   45681   45680   45682
   45683   45684   45683   45685   45686   45687   45686   45688
   45689   45690   45689   45691   45692   45693   45692   45694
   45695   45696   45695   45697   45698   45699   45698   45700
   45701   45702   45701   45703   45704   45705   45704   45706
   45707   45708   45707   45709   45710   45711   45710   45712
   45713   45714   45713   45715   45716   45717   45716   45718
   45719   45720   45719   45721   45722   45723   45722   45724
   45725   45726   45725   45727   45728   45729   45728   45730
   45731   45732   45731   45733   45734   45735   45734   45736
   45737   45738   45737   45739   45740   45741   45740   45742
   45743   45744   45743   45745   45746   45747   45746   45748
   45749   45750   45749   45751   45752   45753   45752   45754
   45755   45756   45755   45757   45758   45759   45758   45760
   45761   45762   45761   45763   45764   45765   45764   45766
   45767   45768   45767   45769   45770   45771   45770   45772
   45773   45774   45773   45775   45776   45777   45776   45778
   45779   45780   45779   45781   45782   45783   45782   45784
   45785   45786   45785   45787   45788   45789   45788   45790
   45791   45792   45791   45793   45794   45795   45794   45796
   45797   45798   45797   45799   45800   45801   45800   45802
   45803   45804   45803   45805   45806   45807   45806   45808
   45809   45810   45809   45811   45812   45813   45812   45814
   45815   45816   45815   45817   45818   45819   45818   45820
   45821   45822   45821   45823   45824   45825   45824   45826
   45827   45828   45827   45829   45830   45831   45830   45832
   45833   45834   45833   45835   45836   45837   45836   45838
   45839   45840   45839   45841   45842   45843   45842   45844
   45845   45846   45845   45847   45848   45849   45848   45850
   45851   45852   45851   45853   45854   45855   45854   45856
   45857   45858   45857   45859   45860   45861   45860   45862
   45863   45864   45863   45865   45866   45867   45866   45868
   45869   45870   45869   45871   45872   45873   45872   45874
   45875   45876   45875   45877   45878   45879   45878   45880
   45881   45882   45881   45883   45884   45885   45884   45886
   45887   45888   45887   45889   45890   45891   45890   45892
   45893   45894   45893   45895   45896   45897   45896   45898
   45899   45900   45899   45901   45902   45903   45902   45904
   45905   45906   45905   45907   45908   45909   45908   45910
   45911   45912   45911   45913   45914   45915   45914   45916
   45917   45918   45917   45919   45920   45921   45920   45922
   45923   45924   45923   45925   45926   45927   45926   45928
   45929   45930   45929   45931   45932   45933   45932   45934
   45935   45936   45935   45937   45938   45939   45938   45940
   45941   45942   45941   45943   45944   45945   45944   45946
   45947   45948   45947   45949   45950   45951   45950   45952
   45953   45954   45953   45955   45956   45957   45956   45958
   45959   45960   45959   45961   45962   45963   45962   45964
   45965   45966   45965   45967   45968   45969   45968   45970
   45971   45972   45971   45973   45974   45975   45974   45976
   45977   45978   45977   45979   45980   45981   45980   45982
   45983   45984   45983   45985   45986   45987   45986   45988
   45989   45990   45989   45991   45992   45993   45992   45994
   45995   45996   45995   45997   45998   45999   45998   46000
   46001   46002   46001   46003   46004   46005   46004   46006
   46007   46008   46007   46009   46010   46011   46010   46012
   46013   46014   46013   46015   46016   46017   46016   46018
   46019   46020   46019   46021   46022   46023   46022   46024
   46025   46026   46025   46027   46028   46029   46028   46030
   46031   46032   46031   46033   46034   46035   46034   46036
   46037   46038   46037   46039   46040   46041   46040   46042
   46043   46044   46043   46045   46046   46047   46046   46048
   46049   46050   46049   46051   46052   46053   46052   46054
   46055   46056   46055   46057   46058   46059   46058   46060
   46061   46062   46061   46063   46064   46065   46064   46066
   46067   46068   46067   46069   46070   46071   46070   46072
   46073   46074   46073   46075   46076   46077   46076   46078
   46079   46080   46079   46081   46082   46083   46082   46084
   46085   46086   46085   46087   46088   46089   46088   46090
   46091   46092   46091   46093   46094   46095   46094   46096
   46097   46098   46097   46099   46100   46101   46100   46102
   46103   46104   46103   46105   46106   46107   46106   46108
   46109   46110   46109   46111   46112   46113   46112   46114
   46115   46116   46115   46117   46118   46119   46118   46120
   46121   46122   46121   46123   46124   46125   46124   46126
   46127   46128   46127   46129   46130   46131   46130   46132
   46133   46134   46133   46135   46136   46137   46136   46138
   46139   46140   46139   46141   46142   46143   46142   46144
   46145   46146   46145   46147   46148   46149   46148   46150
   46151   46152   46151   46153   46154   46155   46154   46156
   46157   46158   46157   46159   46160   46161   46160   46162
   46163   46164   46163   46165   46166   46167   46166   46168
   46169   46170   46169   46171   46172   46173   46172   46174
   46175   46176   46175   46177   46178   46179   46178   46180
   46181   46182   46181   46183   46184   46185   46184   46186
   46187   46188   46187   46189   46190   46191   46190   46192
   46193   46194   46193   46195   46196   46197   46196   46198
   46199   46200   46199   46201   46202   46203   46202   46204
   46205   46206   46205   46207   46208   46209   46208   46210
   46211   46212   46211   46213   46214   46215   46214   46216
   46217   46218   46217   46219   46220   46221   46220   46222
   46223   46224   46223   46225   46226   46227   46226   46228
   46229   46230   46229   46231   46232   46233   46232   46234
   46235   46236   46235   46237   46238   46239   46238   46240
   46241   46242   46241   46243   46244   46245   46244   46246
   46247   46248   46247   46249   46250   46251   46250   46252
   46253   46254   46253   46255   46256   46257   46256   46258
   46259   46260   46259   46261   46262   46263   46262   46264
   46265   46266   46265   46267   46268   46269   46268   46270
   46271   46272   46271   46273   46274   46275   46274   46276
   46277   46278   46277   46279   46280   46281   46280   46282
   46283   46284   46283   46285   46286   46287   46286   46288
   46289   46290   46289   46291   46292   46293   46292   46294
   46295   46296   46295   46297   46298   46299   46298   46300
   46301   46302   46301   46303   46304   46305   46304   46306
   46307   46308   46307   46309   46310   46311   46310   46312
   46313   46314   46313   46315   46316   46317   46316   46318
   46319   46320   46319   46321   46322   46323   46322   46324
   46325   46326   46325   46327   46328   46329   46328   46330
   46331   46332   46331   46333   46334   46335   46334   46336
   46337   46338   46337   46339   46340   46341   46340   46342
   46343   46344   46343   46345   46346   46347   46346   46348
   46349   46350   46349   46351   46352   46353   46352   46354
   46355   46356   46355   46357   46358   46359   46358   46360
   46361   46362   46361   46363   46364   46365   46364   46366
   46367   46368   46367   46369   46370   46371   46370   46372
   46373   46374   46373   46375   46376   46377   46376   46378
   46379   46380   46379   46381   46382   46383   46382   46384
   46385   46386   46385   46387   46388   46389   46388   46390
   46391   46392   46391   46393   46394   46395   46394   46396
   46397   46398   46397   46399   46400   46401   46400   46402
   46403   46404   46403   46405   46406   46407   46406   46408
   46409   46410   46409   46411   46412   46413   46412   46414
   46415   46416   46415   46417   46418   46419   46418   46420
   46421   46422   46421   46423   46424   46425   46424   46426
   46427   46428   46427   46429   46430   46431   46430   46432
   46433   46434   46433   46435   46436   46437   46436   46438
   46439   46440   46439   46441   46442   46443   46442   46444
   46445   46446   46445   46447   46448   46449   46448   46450
   46451   46452   46451   46453   46454   46455   46454   46456
   46457   46458   46457   46459   46460   46461   46460   46462
   46463   46464   46463   46465   46466   46467   46466   46468
   46469   46470   46469   46471   46472   46473   46472   46474
   46475   46476   46475   46477   46478   46479   46478   46480
   46481   46482   46481   46483   46484   46485   46484   46486
   46487   46488   46487   46489   46490   46491   46490   46492
   46493   46494   46493   46495   46496   46497   46496   46498
   46499   46500   46499   46501   46502   46503   46502   46504
   46505   46506   46505   46507   46508   46509   46508   46510
   46511   46512   46511   46513   46514   46515   46514   46516
   46517   46518   46517   46519   46520   46521   46520   46522
   46523   46524   46523   46525   46526   46527   46526   46528
   46529   46530   46529   46531   46532   46533   46532   46534
   46535   46536   46535   46537   46538   46539   46538   46540
   46541   46542   46541   46543   46544   46545   46544   46546
   46547   46548   46547   46549   46550   46551   46550   46552
   46553   46554   46553   46555   46556   46557   46556   46558
   46559   46560   46559   46561   46562   46563   46562   46564
   46565   46566   46565   46567   46568   46569   46568   46570
   46571   46572   46571   46573   46574   46575   46574   46576
   46577   46578   46577   46579   46580   46581   46580   46582
   46583   46584   46583   46585   46586   46587   46586   46588
   46589   46590   46589   46591   46592   46593   46592   46594
   46595   46596   46595   46597   46598   46599   46598   46600
   46601   46602   46601   46603   46604   46605   46604   46606
   46607   46608   46607   46609   46610   46611   46610   46612
   46613   46614   46613   46615   46616   46617   46616   46618
   46619   46620   46619   46621   46622   46623   46622   46624
   46625   46626   46625   46627   46628   46629   46628   46630
   46631   46632   46631   46633   46634   46635   46634   46636
   46637   46638   46637   46639   46640   46641   46640   46642
   46643   46644   46643   46645   46646   46647   46646   46648
   46649   46650   46649   46651   46652   46653   46652   46654
   46655   46656   46655   46657   46658   46659   46658   46660
   46661   46662   46661   46663   46664   46665   46664   46666
   46667   46668   46667   46669   46670   46671   46670   46672
   46673   46674   46673   46675   46676   46677   46676   46678
   46679   46680   46679   46681   46682   46683   46682   46684
   46685   46686   46685   46687   46688   46689   46688   46690
   46691   46692   46691   46693   46694   46695   46694   46696
   46697   46698   46697   46699   46700   46701   46700   46702
   46703   46704   46703   46705   46706   46707   46706   46708
   46709   46710   46709   46711   46712   46713   46712   46714
   46715   46716   46715   46717   46718   46719   46718   46720
   46721   46722   46721   46723   46724   46725   46724   46726
   46727   46728   46727   46729   46730   46731   46730   46732
   46733   46734   46733   46735   46736   46737   46736   46738
   46739   46740   46739   46741   46742   46743   46742   46744
   46745   46746   46745   46747   46748   46749   46748   46750
   46751   46752   46751   46753   46754   46755   46754   46756
   46757   46758   46757   46759   46760   46761   46760   46762
   46763   46764   46763   46765   46766   46767   46766   46768
   46769   46770   46769   46771   46772   46773   46772   46774
   46775   46776   46775   46777   46778   46779   46778   46780
   46781   46782   46781   46783   46784   46785   46784   46786
   46787   46788   46787   46789   46790   46791   46790   46792
   46793   46794   46793   46795   46796   46797   46796   46798
   46799   46800   46799   46801   46802   46803   46802   46804
   46805   46806   46805   46807   46808   46809   46808   46810
   46811   46812   46811   46813   46814   46815   46814   46816
   46817   46818   46817   46819   46820   46821   46820   46822
   46823   46824   46823   46825   46826   46827   46826   46828
   46829   46830   46829   46831   46832   46833   46832   46834
   46835   46836   46835   46837   46838   46839   46838   46840
   46841   46842   46841   46843   46844   46845   46844   46846
   46847   46848   46847   46849   46850   46851   46850   46852
   46853   46854   46853   46855   46856   46857   46856   46858
   46859   46860   46859   46861   46862   46863   46862   46864
   46865   46866   46865   46867   46868   46869   46868   46870
   46871   46872   46871   46873   46874   46875   46874   46876
   46877   46878   46877   46879   46880   46881   46880   46882
   46883   46884   46883   46885   46886   46887   46886   46888
   46889   46890   46889   46891   46892   46893   46892   46894
   46895   46896   46895   46897   46898   46899   46898   46900
   46901   46902   46901   46903   46904   46905   46904   46906
   46907   46908   46907   46909   46910   46911   46910   46912
   46913   46914   46913   46915   46916   46917   46916   46918
   46919   46920   46919   46921   46922   46923   46922   46924
   46925   46926   46925   46927   46928   46929   46928   46930
   46931   46932   46931   46933   46934   46935   46934   46936
   46937   46938   46937   46939   46940   46941   46940   46942
   46943   46944   46943   46945   46946   46947   46946   46948
   46949   46950   46949   46951   46952   46953   46952   46954
   46955   46956   46955   46957   46958   46959   46958   46960
   46961   46962   46961   46963   46964   46965   46964   46966
   46967   46968   46967   46969   46970   46971   46970   46972
   46973   46974   46973   46975   46976   46977   46976   46978
   46979   46980   46979   46981   46982   46983   46982   46984
   46985   46986   46985   46987   46988   46989   46988   46990
   46991   46992   46991   46993   46994   46995   46994   46996
   46997   46998   46997   46999   47000   47001   47000   47002
   47003   47004   47003   47005   47006   47007   47006   47008
   47009   47010   47009   47011   47012   47013   47012   47014
   47015   47016   47015   47017   47018   47019   47018   47020
   47021   47022   47021   47023   47024   47025   47024   47026
   47027   47028   47027   47029   47030   47031   47030   47032
   47033   47034   47033   47035   47036   47037   47036   47038
   47039   47040   47039   47041   47042   47043   47042   47044
   47045   47046   47045   47047   47048   47049   47048   47050
   47051   47052   47051   47053   47054   47055   47054   47056
   47057   47058   47057   47059   47060   47061   47060   47062
   47063   47064   47063   47065   47066   47067   47066   47068
   47069   47070   47069   47071   47072   47073   47072   47074
   47075   47076   47075   47077   47078   47079   47078   47080
   47081   47082   47081   47083   47084   47085   47084   47086
   47087   47088   47087   47089   47090   47091   47090   47092
   47093   47094   47093   47095   47096   47097   47096   47098
   47099   47100   47099   47101   47102   47103   47102   47104
   47105   47106   47105   47107   47108   47109   47108   47110
   47111   47112   47111   47113   47114   47115   47114   47116
   47117   47118   47117   47119   47120   47121   47120   47122
   47123   47124   47123   47125   47126   47127   47126   47128
   47129   47130   47129   47131   47132   47133   47132   47134
   47135   47136   47135   47137   47138   47139   47138   47140
   47141   47142   47141   47143   47144   47145   47144   47146
   47147   47148   47147   47149   47150   47151   47150   47152
   47153   47154   47153   47155   47156   47157   47156   47158
   47159   47160   47159   47161   47162   47163   47162   47164
   47165   47166   47165   47167   47168   47169   47168   47170
   47171   47172   47171   47173   47174   47175   47174   47176
   47177   47178   47177   47179   47180   47181   47180   47182
   47183   47184   47183   47185   47186   47187   47186   47188
   47189   47190   47189   47191   47192   47193   47192   47194
   47195   47196   47195   47197   47198   47199   47198   47200
   47201   47202   47201   47203   47204   47205   47204   47206
   47207   47208   47207   47209   47210   47211   47210   47212
   47213   47214   47213   47215   47216   47217   47216   47218
   47219   47220   47219   47221   47222   47223   47222   47224
   47225   47226   47225   47227   47228   47229   47228   47230
   47231   47232   47231   47233   47234   47235   47234   47236
   47237   47238   47237   47239   47240   47241   47240   47242
   47243   47244   47243   47245   47246   47247   47246   47248
   47249   47250   47249   47251   47252   47253   47252   47254
   47255   47256   47255   47257   47258   47259   47258   47260
   47261   47262   47261   47263   47264   47265   47264   47266
   47267   47268   47267   47269   47270   47271   47270   47272
   47273   47274   47273   47275   47276   47277   47276   47278
   47279   47280   47279   47281   47282   47283   47282   47284
   47285   47286   47285   47287   47288   47289   47288   47290
   47291   47292   47291   47293   47294   47295   47294   47296
   47297   47298   47297   47299   47300   47301   47300   47302
   47303   47304   47303   47305   47306   47307   47306   47308
   47309   47310   47309   47311   47312   47313   47312   47314
   47315   47316   47315   47317   47318   47319   47318   47320
   47321   47322   47321   47323   47324   47325   47324   47326
   47327   47328   47327   47329   47330   47331   47330   47332
   47333   47334   47333   47335   47336   47337   47336   47338
   47339   47340   47339   47341   47342   47343   47342   47344
   47345   47346   47345   47347   47348   47349   47348   47350
   47351   47352   47351   47353   47354   47355   47354   47356
   47357   47358   47357   47359   47360   47361   47360   47362
   47363   47364   47363   47365   47366   47367   47366   47368
   47369   47370   47369   47371   47372   47373   47372   47374
   47375   47376   47375   47377   47378   47379   47378   47380
   47381   47382   47381   47383   47384   47385   47384   47386
   47387   47388   47387   47389   47390   47391   47390   47392
   47393   47394   47393   47395   47396   47397   47396   47398
   47399   47400   47399   47401   47402   47403   47402   47404
   47405   47406   47405   47407   47408   47409   47408   47410
   47411   47412   47411   47413   47414   47415   47414   47416
   47417   47418   47417   47419   47420   47421   47420   47422
   47423   47424   47423   47425   47426   47427   47426   47428
   47429   47430   47429   47431   47432   47433   47432   47434
   47435   47436   47435   47437   47438   47439   47438   47440
   47441   47442   47441   47443   47444   47445   47444   47446
   47447   47448   47447   47449   47450   47451   47450   47452
   47453   47454   47453   47455   47456   47457   47456   47458
   47459   47460   47459   47461   47462   47463   47462   47464
   47465   47466   47465   47467   47468   47469   47468   47470
   47471   47472   47471   47473   47474   47475   47474   47476
   47477   47478   47477   47479   47480   47481   47480   47482
   47483   47484   47483   47485   47486   47487   47486   47488
   47489   47490   47489   47491   47492   47493   47492   47494
   47495   47496   47495   47497   47498   47499   47498   47500
   47501   47502   47501   47503   47504   47505   47504   47506
   47507   47508   47507   47509   47510   47511   47510   47512
   47513   47514   47513   47515   47516   47517   47516   47518
   47519   47520   47519   47521   47522   47523   47522   47524
   47525   47526   47525   47527   47528   47529   47528   47530
   47531   47532   47531   47533   47534   47535   47534   47536
   47537   47538   47537   47539   47540   47541   47540   47542
   47543   47544   47543   47545   47546   47547   47546   47548
   47549   47550   47549   47551   47552   47553   47552   47554
   47555   47556   47555   47557   47558   47559   47558   47560
   47561   47562   47561   47563   47564   47565   47564   47566
   47567   47568   47567   47569   47570   47571   47570   47572
   47573   47574   47573   47575   47576   47577   47576   47578
   47579   47580   47579   47581   47582   47583   47582   47584
   47585   47586   47585   47587   47588   47589   47588   47590
   47591   47592   47591   47593   47594   47595   47594   47596
   47597   47598   47597   47599   47600   47601   47600   47602
   47603   47604   47603   47605   47606   47607   47606   47608
   47609   47610   47609   47611   47612   47613   47612   47614
   47615   47616   47615   47617   47618   47619   47618   47620
   47621   47622   47621   47623   47624   47625   47624   47626
   47627   47628   47627   47629   47630   47631   47630   47632
   47633   47634   47633   47635   47636   47637   47636   47638
   47639   47640   47639   47641   47642   47643   47642   47644
   47645   47646   47645   47647   47648   47649   47648   47650
   47651   47652   47651   47653   47654   47655   47654   47656
   47657   47658   47657   47659   47660   47661   47660   47662
   47663   47664   47663   47665   47666   47667   47666   47668
   47669   47670   47669   47671   47672   47673   47672   47674
   47675   47676   47675   47677   47678   47679   47678   47680
   47681   47682   47681   47683   47684   47685   47684   47686
   47687   47688   47687   47689   47690   47691   47690   47692
   47693   47694   47693   47695   47696   47697   47696   47698
   47699   47700   47699   47701   47702   47703   47702   47704
   47705   47706   47705   47707   47708   47709   47708   47710
   47711   47712   47711   47713   47714   47715   47714   47716
   47717   47718   47717   47719   47720   47721   47720   47722
   47723   47724   47723   47725   47726   47727   47726   47728
   47729   47730   47729   47731   47732   47733   47732   47734
   47735   47736   47735   47737   47738   47739   47738   47740
   47741   47742   47741   47743   47744   47745   47744   47746
   47747   47748   47747   47749   47750   47751   47750   47752
   47753   47754   47753   47755   47756   47757   47756   47758
   47759   47760   47759   47761   47762   47763   47762   47764
   47765   47766   47765   47767   47768   47769   47768   47770
   47771   47772   47771   47773   47774   47775   47774   47776
   47777   47778   47777   47779   47780   47781   47780   47782
   47783   47784   47783   47785   47786   47787   47786   47788
   47789   47790   47789   47791   47792   47793   47792   47794
   47795   47796   47795   47797   47798   47799   47798   47800
   47801   47802   47801   47803   47804   47805   47804   47806
   47807   47808   47807   47809   47810   47811   47810   47812
   47813   47814   47813   47815   47816   47817   47816   47818
   47819   47820   47819   47821   47822   47823   47822   47824
   47825   47826   47825   47827   47828   47829   47828   47830
   47831   47832   47831   47833   47834   47835   47834   47836
   47837   47838   47837   47839   47840   47841   47840   47842
   47843   47844   47843   47845   47846   47847   47846   47848
   47849   47850   47849   47851   47852   47853   47852   47854
   47855   47856   47855   47857   47858   47859   47858   47860
   47861   47862   47861   47863   47864   47865   47864   47866
   47867   47868   47867   47869   47870   47871   47870   47872
   47873   47874   47873   47875   47876   47877   47876   47878
   47879   47880   47879   47881   47882   47883   47882   47884
   47885   47886   47885   47887   47888   47889   47888   47890
   47891   47892   47891   47893   47894   47895   47894   47896
   47897   47898   47897   47899   47900   47901   47900   47902
   47903   47904   47903   47905   47906   47907   47906   47908
   47909   47910   47909   47911   47912   47913   47912   47914
   47915   47916   47915   47917   47918   47919   47918   47920
   47921   47922   47921   47923   47924   47925   47924   47926
   47927   47928   47927   47929   47930   47931   47930   47932
   47933   47934   47933   47935   47936   47937   47936   47938
   47939   47940   47939   47941   47942   47943   47942   47944
   47945   47946   47945   47947   47948   47949   47948   47950
   47951   47952   47951   47953   47954   47955   47954   47956
   47957   47958   47957   47959   47960   47961   47960   47962
   47963   47964   47963   47965   47966   47967   47966   47968
   47969   47970   47969   47971   47972   47973   47972   47974
   47975   47976   47975   47977   47978   47979   47978   47980
   47981   47982   47981   47983   47984   47985   47984   47986
   47987   47988   47987   47989   47990   47991   47990   47992
   47993   47994   47993   47995   47996   47997   47996   47998
   47999   48000   47999   48001   48002   48003   48002   48004
   48005   48006   48005   48007   48008   48009   48008   48010
   48011   48012   48011   48013   48014   48015   48014   48016
   48017   48018   48017   48019   48020   48021   48020   48022
   48023   48024   48023   48025   48026   48027   48026   48028
   48029   48030   48029   48031   48032   48033   48032   48034
   48035   48036   48035   48037   48038   48039   48038   48040
   48041   48042   48041   48043   48044   48045   48044   48046
   48047   48048   48047   48049   48050   48051   48050   48052
   48053   48054   48053   48055   48056   48057   48056   48058
   48059   48060   48059   48061   48062   48063   48062   48064
   48065   48066   48065   48067   48068   48069   48068   48070
   48071   48072   48071   48073   48074   48075   48074   48076
   48077   48078   48077   48079   48080   48081   48080   48082
   48083   48084   48083   48085   48086   48087   48086   48088
   48089   48090   48089   48091   48092   48093   48092   48094
   48095   48096   48095   48097   48098   48099   48098   48100
   48101   48102   48101   48103   48104   48105   48104   48106
   48107   48108   48107   48109   48110   48111   48110   48112
   48113   48114   48113   48115   48116   48117   48116   48118
   48119   48120   48119   48121   48122   48123   48122   48124
   48125   48126   48125   48127   48128   48129   48128   48130
   48131   48132   48131   48133   48134   48135   48134   48136
   48137   48138   48137   48139   48140   48141   48140   48142
   48143   48144   48143   48145   48146   48147   48146   48148
   48149   48150   48149   48151   48152   48153   48152   48154
   48155   48156   48155   48157   48158   48159   48158   48160
   48161   48162   48161   48163   48164   48165   48164   48166
   48167   48168   48167   48169   48170   48171   48170   48172
   48173   48174   48173   48175   48176   48177   48176   48178
   48179   48180   48179   48181   48182   48183   48182   48184
   48185   48186   48185   48187   48188   48189   48188   48190
   48191   48192   48191   48193   48194   48195   48194   48196
   48197   48198   48197   48199   48200   48201   48200   48202
   48203   48204   48203   48205   48206   48207   48206   48208
   48209   48210   48209   48211   48212   48213   48212   48214
   48215   48216   48215   48217   48218   48219   48218   48220
   48221   48222   48221   48223   48224   48225   48224   48226
   48227   48228   48227   48229   48230   48231   48230   48232
   48233   48234   48233   48235   48236   48237   48236   48238
   48239   48240   48239   48241   48242   48243   48242   48244
   48245   48246   48245   48247   48248   48249   48248   48250
   48251   48252   48251   48253   48254   48255   48254   48256
   48257   48258   48257   48259   48260   48261   48260   48262
   48263   48264   48263   48265   48266   48267   48266   48268
   48269   48270   48269   48271   48272   48273   48272   48274
   48275   48276   48275   48277   48278   48279   48278   48280
   48281   48282   48281   48283   48284   48285   48284   48286
   48287   48288   48287   48289   48290   48291   48290   48292
   48293   48294   48293   48295   48296   48297   48296   48298
   48299   48300   48299   48301   48302   48303   48302   48304
   48305   48306   48305   48307   48308   48309   48308   48310
   48311   48312   48311   48313   48314   48315   48314   48316
   48317   48318   48317   48319   48320   48321   48320   48322
   48323   48324   48323   48325   48326   48327   48326   48328
   48329   48330   48329   48331   48332   48333   48332   48334
   48335   48336   48335   48337   48338   48339   48338   48340
   48341   48342   48341   48343   48344   48345   48344   48346
   48347   48348   48347   48349   48350   48351   48350   48352
   48353   48354   48353   48355   48356   48357   48356   48358
   48359   48360   48359   48361   48362   48363   48362   48364
   48365   48366   48365   48367   48368   48369   48368   48370
   48371   48372   48371   48373   48374   48375   48374   48376
   48377   48378   48377   48379   48380   48381   48380   48382
   48383   48384   48383   48385   48386   48387   48386   48388
   48389   48390   48389   48391   48392   48393   48392   48394
   48395   48396   48395   48397   48398   48399   48398   48400
   48401   48402   48401   48403   48404   48405   48404   48406
   48407   48408   48407   48409   48410   48411   48410   48412
   48413   48414   48413   48415   48416   48417   48416   48418
   48419   48420   48419   48421   48422   48423   48422   48424
   48425   48426   48425   48427   48428   48429   48428   48430
   48431   48432   48431   48433   48434   48435   48434   48436
   48437   48438   48437   48439   48440   48441   48440   48442
   48443   48444   48443   48445   48446   48447   48446   48448
   48449   48450   48449   48451   48452   48453   48452   48454
   48455   48456   48455   48457   48458   48459   48458   48460
   48461   48462   48461   48463   48464   48465   48464   48466
   48467   48468   48467   48469   48470   48471   48470   48472
   48473   48474   48473   48475   48476   48477   48476   48478
   48479   48480   48479   48481   48482   48483   48482   48484
   48485   48486   48485   48487   48488   48489   48488   48490
   48491   48492   48491   48493   48494   48495   48494   48496
   48497   48498   48497   48499   48500   48501   48500   48502
   48503   48504   48503   48505   48506   48507   48506   48508
   48509   48510   48509   48511   48512   48513   48512   48514
   48515   48516   48515   48517   48518   48519   48518   48520
   48521   48522   48521   48523   48524   48525   48524   48526
   48527   48528   48527   48529   48530   48531   48530   48532
   48533   48534   48533   48535   48536   48537   48536   48538
   48539   48540   48539   48541   48542   48543   48542   48544
   48545   48546   48545   48547   48548   48549   48548   48550
   48551   48552   48551   48553   48554   48555   48554   48556
   48557   48558   48557   48559   48560   48561   48560   48562
   48563   48564   48563   48565   48566   48567   48566   48568
   48569   48570   48569   48571   48572   48573   48572   48574
   48575   48576   48575   48577   48578   48579   48578   48580
   48581   48582   48581   48583   48584   48585   48584   48586
   48587   48588   48587   48589   48590   48591   48590   48592
   48593   48594   48593   48595   48596   48597   48596   48598
   48599   48600   48599   48601   48602   48603   48602   48604
   48605   48606   48605   48607   48608   48609   48608   48610
   48611   48612   48611   48613   48614   48615   48614   48616
   48617   48618   48617   48619   48620   48621   48620   48622
   48623   48624   48623   48625   48626   48627   48626   48628
   48629   48630   48629   48631   48632   48633   48632   48634
   48635   48636   48635   48637   48638   48639   48638   48640
   48641   48642   48641   48643   48644   48645   48644   48646
   48647   48648   48647   48649   48650   48651   48650   48652
   48653   48654   48653   48655   48656   48657   48656   48658
   48659   48660   48659   48661   48662   48663   48662   48664
   48665   48666   48665   48667   48668   48669   48668   48670
   48671   48672   48671   48673   48674   48675   48674   48676
   48677   48678   48677   48679   48680   48681   48680   48682
   48683   48684   48683   48685   48686   48687   48686   48688
   48689   48690   48689   48691   48692   48693   48692   48694
   48695   48696   48695   48697   48698   48699   48698   48700
   48701   48702   48701   48703   48704   48705   48704   48706
   48707   48708   48707   48709   48710   48711   48710   48712
   48713   48714   48713   48715   48716   48717   48716   48718
   48719   48720   48719   48721   48722   48723   48722   48724
   48725   48726   48725   48727   48728   48729   48728   48730
   48731   48732   48731   48733   48734   48735   48734   48736
   48737   48738   48737   48739   48740   48741   48740   48742
   48743   48744   48743   48745   48746   48747   48746   48748
   48749   48750   48749   48751   48752   48753   48752   48754
   48755   48756   48755   48757   48758   48759   48758   48760
   48761   48762   48761   48763   48764   48765   48764   48766
   48767   48768   48767   48769   48770   48771   48770   48772
   48773   48774   48773   48775   48776   48777   48776   48778
   48779   48780   48779   48781   48782   48783   48782   48784
   48785   48786   48785   48787   48788   48789   48788   48790
   48791   48792   48791   48793   48794   48795   48794   48796
   48797   48798   48797   48799   48800   48801   48800   48802
   48803   48804   48803   48805   48806   48807   48806   48808
   48809   48810   48809   48811   48812   48813   48812   48814
   48815   48816   48815   48817   48818   48819   48818   48820
   48821   48822   48821   48823   48824   48825   48824   48826
   48827   48828   48827   48829   48830   48831   48830   48832
   48833   48834   48833   48835   48836   48837   48836   48838
   48839   48840   48839   48841   48842   48843   48842   48844
   48845   48846   48845   48847   48848   48849   48848   48850
   48851   48852   48851   48853   48854   48855   48854   48856
   48857   48858   48857   48859   48860   48861   48860   48862
   48863   48864   48863   48865   48866   48867   48866   48868
   48869   48870   48869   48871   48872   48873   48872   48874
   48875   48876   48875   48877   48878   48879   48878   48880
   48881   48882   48881   48883   48884   48885   48884   48886
   48887   48888   48887   48889   48890   48891   48890   48892
   48893   48894   48893   48895   48896   48897   48896   48898
   48899   48900   48899   48901   48902   48903   48902   48904
   48905   48906   48905   48907   48908   48909   48908   48910
   48911   48912   48911   48913   48914   48915   48914   48916
   48917   48918   48917   48919   48920   48921   48920   48922
   48923   48924   48923   48925   48926   48927   48926   48928
   48929   48930   48929   48931   48932   48933   48932   48934
   48935   48936   48935   48937   48938   48939   48938   48940
   48941   48942   48941   48943   48944   48945   48944   48946
   48947   48948   48947   48949   48950   48951   48950   48952
   48953   48954   48953   48955   48956   48957   48956   48958
   48959   48960   48959   48961   48962   48963   48962   48964
   48965   48966   48965   48967   48968   48969   48968   48970
   48971   48972   48971   48973   48974   48975   48974   48976
   48977   48978   48977   48979   48980   48981   48980   48982
   48983   48984   48983   48985   48986   48987   48986   48988
   48989   48990   48989   48991   48992   48993   48992   48994
   48995   48996   48995   48997   48998   48999   48998   49000
   49001   49002   49001   49003   49004   49005   49004   49006
   49007   49008   49007   49009   49010   49011   49010   49012
   49013   49014   49013   49015   49016   49017   49016   49018
   49019   49020   49019   49021   49022   49023   49022   49024
   49025   49026   49025   49027   49028   49029   49028   49030
   49031   49032   49031   49033   49034   49035   49034   49036
   49037   49038   49037   49039   49040   49041   49040   49042
   49043   49044   49043   49045   49046   49047   49046   49048
   49049   49050   49049   49051   49052   49053   49052   49054
   49055   49056   49055   49057   49058   49059   49058   49060
   49061   49062   49061   49063   49064   49065   49064   49066
   49067   49068   49067   49069   49070   49071   49070   49072
   49073   49074   49073   49075   49076   49077   49076   49078
   49079   49080   49079   49081   49082   49083   49082   49084
   49085   49086   49085   49087   49088   49089   49088   49090
   49091   49092   49091   49093   49094   49095   49094   49096
   49097   49098   49097   49099   49100   49101   49100   49102
   49103   49104   49103   49105   49106   49107   49106   49108
   49109   49110   49109   49111   49112   49113   49112   49114
   49115   49116   49115   49117   49118   49119   49118   49120
   49121   49122   49121   49123   49124   49125   49124   49126
   49127   49128   49127   49129   49130   49131   49130   49132
   49133   49134   49133   49135   49136   49137   49136   49138
   49139   49140   49139   49141   49142   49143   49142   49144
   49145   49146   49145   49147   49148   49149   49148   49150
   49151   49152   49151   49153   49154   49155   49154   49156
   49157   49158   49157   49159   49160   49161   49160   49162
   49163   49164   49163   49165   49166   49167   49166   49168
   49169   49170   49169   49171   49172   49173   49172   49174
   49175   49176   49175   49177   49178   49179   49178   49180
   49181   49182   49181   49183   49184   49185   49184   49186
   49187   49188   49187   49189   49190   49191   49190   49192
   49193   49194   49193   49195   49196   49197   49196   49198
   49199   49200   49199   49201   49202   49203   49202   49204
   49205   49206   49205   49207   49208   49209   49208   49210
   49211   49212   49211   49213   49214   49215   49214   49216
   49217   49218   49217   49219   49220   49221   49220   49222
   49223   49224   49223   49225   49226   49227   49226   49228
   49229   49230   49229   49231   49232   49233   49232   49234
   49235   49236   49235   49237   49238   49239   49238   49240
   49241   49242   49241   49243   49244   49245   49244   49246
   49247   49248   49247   49249   49250   49251   49250   49252
   49253   49254   49253   49255   49256   49257   49256   49258
   49259   49260   49259   49261   49262   49263   49262   49264
   49265   49266   49265   49267   49268   49269   49268   49270
   49271   49272   49271   49273   49274   49275   49274   49276
   49277   49278   49277   49279   49280   49281   49280   49282
   49283   49284   49283   49285   49286   49287   49286   49288
   49289   49290   49289   49291   49292   49293   49292   49294
   49295   49296   49295   49297   49298   49299   49298   49300
   49301   49302   49301   49303   49304   49305   49304   49306
   49307   49308   49307   49309   49310   49311   49310   49312
   49313   49314   49313   49315   49316   49317   49316   49318
   49319   49320   49319   49321   49322   49323   49322   49324
   49325   49326   49325   49327   49328   49329   49328   49330
   49331   49332   49331   49333   49334   49335   49334   49336
   49337   49338   49337   49339   49340   49341   49340   49342
   49343   49344   49343   49345   49346   49347   49346   49348
   49349   49350   49349   49351   49352   49353   49352   49354
   49355   49356   49355   49357   49358   49359   49358   49360
   49361   49362   49361   49363   49364   49365   49364   49366
   49367   49368   49367   49369   49370   49371   49370   49372
   49373   49374   49373   49375   49376   49377   49376   49378
   49379   49380   49379   49381   49382   49383   49382   49384
   49385   49386   49385   49387   49388   49389   49388   49390
   49391   49392   49391   49393   49394   49395   49394   49396
   49397   49398   49397   49399   49400   49401   49400   49402
   49403   49404   49403   49405   49406   49407   49406   49408
   49409   49410   49409   49411   49412   49413   49412   49414
   49415   49416   49415   49417   49418   49419   49418   49420
   49421   49422   49421   49423   49424   49425   49424   49426
   49427   49428   49427   49429   49430   49431   49430   49432
   49433   49434   49433   49435   49436   49437   49436   49438
   49439   49440   49439   49441   49442   49443   49442   49444
   49445   49446   49445   49447   49448   49449   49448   49450
   49451   49452   49451   49453   49454   49455   49454   49456
   49457   49458   49457   49459   49460   49461   49460   49462
   49463   49464   49463   49465   49466   49467   49466   49468
   49469   49470   49469   49471   49472   49473   49472   49474
   49475   49476   49475   49477   49478   49479   49478   49480
   49481   49482   49481   49483   49484   49485   49484   49486
   49487   49488   49487   49489   49490   49491   49490   49492
   49493   49494   49493   49495   49496   49497   49496   49498
   49499   49500   49499   49501   49502   49503   49502   49504
   49505   49506   49505   49507   49508   49509   49508   49510
   49511   49512   49511   49513   49514   49515   49514   49516
   49517   49518   49517   49519   49520   49521   49520   49522
   49523   49524   49523   49525   49526   49527   49526   49528
   49529   49530   49529   49531   49532   49533   49532   49534
   49535   49536   49535   49537   49538   49539   49538   49540
   49541   49542   49541   49543   49544   49545   49544   49546
   49547   49548   49547   49549   49550   49551   49550   49552
   49553   49554   49553   49555   49556   49557   49556   49558
   49559   49560   49559   49561   49562   49563   49562   49564
   49565   49566   49565   49567   49568   49569   49568   49570
   49571   49572   49571   49573   49574   49575   49574   49576
   49577   49578   49577   49579   49580   49581   49580   49582
   49583   49584   49583   49585   49586   49587   49586   49588
   49589   49590   49589   49591   49592   49593   49592   49594
   49595   49596   49595   49597   49598   49599   49598   49600
   49601   49602   49601   49603   49604   49605   49604   49606
   49607   49608   49607   49609   49610   49611   49610   49612
   49613   49614   49613   49615   49616   49617   49616   49618
   49619   49620   49619   49621   49622   49623   49622   49624
   49625   49626   49625   49627   49628   49629   49628   49630
   49631   49632   49631   49633   49634   49635   49634   49636
   49637   49638   49637   49639   49640   49641   49640   49642
   49643   49644   49643   49645   49646   49647   49646   49648
   49649   49650   49649   49651   49652   49653   49652   49654
   49655   49656   49655   49657   49658   49659   49658   49660
   49661   49662   49661   49663   49664   49665   49664   49666
   49667   49668   49667   49669   49670   49671   49670   49672
   49673   49674   49673   49675   49676   49677   49676   49678
   49679   49680   49679   49681   49682   49683   49682   49684
   49685   49686   49685   49687   49688   49689   49688   49690
   49691   49692   49691   49693   49694   49695   49694   49696
   49697   49698   49697   49699   49700   49701   49700   49702
   49703   49704   49703   49705   49706   49707   49706   49708
   49709   49710   49709   49711   49712   49713   49712   49714
   49715   49716   49715   49717   49718   49719   49718   49720
   49721   49722   49721   49723   49724   49725   49724   49726
   49727   49728   49727   49729   49730   49731   49730   49732
   49733   49734   49733   49735   49736   49737   49736   49738
   49739   49740   49739   49741   49742   49743   49742   49744
   49745   49746   49745   49747   49748   49749   49748   49750
   49751   49752   49751   49753   49754   49755   49754   49756
   49757   49758   49757   49759   49760   49761   49760   49762
   49763   49764   49763   49765   49766   49767   49766   49768
   49769   49770   49769   49771   49772   49773   49772   49774
   49775   49776   49775   49777   49778   49779   49778   49780
   49781   49782   49781   49783   49784   49785   49784   49786
   49787   49788   49787   49789   49790   49791   49790   49792
   49793   49794   49793   49795   49796   49797   49796   49798
   49799   49800   49799   49801   49802   49803   49802   49804
   49805   49806   49805   49807   49808   49809   49808   49810
   49811   49812   49811   49813   49814   49815   49814   49816
   49817   49818   49817   49819   49820   49821   49820   49822
   49823   49824   49823   49825   49826   49827   49826   49828
   49829   49830   49829   49831   49832   49833   49832   49834
   49835   49836   49835   49837   49838   49839   49838   49840
   49841   49842   49841   49843   49844   49845   49844   49846
   49847   49848   49847   49849   49850   49851   49850   49852
   49853   49854   49853   49855   49856   49857   49856   49858
   49859   49860   49859   49861   49862   49863   49862   49864
   49865   49866   49865   49867   49868   49869   49868   49870
   49871   49872   49871   49873   49874   49875   49874   49876
   49877   49878   49877   49879   49880   49881   49880   49882
   49883   49884   49883   49885   49886   49887   49886   49888
   49889   49890   49889   49891   49892   49893   49892   49894
   49895   49896   49895   49897   49898   49899   49898   49900
   49901   49902   49901   49903   49904   49905   49904   49906
   49907   49908   49907   49909   49910   49911   49910   49912
   49913   49914   49913   49915   49916   49917   49916   49918
   49919   49920   49919   49921   49922   49923   49922   49924
   49925   49926   49925   49927   49928   49929   49928   49930
   49931   49932   49931   49933   49934   49935   49934   49936
   49937   49938   49937   49939   49940   49941   49940   49942
   49943   49944   49943   49945   49946   49947   49946   49948
   49949   49950   49949   49951   49952   49953   49952   49954
   49955   49956   49955   49957   49958   49959   49958   49960
   49961   49962   49961   49963   49964   49965   49964   49966
   49967   49968   49967   49969   49970   49971   49970   49972
   49973   49974   49973   49975   49976   49977   49976   49978
   49979   49980   49979   49981   49982   49983   49982   49984
   49985   49986   49985   49987   49988   49989   49988   49990
   49991   49992   49991   49993   49994   49995   49994   49996
   49997   49998   49997   49999   50000   50001   50000   50002
   50003   50004   50003   50005   50006   50007   50006   50008
   50009   50010   50009   50011   50012   50013   50012   50014
   50015   50016   50015   50017   50018   50019   50018   50020
   50021   50022   50021   50023   50024   50025   50024   50026
   50027   50028   50027   50029   50030   50031   50030   50032
   50033   50034   50033   50035   50036   50037   50036   50038
   50039   50040   50039   50041   50042   50043   50042   50044
   50045   50046   50045   50047   50048   50049   50048   50050
   50051   50052   50051   50053   50054   50055   50054   50056
   50057   50058   50057   50059   50060   50061   50060   50062
   50063   50064   50063   50065   50066   50067   50066   50068
   50069   50070   50069   50071   50072   50073   50072   50074
   50075   50076   50075   50077   50078   50079   50078   50080
   50081   50082   50081   50083   50084   50085   50084   50086
   50087   50088   50087   50089   50090   50091   50090   50092
   50093   50094   50093   50095   50096   50097   50096   50098
   50099   50100   50099   50101   50102   50103   50102   50104
   50105   50106   50105   50107   50108   50109   50108   50110
   50111   50112   50111   50113   50114   50115   50114   50116
   50117   50118   50117   50119   50120   50121   50120   50122
   50123   50124   50123   50125   50126   50127   50126   50128
   50129   50130   50129   50131   50132   50133   50132   50134
   50135   50136   50135   50137   50138   50139   50138   50140
   50141   50142   50141   50143   50144   50145   50144   50146
   50147   50148   50147   50149   50150   50151   50150   50152
   50153   50154   50153   50155   50156   50157   50156   50158
   50159   50160   50159   50161   50162   50163   50162   50164
   50165   50166   50165   50167   50168   50169   50168   50170
   50171   50172   50171   50173   50174   50175   50174   50176
   50177   50178   50177   50179   50180   50181   50180   50182
   50183   50184   50183   50185   50186   50187   50186   50188
   50189   50190   50189   50191   50192   50193   50192   50194
   50195   50196   50195   50197   50198   50199   50198   50200
   50201   50202   50201   50203   50204   50205   50204   50206
   50207   50208   50207   50209   50210   50211   50210   50212
   50213   50214   50213   50215   50216   50217   50216   50218
   50219   50220   50219   50221   50222   50223   50222   50224
   50225   50226   50225   50227   50228   50229   50228   50230
   50231   50232   50231   50233   50234   50235   50234   50236
   50237   50238   50237   50239   50240   50241   50240   50242
   50243   50244   50243   50245   50246   50247   50246   50248
   50249   50250   50249   50251   50252   50253   50252   50254
   50255   50256   50255   50257   50258   50259   50258   50260
   50261   50262   50261   50263   50264   50265   50264   50266
   50267   50268   50267   50269   50270   50271   50270   50272
   50273   50274   50273   50275   50276   50277   50276   50278
   50279   50280   50279   50281   50282   50283   50282   50284
   50285   50286   50285   50287   50288   50289   50288   50290
   50291   50292   50291   50293   50294   50295   50294   50296
   50297   50298   50297   50299   50300   50301   50300   50302
   50303   50304   50303   50305   50306   50307   50306   50308
   50309   50310   50309   50311   50312   50313   50312   50314
   50315   50316   50315   50317   50318   50319   50318   50320
   50321   50322   50321   50323   50324   50325   50324   50326
   50327   50328   50327   50329   50330   50331   50330   50332
   50333   50334   50333   50335   50336   50337   50336   50338
   50339   50340   50339   50341   50342   50343   50342   50344
   50345   50346   50345   50347   50348   50349   50348   50350
   50351   50352   50351   50353   50354   50355   50354   50356
   50357   50358   50357   50359   50360   50361   50360   50362
   50363   50364   50363   50365   50366   50367   50366   50368
   50369   50370   50369   50371   50372   50373   50372   50374
   50375   50376   50375   50377   50378   50379   50378   50380
   50381   50382   50381   50383   50384   50385   50384   50386
   50387   50388   50387   50389   50390   50391   50390   50392
   50393   50394   50393   50395   50396   50397   50396   50398
   50399   50400   50399   50401   50402   50403   50402   50404
   50405   50406   50405   50407   50408   50409   50408   50410
   50411   50412   50411   50413   50414   50415   50414   50416
   50417   50418   50417   50419   50420   50421   50420   50422
   50423   50424   50423   50425   50426   50427   50426   50428
   50429   50430   50429   50431   50432   50433   50432   50434
   50435   50436   50435   50437   50438   50439   50438   50440
   50441   50442   50441   50443   50444   50445   50444   50446
   50447   50448   50447   50449   50450   50451   50450   50452
   50453   50454   50453   50455   50456   50457   50456   50458
   50459   50460   50459   50461   50462   50463   50462   50464
   50465   50466   50465   50467   50468   50469   50468   50470
   50471   50472   50471   50473   50474   50475   50474   50476
   50477   50478   50477   50479   50480   50481   50480   50482
   50483   50484   50483   50485   50486   50487   50486   50488
   50489   50490   50489   50491   50492   50493   50492   50494
   50495   50496   50495   50497   50498   50499   50498   50500
   50501   50502   50501   50503   50504   50505   50504   50506
   50507   50508   50507   50509   50510   50511   50510   50512
   50513   50514   50513   50515   50516   50517   50516   50518
   50519   50520   50519   50521   50522   50523   50522   50524
   50525   50526   50525   50527   50528   50529   50528   50530
   50531   50532   50531   50533   50534   50535   50534   50536
   50537   50538   50537   50539   50540   50541   50540   50542
   50543   50544   50543   50545   50546   50547   50546   50548
   50549   50550   50549   50551   50552   50553   50552   50554
   50555   50556   50555   50557   50558   50559   50558   50560
   50561   50562   50561   50563   50564   50565   50564   50566
   50567   50568   50567   50569   50570   50571   50570   50572
   50573   50574   50573   50575   50576   50577   50576   50578
   50579   50580   50579   50581   50582   50583   50582   50584
   50585   50586   50585   50587   50588   50589   50588   50590
   50591   50592   50591   50593   50594   50595   50594   50596
   50597   50598   50597   50599   50600   50601   50600   50602
   50603   50604   50603   50605   50606   50607   50606   50608
   50609   50610   50609   50611   50612   50613   50612   50614
   50615   50616   50615   50617   50618   50619   50618   50620
   50621   50622   50621   50623   50624   50625   50624   50626
   50627   50628   50627   50629   50630   50631   50630   50632
   50633   50634   50633   50635   50636   50637   50636   50638
   50639   50640   50639   50641   50642   50643   50642   50644
   50645   50646   50645   50647   50648   50649   50648   50650
   50651   50652   50651   50653   50654   50655   50654   50656
   50657   50658   50657   50659   50660   50661   50660   50662
   50663   50664   50663   50665   50666   50667   50666   50668
   50669   50670   50669   50671   50672   50673   50672   50674
   50675   50676   50675   50677   50678   50679   50678   50680
   50681   50682   50681   50683   50684   50685   50684   50686
   50687   50688   50687   50689   50690   50691   50690   50692
   50693   50694   50693   50695   50696   50697   50696   50698
   50699   50700   50699   50701   50702   50703   50702   50704
   50705   50706   50705   50707   50708   50709   50708   50710
   50711   50712   50711   50713   50714   50715   50714   50716
   50717   50718   50717   50719   50720   50721   50720   50722
   50723   50724   50723   50725   50726   50727   50726   50728
   50729   50730   50729   50731   50732   50733   50732   50734
   50735   50736   50735   50737   50738   50739   50738   50740
   50741   50742   50741   50743   50744   50745   50744   50746
   50747   50748   50747   50749   50750   50751   50750   50752
   50753   50754   50753   50755   50756   50757   50756   50758
   50759   50760   50759   50761   50762   50763   50762   50764
   50765   50766   50765   50767   50768   50769   50768   50770
   50771   50772   50771   50773   50774   50775   50774   50776
   50777   50778   50777   50779   50780   50781   50780   50782
   50783   50784   50783   50785   50786   50787   50786   50788
   50789   50790   50789   50791   50792   50793   50792   50794
   50795   50796   50795   50797   50798   50799   50798   50800
   50801   50802   50801   50803   50804   50805   50804   50806
   50807   50808   50807   50809   50810   50811   50810   50812
   50813   50814   50813   50815   50816   50817   50816   50818
   50819   50820   50819   50821   50822   50823   50822   50824
   50825   50826   50825   50827   50828   50829   50828   50830
   50831   50832   50831   50833   50834   50835   50834   50836
   50837   50838   50837   50839   50840   50841   50840   50842
   50843   50844   50843   50845   50846   50847   50846   50848
   50849   50850   50849   50851   50852   50853   50852   50854
   50855   50856   50855   50857   50858   50859   50858   50860
   50861   50862   50861   50863   50864   50865   50864   50866
   50867   50868   50867   50869   50870   50871   50870   50872
   50873   50874   50873   50875   50876   50877   50876   50878
   50879   50880   50879   50881   50882   50883   50882   50884
   50885   50886   50885   50887   50888   50889   50888   50890
   50891   50892   50891   50893   50894   50895   50894   50896
   50897   50898   50897   50899   50900   50901   50900   50902
   50903   50904   50903   50905   50906   50907   50906   50908
   50909   50910   50909   50911   50912   50913   50912   50914
   50915   50916   50915   50917   50918   50919   50918   50920
   50921   50922   50921   50923   50924   50925   50924   50926
   50927   50928   50927   50929   50930   50931   50930   50932
   50933   50934   50933   50935   50936   50937   50936   50938
   50939   50940   50939   50941   50942   50943   50942   50944
   50945   50946   50945   50947   50948   50949   50948   50950
   50951   50952   50951   50953   50954   50955   50954   50956
   50957   50958   50957   50959   50960   50961   50960   50962
   50963   50964   50963   50965   50966   50967   50966   50968
   50969   50970   50969   50971   50972   50973   50972   50974
   50975   50976   50975   50977   50978   50979   50978   50980
   50981   50982   50981   50983   50984   50985   50984   50986
   50987   50988   50987   50989   50990   50991   50990   50992
   50993   50994   50993   50995   50996   50997   50996   50998
   50999   51000   50999   51001   51002   51003   51002   51004
   51005   51006   51005   51007   51008   51009   51008   51010
   51011   51012   51011   51013   51014   51015   51014   51016
   51017   51018   51017   51019   51020   51021   51020   51022
   51023   51024   51023   51025   51026   51027   51026   51028
   51029   51030   51029   51031   51032   51033   51032   51034
   51035   51036   51035   51037   51038   51039   51038   51040
   51041   51042   51041   51043   51044   51045   51044   51046
   51047   51048   51047   51049   51050   51051   51050   51052
   51053   51054   51053   51055   51056   51057   51056   51058
   51059   51060   51059   51061   51062   51063   51062   51064
   51065   51066   51065   51067   51068   51069   51068   51070
   51071   51072   51071   51073   51074   51075   51074   51076
   51077   51078   51077   51079   51080   51081   51080   51082
   51083   51084   51083   51085   51086   51087   51086   51088
   51089   51090   51089   51091   51092   51093   51092   51094
   51095   51096   51095   51097   51098   51099   51098   51100
   51101   51102   51101   51103   51104   51105   51104   51106
   51107   51108   51107   51109   51110   51111   51110   51112
   51113   51114   51113   51115   51116   51117   51116   51118
   51119   51120   51119   51121   51122   51123   51122   51124
   51125   51126   51125   51127   51128   51129   51128   51130
   51131   51132   51131   51133   51134   51135   51134   51136
   51137   51138   51137   51139   51140   51141   51140   51142
   51143   51144   51143   51145   51146   51147   51146   51148
   51149   51150   51149   51151   51152   51153   51152   51154
   51155   51156   51155   51157   51158   51159   51158   51160
   51161   51162   51161   51163   51164   51165   51164   51166
   51167   51168   51167   51169   51170   51171   51170   51172
   51173   51174   51173   51175   51176   51177   51176   51178
   51179   51180   51179   51181   51182   51183   51182   51184
   51185   51186   51185   51187   51188   51189   51188   51190
   51191   51192   51191   51193   51194   51195   51194   51196
   51197   51198   51197   51199   51200   51201   51200   51202
   51203   51204   51203   51205   51206   51207   51206   51208
   51209   51210   51209   51211   51212   51213   51212   51214
   51215   51216   51215   51217   51218   51219   51218   51220
   51221   51222   51221   51223   51224   51225   51224   51226
   51227   51228   51227   51229   51230   51231   51230   51232
   51233   51234   51233   51235   51236   51237   51236   51238
   51239   51240   51239   51241   51242   51243   51242   51244
   51245   51246   51245   51247   51248   51249   51248   51250
   51251   51252   51251   51253   51254   51255   51254   51256
   51257   51258   51257   51259   51260   51261   51260   51262
   51263   51264   51263   51265   51266   51267   51266   51268
   51269   51270   51269   51271   51272   51273   51272   51274
   51275   51276   51275   51277   51278   51279   51278   51280
   51281   51282   51281   51283   51284   51285   51284   51286
   51287   51288   51287   51289   51290   51291   51290   51292
   51293   51294   51293   51295   51296   51297   51296   51298
   51299   51300   51299   51301   51302   51303   51302   51304
   51305   51306   51305   51307   51308   51309   51308   51310
   51311   51312   51311   51313   51314   51315   51314   51316
   51317   51318   51317   51319   51320   51321   51320   51322
   51323   51324   51323   51325   51326   51327   51326   51328
   51329   51330   51329   51331   51332   51333   51332   51334
   51335   51336   51335   51337   51338   51339   51338   51340
   51341   51342   51341   51343   51344   51345   51344   51346
   51347   51348   51347   51349   51350   51351   51350   51352
   51353   51354   51353   51355   51356   51357   51356   51358
   51359   51360   51359   51361   51362   51363   51362   51364
   51365   51366   51365   51367   51368   51369   51368   51370
   51371   51372   51371   51373   51374   51375   51374   51376
   51377   51378   51377   51379   51380   51381   51380   51382
   51383   51384   51383   51385   51386   51387   51386   51388
   51389   51390   51389   51391   51392   51393   51392   51394
   51395   51396   51395   51397   51398   51399   51398   51400
   51401   51402   51401   51403   51404   51405   51404   51406
   51407   51408   51407   51409   51410   51411   51410   51412
   51413   51414   51413   51415   51416   51417   51416   51418
   51419   51420   51419   51421   51422   51423   51422   51424
   51425   51426   51425   51427   51428   51429   51428   51430
   51431   51432   51431   51433   51434   51435   51434   51436
   51437   51438   51437   51439   51440   51441   51440   51442
   51443   51444   51443   51445   51446   51447   51446   51448
   51449   51450   51449   51451   51452   51453   51452   51454
   51455   51456   51455   51457   51458   51459   51458   51460
   51461   51462   51461   51463   51464   51465   51464   51466
   51467   51468   51467   51469   51470   51471   51470   51472
   51473   51474   51473   51475   51476   51477   51476   51478
   51479   51480   51479   51481   51482   51483   51482   51484
   51485   51486   51485   51487   51488   51489   51488   51490
   51491   51492   51491   51493   51494   51495   51494   51496
   51497   51498   51497   51499   51500   51501   51500   51502
   51503   51504   51503   51505   51506   51507   51506   51508
   51509   51510   51509   51511   51512   51513   51512   51514
   51515   51516   51515   51517   51518   51519   51518   51520
   51521   51522   51521   51523   51524   51525   51524   51526
   51527   51528   51527   51529   51530   51531   51530   51532
   51533   51534   51533   51535   51536   51537   51536   51538
   51539   51540   51539   51541   51542   51543   51542   51544
   51545   51546   51545   51547   51548   51549   51548   51550
   51551   51552   51551   51553   51554   51555   51554   51556
   51557   51558   51557   51559   51560   51561   51560   51562
   51563   51564   51563   51565   51566   51567   51566   51568
   51569   51570   51569   51571   51572   51573   51572   51574
   51575   51576   51575   51577   51578   51579   51578   51580
   51581   51582   51581   51583   51584   51585   51584   51586
   51587   51588   51587   51589   51590   51591   51590   51592
   51593   51594   51593   51595   51596   51597   51596   51598
   51599   51600   51599   51601   51602   51603   51602   51604
   51605   51606   51605   51607   51608   51609   51608   51610
   51611   51612   51611   51613   51614   51615   51614   51616
   51617   51618   51617   51619   51620   51621   51620   51622
   51623   51624   51623   51625   51626   51627   51626   51628
   51629   51630   51629   51631   51632   51633   51632   51634
   51635   51636   51635   51637   51638   51639   51638   51640
   51641   51642   51641   51643   51644   51645   51644   51646
   51647   51648   51647   51649   51650   51651   51650   51652
   51653   51654   51653   51655   51656   51657   51656   51658
   51659   51660   51659   51661   51662   51663   51662   51664
   51665   51666   51665   51667   51668   51669   51668   51670
   51671   51672   51671   51673   51674   51675   51674   51676
   51677   51678   51677   51679   51680   51681   51680   51682
   51683   51684   51683   51685   51686   51687   51686   51688
   51689   51690   51689   51691   51692   51693   51692   51694
   51695   51696   51695   51697   51698   51699   51698   51700
   51701   51702   51701   51703   51704   51705   51704   51706
   51707   51708   51707   51709   51710   51711   51710   51712
   51713   51714   51713   51715   51716   51717   51716   51718
   51719   51720   51719   51721   51722   51723   51722   51724
   51725   51726   51725   51727   51728   51729   51728   51730
   51731   51732   51731   51733   51734   51735   51734   51736
   51737   51738   51737   51739   51740   51741   51740   51742
   51743   51744   51743   51745   51746   51747   51746   51748
   51749   51750   51749   51751   51752   51753   51752   51754
   51755   51756   51755   51757   51758   51759   51758   51760
   51761   51762   51761   51763   51764   51765   51764   51766
   51767   51768   51767   51769   51770   51771   51770   51772
   51773   51774   51773   51775   51776   51777   51776   51778
   51779   51780   51779   51781   51782   51783   51782   51784
   51785   51786   51785   51787   51788   51789   51788   51790
   51791   51792   51791   51793   51794   51795   51794   51796
   51797   51798   51797   51799   51800   51801   51800   51802
   51803   51804   51803   51805   51806   51807   51806   51808
   51809   51810   51809   51811   51812   51813   51812   51814
   51815   51816   51815   51817   51818   51819   51818   51820
   51821   51822   51821   51823   51824   51825   51824   51826
   51827   51828   51827   51829   51830   51831   51830   51832
   51833   51834   51833   51835   51836   51837   51836   51838
   51839   51840   51839   51841   51842   51843   51842   51844
   51845   51846   51845   51847   51848   51849   51848   51850
   51851   51852   51851   51853   51854   51855   51854   51856
   51857   51858   51857   51859   51860   51861   51860   51862
   51863   51864   51863   51865   51866   51867   51866   51868
   51869   51870   51869   51871   51872   51873   51872   51874
   51875   51876   51875   51877   51878   51879   51878   51880
   51881   51882   51881   51883   51884   51885   51884   51886
   51887   51888   51887   51889   51890   51891   51890   51892
   51893   51894   51893   51895   51896   51897   51896   51898
   51899   51900   51899   51901   51902   51903   51902   51904
   51905   51906   51905   51907   51908   51909   51908   51910
   51911   51912   51911   51913   51914   51915   51914   51916
   51917   51918   51917   51919   51920   51921   51920   51922
   51923   51924   51923   51925   51926   51927   51926   51928
   51929   51930   51929   51931   51932   51933   51932   51934
   51935   51936   51935   51937   51938   51939   51938   51940
   51941   51942   51941   51943   51944   51945   51944   51946
   51947   51948   51947   51949   51950   51951   51950   51952
   51953   51954   51953   51955   51956   51957   51956   51958
   51959   51960   51959   51961   51962   51963   51962   51964
   51965   51966   51965   51967   51968   51969   51968   51970
   51971   51972   51971   51973   51974   51975   51974   51976
   51977   51978   51977   51979   51980   51981   51980   51982
   51983   51984   51983   51985   51986   51987   51986   51988
   51989   51990   51989   51991   51992   51993   51992   51994
   51995   51996   51995   51997   51998   51999   51998   52000
   52001   52002   52001   52003   52004   52005   52004   52006
   52007   52008   52007   52009   52010   52011   52010   52012
   52013   52014   52013   52015   52016   52017   52016   52018
   52019   52020   52019   52021   52022   52023   52022   52024
   52025   52026   52025   52027   52028   52029   52028   52030
   52031   52032   52031   52033   52034   52035   52034   52036
   52037   52038   52037   52039   52040   52041   52040   52042
   52043   52044   52043   52045   52046   52047   52046   52048
   52049   52050   52049   52051   52052   52053   52052   52054
   52055   52056   52055   52057   52058   52059   52058   52060
   52061   52062   52061   52063   52064   52065   52064   52066
   52067   52068   52067   52069   52070   52071   52070   52072
   52073   52074   52073   52075   52076   52077   52076   52078
   52079   52080   52079   52081   52082   52083   52082   52084
   52085   52086   52085   52087   52088   52089   52088   52090
   52091   52092   52091   52093   52094   52095   52094   52096
   52097   52098   52097   52099   52100   52101   52100   52102
   52103   52104   52103   52105   52106   52107   52106   52108
   52109   52110   52109   52111   52112   52113   52112   52114
   52115   52116   52115   52117   52118   52119   52118   52120
   52121   52122   52121   52123   52124   52125   52124   52126
   52127   52128   52127   52129   52130   52131   52130   52132
   52133   52134   52133   52135   52136   52137   52136   52138
   52139   52140   52139   52141   52142   52143   52142   52144
   52145   52146   52145   52147   52148   52149   52148   52150
   52151   52152   52151   52153   52154   52155   52154   52156
   52157   52158   52157   52159   52160   52161   52160   52162
   52163   52164   52163   52165   52166   52167   52166   52168
   52169   52170   52169   52171   52172   52173   52172   52174
   52175   52176   52175   52177   52178   52179   52178   52180
   52181   52182   52181   52183   52184   52185   52184   52186
   52187   52188   52187   52189   52190   52191   52190   52192
   52193   52194   52193   52195   52196   52197   52196   52198
   52199   52200   52199   52201   52202   52203   52202   52204
   52205   52206   52205   52207   52208   52209   52208   52210
   52211   52212   52211   52213   52214   52215   52214   52216
   52217   52218   52217   52219   52220   52221   52220   52222
   52223   52224   52223   52225   52226   52227   52226   52228
   52229   52230   52229   52231   52232   52233   52232   52234
   52235   52236   52235   52237   52238   52239   52238   52240
   52241   52242   52241   52243   52244   52245   52244   52246
   52247   52248   52247   52249   52250   52251   52250   52252
   52253   52254   52253   52255   52256   52257   52256   52258
   52259   52260   52259   52261   52262   52263   52262   52264
   52265   52266   52265   52267   52268   52269   52268   52270
   52271   52272   52271   52273   52274   52275   52274   52276
   52277   52278   52277   52279   52280   52281   52280   52282
   52283   52284   52283   52285   52286   52287   52286   52288
   52289   52290   52289   52291   52292   52293   52292   52294
   52295   52296   52295   52297   52298   52299   52298   52300
   52301   52302   52301   52303   52304   52305   52304   52306
   52307   52308   52307   52309   52310   52311   52310   52312
   52313   52314   52313   52315   52316   52317   52316   52318
   52319   52320   52319   52321   52322   52323   52322   52324
   52325   52326   52325   52327   52328   52329   52328   52330
   52331   52332   52331   52333   52334   52335   52334   52336
   52337   52338   52337   52339   52340   52341   52340   52342
   52343   52344   52343   52345   52346   52347   52346   52348
   52349   52350   52349   52351   52352   52353   52352   52354
   52355   52356   52355   52357   52358   52359   52358   52360
   52361   52362   52361   52363   52364   52365   52364   52366
   52367   52368   52367   52369   52370   52371   52370   52372
   52373   52374   52373   52375   52376   52377   52376   52378
   52379   52380   52379   52381   52382   52383   52382   52384
   52385   52386   52385   52387   52388   52389   52388   52390
   52391   52392   52391   52393   52394   52395   52394   52396
   52397   52398   52397   52399   52400   52401   52400   52402
   52403   52404   52403   52405   52406   52407   52406   52408
   52409   52410   52409   52411   52412   52413   52412   52414
   52415   52416   52415   52417   52418   52419   52418   52420
   52421   52422   52421   52423   52424   52425   52424   52426
   52427   52428   52427   52429   52430   52431   52430   52432
   52433   52434   52433   52435   52436   52437   52436   52438
   52439   52440   52439   52441   52442   52443   52442   52444
   52445   52446   52445   52447   52448   52449   52448   52450
   52451   52452   52451   52453   52454   52455   52454   52456
   52457   52458   52457   52459   52460   52461   52460   52462
   52463   52464   52463   52465   52466   52467   52466   52468
   52469   52470   52469   52471   52472   52473   52472   52474
   52475   52476   52475   52477   52478   52479   52478   52480
   52481   52482   52481   52483   52484   52485   52484   52486
   52487   52488   52487   52489   52490   52491   52490   52492
   52493   52494   52493   52495   52496   52497   52496   52498
   52499   52500   52499   52501   52502   52503   52502   52504
   52505   52506   52505   52507   52508   52509   52508   52510
   52511   52512   52511   52513   52514   52515   52514   52516
   52517   52518   52517   52519   52520   52521   52520   52522
   52523   52524   52523   52525   52526   52527   52526   52528
   52529   52530   52529   52531   52532   52533   52532   52534
   52535   52536   52535   52537   52538   52539   52538   52540
   52541   52542   52541   52543   52544   52545   52544   52546
   52547   52548   52547   52549   52550   52551   52550   52552
   52553   52554   52553   52555   52556   52557   52556   52558
   52559   52560   52559   52561   52562   52563   52562   52564
   52565   52566   52565   52567   52568   52569   52568   52570
   52571   52572   52571   52573   52574   52575   52574   52576
   52577   52578   52577   52579   52580   52581   52580   52582
   52583   52584   52583   52585   52586   52587   52586   52588
   52589   52590   52589   52591   52592   52593   52592   52594
   52595   52596   52595   52597   52598   52599   52598   52600
   52601   52602   52601   52603   52604   52605   52604   52606
   52607   52608   52607   52609   52610   52611   52610   52612
   52613   52614   52613   52615   52616   52617   52616   52618
   52619   52620   52619   52621   52622   52623   52622   52624
   52625   52626   52625   52627   52628   52629   52628   52630
   52631   52632   52631   52633   52634   52635   52634   52636
   52637   52638   52637   52639   52640   52641   52640   52642
   52643   52644   52643   52645   52646   52647   52646   52648
   52649   52650   52649   52651   52652   52653   52652   52654
   52655   52656   52655   52657   52658   52659   52658   52660
   52661   52662   52661   52663   52664   52665   52664   52666
   52667   52668   52667   52669   52670   52671   52670   52672
   52673   52674   52673   52675   52676   52677   52676   52678
   52679   52680   52679   52681   52682   52683   52682   52684
   52685   52686   52685   52687   52688   52689   52688   52690
   52691   52692   52691   52693   52694   52695   52694   52696
   52697   52698   52697   52699   52700   52701   52700   52702
   52703   52704   52703   52705   52706   52707   52706   52708
   52709   52710   52709   52711   52712   52713   52712   52714
   52715   52716   52715   52717   52718   52719   52718   52720
   52721   52722   52721   52723   52724   52725   52724   52726
   52727   52728   52727   52729   52730   52731   52730   52732
   52733   52734   52733   52735   52736   52737   52736   52738
   52739   52740   52739   52741   52742   52743   52742   52744
   52745   52746   52745   52747   52748   52749   52748   52750
   52751   52752   52751   52753   52754   52755   52754   52756
   52757   52758   52757   52759   52760   52761   52760   52762
   52763   52764   52763   52765   52766   52767   52766   52768
   52769   52770   52769   52771   52772   52773   52772   52774
   52775   52776   52775   52777   52778   52779   52778   52780
   52781   52782   52781   52783   52784   52785   52784   52786
   52787   52788   52787   52789   52790   52791   52790   52792
   52793   52794   52793   52795   52796   52797   52796   52798
   52799   52800   52799   52801   52802   52803   52802   52804
   52805   52806   52805   52807   52808   52809   52808   52810
   52811   52812   52811   52813   52814   52815   52814   52816
   52817   52818   52817   52819   52820   52821   52820   52822
   52823   52824   52823   52825   52826   52827   52826   52828
   52829   52830   52829   52831   52832   52833   52832   52834
   52835   52836   52835   52837   52838   52839   52838   52840
   52841   52842   52841   52843   52844   52845   52844   52846
   52847   52848   52847   52849   52850   52851   52850   52852
   52853   52854   52853   52855   52856   52857   52856   52858
   52859   52860   52859   52861   52862   52863   52862   52864
   52865   52866   52865   52867   52868   52869   52868   52870
   52871   52872   52871   52873   52874   52875   52874   52876
   52877   52878   52877   52879   52880   52881   52880   52882
   52883   52884   52883   52885   52886   52887   52886   52888
   52889   52890   52889   52891   52892   52893   52892   52894
   52895   52896   52895   52897   52898   52899   52898   52900
   52901   52902   52901   52903   52904   52905   52904   52906
   52907   52908   52907   52909   52910   52911   52910   52912
   52913   52914   52913   52915   52916   52917   52916   52918
   52919   52920   52919   52921   52922   52923   52922   52924
   52925   52926   52925   52927   52928   52929   52928   52930
   52931   52932   52931   52933   52934   52935   52934   52936
   52937   52938   52937   52939   52940   52941   52940   52942
   52943   52944   52943   52945   52946   52947   52946   52948
   52949   52950   52949   52951   52952   52953   52952   52954
   52955   52956   52955   52957   52958   52959   52958   52960
   52961   52962   52961   52963   52964   52965   52964   52966
   52967   52968   52967   52969   52970   52971   52970   52972
   52973   52974   52973   52975   52976   52977   52976   52978
   52979   52980   52979   52981   52982   52983   52982   52984
   52985   52986   52985   52987   52988   52989   52988   52990
   52991   52992   52991   52993   52994   52995   52994   52996
   52997   52998   52997   52999   53000   53001   53000   53002
   53003   53004   53003   53005   53006   53007   53006   53008
   53009   53010   53009   53011   53012   53013   53012   53014
   53015   53016   53015   53017   53018   53019   53018   53020
   53021   53022   53021   53023   53024   53025   53024   53026
   53027   53028   53027   53029   53030   53031   53030   53032
   53033   53034   53033   53035   53036   53037   53036   53038
   53039   53040   53039   53041   53042   53043   53042   53044
   53045   53046   53045   53047   53048   53049   53048   53050
   53051   53052   53051   53053   53054   53055   53054   53056
   53057   53058   53057   53059   53060   53061   53060   53062
   53063   53064   53063   53065   53066   53067   53066   53068
   53069   53070   53069   53071   53072   53073   53072   53074
   53075   53076   53075   53077   53078   53079   53078   53080
   53081   53082   53081   53083   53084   53085   53084   53086
   53087   53088   53087   53089   53090   53091   53090   53092
   53093   53094   53093   53095   53096   53097   53096   53098
   53099   53100   53099   53101   53102   53103   53102   53104
   53105   53106   53105   53107   53108   53109   53108   53110
   53111   53112   53111   53113   53114   53115   53114   53116
   53117   53118   53117   53119   53120   53121   53120   53122
   53123   53124   53123   53125   53126   53127   53126   53128
   53129   53130   53129   53131   53132   53133   53132   53134
   53135   53136   53135   53137   53138   53139   53138   53140
   53141   53142   53141   53143   53144   53145   53144   53146
   53147   53148   53147   53149   53150   53151   53150   53152
   53153   53154   53153   53155   53156   53157   53156   53158
   53159   53160   53159   53161   53162   53163   53162   53164
   53165   53166   53165   53167   53168   53169   53168   53170
   53171   53172   53171   53173   53174   53175   53174   53176
   53177   53178   53177   53179   53180   53181   53180   53182
   53183   53184   53183   53185   53186   53187   53186   53188
   53189   53190   53189   53191   53192   53193   53192   53194
   53195   53196   53195   53197   53198   53199   53198   53200
   53201   53202   53201   53203   53204   53205   53204   53206
   53207   53208   53207   53209   53210   53211   53210   53212
   53213   53214   53213   53215   53216   53217   53216   53218
   53219   53220   53219   53221   53222   53223   53222   53224
   53225   53226   53225   53227   53228   53229   53228   53230
   53231   53232   53231   53233   53234   53235   53234   53236
   53237   53238   53237   53239   53240   53241   53240   53242
   53243   53244   53243   53245   53246   53247   53246   53248
   53249   53250   53249   53251   53252   53253   53252   53254
   53255   53256   53255   53257   53258   53259   53258   53260
   53261   53262   53261   53263   53264   53265   53264   53266
   53267   53268   53267   53269   53270   53271   53270   53272
   53273   53274   53273   53275   53276   53277   53276   53278
   53279   53280   53279   53281   53282   53283   53282   53284
   53285   53286   53285   53287   53288   53289   53288   53290
   53291   53292   53291   53293   53294   53295   53294   53296
   53297   53298   53297   53299   53300   53301   53300   53302
   53303   53304   53303   53305   53306   53307   53306   53308
   53309   53310   53309   53311   53312   53313   53312   53314
   53315   53316   53315   53317   53318   53319   53318   53320
   53321   53322   53321   53323   53324   53325   53324   53326
   53327   53328   53327   53329   53330   53331   53330   53332
   53333   53334   53333   53335   53336   53337   53336   53338
   53339   53340   53339   53341   53342   53343   53342   53344
   53345   53346   53345   53347   53348   53349   53348   53350
   53351   53352   53351   53353   53354   53355   53354   53356
   53357   53358   53357   53359   53360   53361   53360   53362
   53363   53364   53363   53365   53366   53367   53366   53368
   53369   53370   53369   53371   53372   53373   53372   53374
   53375   53376   53375   53377   53378   53379   53378   53380
   53381   53382   53381   53383   53384   53385   53384   53386
   53387   53388   53387   53389   53390   53391   53390   53392
   53393   53394   53393   53395   53396   53397   53396   53398
   53399   53400   53399   53401   53402   53403   53402   53404
   53405   53406   53405   53407   53408   53409   53408   53410
   53411   53412   53411   53413   53414   53415   53414   53416
   53417   53418   53417   53419   53420   53421   53420   53422
   53423   53424   53423   53425   53426   53427   53426   53428
   53429   53430   53429   53431   53432   53433   53432   53434
   53435   53436   53435   53437   53438   53439   53438   53440
   53441   53442   53441   53443   53444   53445   53444   53446
   53447   53448   53447   53449   53450   53451   53450   53452
   53453   53454   53453   53455   53456   53457   53456   53458
   53459   53460   53459   53461   53462   53463   53462   53464
   53465   53466   53465   53467   53468   53469   53468   53470
   53471   53472   53471   53473   53474   53475   53474   53476
   53477   53478   53477   53479   53480   53481   53480   53482
   53483   53484   53483   53485   53486   53487   53486   53488
   53489   53490   53489   53491   53492   53493   53492   53494
   53495   53496   53495   53497   53498   53499   53498   53500
   53501   53502   53501   53503   53504   53505   53504   53506
   53507   53508   53507   53509   53510   53511   53510   53512
   53513   53514   53513   53515   53516   53517   53516   53518
   53519   53520   53519   53521   53522   53523   53522   53524
   53525   53526   53525   53527   53528   53529   53528   53530
   53531   53532   53531   53533   53534   53535   53534   53536
   53537   53538   53537   53539   53540   53541   53540   53542
   53543   53544   53543   53545   53546   53547   53546   53548
   53549   53550   53549   53551   53552   53553   53552   53554
   53555   53556   53555   53557   53558   53559   53558   53560
   53561   53562   53561   53563   53564   53565   53564   53566
   53567   53568   53567   53569   53570   53571   53570   53572
   53573   53574   53573   53575   53576   53577   53576   53578
   53579   53580   53579   53581   53582   53583   53582   53584
   53585   53586   53585   53587   53588   53589   53588   53590
   53591   53592   53591   53593   53594   53595   53594   53596
   53597   53598   53597   53599   53600   53601   53600   53602
   53603   53604   53603   53605   53606   53607   53606   53608
   53609   53610   53609   53611   53612   53613   53612   53614
   53615   53616   53615   53617   53618   53619   53618   53620
   53621   53622   53621   53623   53624   53625   53624   53626
   53627   53628   53627   53629   53630   53631   53630   53632
   53633   53634   53633   53635   53636   53637   53636   53638
   53639   53640   53639   53641   53642   53643   53642   53644
   53645   53646   53645   53647   53648   53649   53648   53650
   53651   53652   53651   53653   53654   53655   53654   53656
   53657   53658   53657   53659   53660   53661   53660   53662
   53663   53664   53663   53665   53666   53667   53666   53668
   53669   53670   53669   53671   53672   53673   53672   53674
   53675   53676   53675   53677   53678   53679   53678   53680
   53681   53682   53681   53683   53684   53685   53684   53686
   53687   53688   53687   53689   53690   53691   53690   53692
   53693   53694   53693   53695   53696   53697   53696   53698
   53699   53700   53699   53701   53702   53703   53702   53704
   53705   53706   53705   53707   53708   53709   53708   53710
   53711   53712   53711   53713   53714   53715   53714   53716
   53717   53718   53717   53719   53720   53721   53720   53722
   53723   53724   53723   53725   53726   53727   53726   53728
   53729   53730   53729   53731   53732   53733   53732   53734
   53735   53736   53735   53737   53738   53739   53738   53740
   53741   53742   53741   53743   53744   53745   53744   53746
   53747   53748   53747   53749   53750   53751   53750   53752
   53753   53754   53753   53755   53756   53757   53756   53758
   53759   53760   53759   53761   53762   53763   53762   53764
   53765   53766   53765   53767   53768   53769   53768   53770
   53771   53772   53771   53773   53774   53775   53774   53776
   53777   53778   53777   53779   53780   53781   53780   53782
   53783   53784   53783   53785   53786   53787   53786   53788
   53789   53790   53789   53791   53792   53793   53792   53794
   53795   53796   53795   53797   53798   53799   53798   53800
   53801   53802   53801   53803   53804   53805   53804   53806
   53807   53808   53807   53809   53810   53811   53810   53812
   53813   53814   53813   53815   53816   53817   53816   53818
   53819   53820   53819   53821   53822   53823   53822   53824
   53825   53826   53825   53827   53828   53829   53828   53830
   53831   53832   53831   53833   53834   53835   53834   53836
   53837   53838   53837   53839   53840   53841   53840   53842
   53843   53844   53843   53845   53846   53847   53846   53848
   53849   53850   53849   53851   53852   53853   53852   53854
   53855   53856   53855   53857   53858   53859   53858   53860
   53861   53862   53861   53863   53864   53865   53864   53866
   53867   53868   53867   53869   53870   53871   53870   53872
   53873   53874   53873   53875   53876   53877   53876   53878
   53879   53880   53879   53881   53882   53883   53882   53884
   53885   53886   53885   53887   53888   53889   53888   53890
   53891   53892   53891   53893   53894   53895   53894   53896
   53897   53898   53897   53899   53900   53901   53900   53902
   53903   53904   53903   53905   53906   53907   53906   53908
   53909   53910   53909   53911   53912   53913   53912   53914
   53915   53916   53915   53917   53918   53919   53918   53920
   53921   53922   53921   53923   53924   53925   53924   53926
   53927   53928   53927   53929   53930   53931   53930   53932
   53933   53934   53933   53935   53936   53937   53936   53938
   53939   53940   53939   53941   53942   53943   53942   53944
   53945   53946   53945   53947   53948   53949   53948   53950
   53951   53952   53951   53953   53954   53955   53954   53956
   53957   53958   53957   53959   53960   53961   53960   53962
   53963   53964   53963   53965   53966   53967   53966   53968
   53969   53970   53969   53971   53972   53973   53972   53974
   53975   53976   53975   53977   53978   53979   53978   53980
   53981   53982   53981   53983   53984   53985   53984   53986
   53987   53988   53987   53989   53990   53991   53990   53992
   53993   53994   53993   53995   53996   53997   53996   53998
   53999   54000   53999   54001   54002   54003   54002   54004
   54005   54006   54005   54007   54008   54009   54008   54010
   54011   54012   54011   54013   54014   54015   54014   54016
   54017   54018   54017   54019   54020   54021   54020   54022
   54023   54024   54023   54025   54026   54027   54026   54028
   54029   54030   54029   54031   54032   54033   54032   54034
   54035   54036   54035   54037   54038   54039   54038   54040
   54041   54042   54041   54043   54044   54045   54044   54046
   54047   54048   54047   54049   54050   54051   54050   54052
   54053   54054   54053   54055   54056   54057   54056   54058
   54059   54060   54059   54061   54062   54063   54062   54064
   54065   54066   54065   54067   54068   54069   54068   54070
   54071   54072   54071   54073   54074   54075   54074   54076
   54077   54078   54077   54079   54080   54081   54080   54082
   54083   54084   54083   54085   54086   54087   54086   54088
   54089   54090   54089   54091   54092   54093   54092   54094
   54095   54096   54095   54097   54098   54099   54098   54100
   54101   54102   54101   54103   54104   54105   54104   54106
   54107   54108   54107   54109   54110   54111   54110   54112
   54113   54114   54113   54115   54116   54117   54116   54118
   54119   54120   54119   54121   54122   54123   54122   54124
   54125   54126   54125   54127   54128   54129   54128   54130
   54131   54132   54131   54133   54134   54135   54134   54136
   54137   54138   54137   54139   54140   54141   54140   54142
   54143   54144   54143   54145   54146   54147   54146   54148
   54149   54150   54149   54151   54152   54153   54152   54154
   54155   54156   54155   54157   54158   54159   54158   54160
   54161   54162   54161   54163   54164   54165   54164   54166
   54167   54168   54167   54169   54170   54171   54170   54172
   54173   54174   54173   54175   54176   54177   54176   54178
   54179   54180   54179   54181   54182   54183   54182   54184
   54185   54186   54185   54187   54188   54189   54188   54190
   54191   54192   54191   54193   54194   54195   54194   54196
   54197   54198   54197   54199   54200   54201   54200   54202
   54203   54204   54203   54205   54206   54207   54206   54208
   54209   54210   54209   54211   54212   54213   54212   54214
   54215   54216   54215   54217   54218   54219   54218   54220
   54221   54222   54221   54223   54224   54225   54224   54226
   54227   54228   54227   54229   54230   54231   54230   54232
   54233   54234   54233   54235   54236   54237   54236   54238
   54239   54240   54239   54241   54242   54243   54242   54244
   54245   54246   54245   54247   54248   54249   54248   54250
   54251   54252   54251   54253   54254   54255   54254   54256
   54257   54258   54257   54259   54260   54261   54260   54262
   54263   54264   54263   54265   54266   54267   54266   54268
   54269   54270   54269   54271   54272   54273   54272   54274
   54275   54276   54275   54277   54278   54279   54278   54280
   54281   54282   54281   54283   54284   54285   54284   54286
   54287   54288   54287   54289   54290   54291   54290   54292
   54293   54294   54293   54295   54296   54297   54296   54298
   54299   54300   54299   54301   54302   54303   54302   54304
   54305   54306   54305   54307   54308   54309   54308   54310
   54311   54312   54311   54313   54314   54315   54314   54316
   54317   54318   54317   54319   54320   54321   54320   54322
   54323   54324   54323   54325   54326   54327   54326   54328
   54329   54330   54329   54331   54332   54333   54332   54334
   54335   54336   54335   54337   54338   54339   54338   54340
   54341   54342   54341   54343   54344   54345   54344   54346
   54347   54348   54347   54349   54350   54351   54350   54352
   54353   54354   54353   54355   54356   54357   54356   54358
   54359   54360   54359   54361   54362   54363   54362   54364
   54365   54366   54365   54367   54368   54369   54368   54370
   54371   54372   54371   54373   54374   54375   54374   54376
   54377   54378   54377   54379   54380   54381   54380   54382
   54383   54384   54383   54385   54386   54387   54386   54388
   54389   54390   54389   54391   54392   54393   54392   54394
   54395   54396   54395   54397   54398   54399   54398   54400
   54401   54402   54401   54403   54404   54405   54404   54406
   54407   54408   54407   54409   54410   54411   54410   54412
   54413   54414   54413   54415   54416   54417   54416   54418
   54419   54420   54419   54421   54422   54423   54422   54424
   54425   54426   54425   54427   54428   54429   54428   54430
   54431   54432   54431   54433   54434   54435   54434   54436
   54437   54438   54437   54439   54440   54441   54440   54442
   54443   54444   54443   54445   54446   54447   54446   54448
   54449   54450   54449   54451   54452   54453   54452   54454
   54455   54456   54455   54457   54458   54459   54458   54460
   54461   54462   54461   54463   54464   54465   54464   54466
   54467   54468   54467   54469   54470   54471   54470   54472
   54473   54474   54473   54475   54476   54477   54476   54478
   54479   54480   54479   54481   54482   54483   54482   54484
   54485   54486   54485   54487   54488   54489   54488   54490
   54491   54492   54491   54493   54494   54495   54494   54496
   54497   54498   54497   54499   54500   54501   54500   54502
   54503   54504   54503   54505   54506   54507   54506   54508
   54509   54510   54509   54511   54512   54513   54512   54514
   54515   54516   54515   54517   54518   54519   54518   54520
   54521   54522   54521   54523   54524   54525   54524   54526
   54527   54528   54527   54529   54530   54531   54530   54532
   54533   54534   54533   54535   54536   54537   54536   54538
   54539   54540   54539   54541   54542   54543   54542   54544
   54545   54546   54545   54547   54548   54549   54548   54550
   54551   54552   54551   54553   54554   54555   54554   54556
   54557   54558   54557   54559   54560   54561   54560   54562
   54563   54564   54563   54565   54566   54567   54566   54568
   54569   54570   54569   54571   54572   54573   54572   54574
   54575   54576   54575   54577   54578   54579   54578   54580
   54581   54582   54581   54583   54584   54585   54584   54586
   54587   54588   54587   54589   54590   54591   54590   54592
   54593   54594   54593   54595   54596   54597   54596   54598
   54599   54600   54599   54601   54602   54603   54602   54604
   54605   54606   54605   54607   54608   54609   54608   54610
   54611   54612   54611   54613   54614   54615   54614   54616
   54617   54618   54617   54619   54620   54621   54620   54622
   54623   54624   54623   54625   54626   54627   54626   54628
   54629   54630   54629   54631   54632   54633   54632   54634
   54635   54636   54635   54637   54638   54639   54638   54640
   54641   54642   54641   54643   54644   54645   54644   54646
   54647   54648   54647   54649   54650   54651   54650   54652
   54653   54654   54653   54655   54656   54657   54656   54658
   54659   54660   54659   54661   54662   54663   54662   54664
   54665   54666   54665   54667   54668   54669   54668   54670
   54671   54672   54671   54673   54674   54675   54674   54676
   54677   54678   54677   54679   54680   54681   54680   54682
   54683   54684   54683   54685   54686   54687   54686   54688
   54689   54690   54689   54691   54692   54693   54692   54694
   54695   54696   54695   54697   54698   54699   54698   54700
   54701   54702   54701   54703   54704   54705   54704   54706
   54707   54708   54707   54709   54710   54711   54710   54712
   54713   54714   54713   54715   54716   54717   54716   54718
   54719   54720   54719   54721   54722   54723   54722   54724
   54725   54726   54725   54727   54728   54729   54728   54730
   54731   54732   54731   54733   54734   54735   54734   54736
   54737   54738   54737   54739   54740   54741   54740   54742
   54743   54744   54743   54745   54746   54747   54746   54748
   54749   54750   54749   54751   54752   54753   54752   54754
   54755   54756   54755   54757   54758   54759   54758   54760
   54761   54762   54761   54763   54764   54765   54764   54766
   54767   54768   54767   54769   54770   54771   54770   54772
   54773   54774   54773   54775   54776   54777   54776   54778
   54779   54780   54779   54781   54782   54783   54782   54784
   54785   54786   54785   54787   54788   54789   54788   54790
   54791   54792   54791   54793   54794   54795   54794   54796
   54797   54798   54797   54799   54800   54801   54800   54802
   54803   54804   54803   54805   54806   54807   54806   54808
   54809   54810   54809   54811   54812   54813   54812   54814
   54815   54816   54815   54817   54818   54819   54818   54820
   54821   54822   54821   54823   54824   54825   54824   54826
   54827   54828   54827   54829   54830   54831   54830   54832
   54833   54834   54833   54835   54836   54837   54836   54838
   54839   54840   54839   54841   54842   54843   54842   54844
   54845   54846   54845   54847   54848   54849   54848   54850
   54851   54852   54851   54853   54854   54855   54854   54856
   54857   54858   54857   54859   54860   54861   54860   54862
   54863   54864   54863   54865   54866   54867   54866   54868
   54869   54870   54869   54871   54872   54873   54872   54874
   54875   54876   54875   54877   54878   54879   54878   54880
   54881   54882   54881   54883   54884   54885   54884   54886
   54887   54888   54887   54889   54890   54891   54890   54892
   54893   54894   54893   54895   54896   54897   54896   54898
   54899   54900   54899   54901   54902   54903   54902   54904
   54905   54906   54905   54907   54908   54909   54908   54910
   54911   54912   54911   54913   54914   54915   54914   54916
   54917   54918   54917   54919   54920   54921   54920   54922
   54923   54924   54923   54925   54926   54927   54926   54928
   54929   54930   54929   54931   54932   54933   54932   54934
   54935   54936   54935   54937   54938   54939   54938   54940
   54941   54942   54941   54943   54944   54945   54944   54946
   54947   54948   54947   54949   54950   54951   54950   54952
   54953   54954   54953   54955   54956   54957   54956   54958
   54959   54960   54959   54961   54962   54963   54962   54964
   54965   54966   54965   54967   54968   54969   54968   54970
   54971   54972   54971   54973   54974   54975   54974   54976
   54977   54978   54977   54979   54980   54981   54980   54982
   54983   54984   54983   54985   54986   54987   54986   54988
   54989   54990   54989   54991   54992   54993   54992   54994
   54995   54996   54995   54997   54998   54999   54998   55000
   55001   55002   55001   55003   55004   55005   55004   55006
   55007   55008   55007   55009   55010   55011   55010   55012
   55013   55014   55013   55015   55016   55017   55016   55018
   55019   55020   55019   55021   55022   55023   55022   55024
   55025   55026   55025   55027   55028   55029   55028   55030
   55031   55032   55031   55033   55034   55035   55034   55036
   55037   55038   55037   55039   55040   55041   55040   55042
   55043   55044   55043   55045   55046   55047   55046   55048
   55049   55050   55049   55051   55052   55053   55052   55054
   55055   55056   55055   55057   55058   55059   55058   55060
   55061   55062   55061   55063   55064   55065   55064   55066
   55067   55068   55067   55069   55070   55071   55070   55072
   55073   55074   55073   55075   55076   55077   55076   55078
   55079   55080   55079   55081   55082   55083   55082   55084
   55085   55086   55085   55087   55088   55089   55088   55090
   55091   55092   55091   55093   55094   55095   55094   55096
   55097   55098   55097   55099   55100   55101   55100   55102
   55103   55104   55103   55105   55106   55107   55106   55108
   55109   55110   55109   55111   55112   55113   55112   55114
   55115   55116   55115   55117   55118   55119   55118   55120
   55121   55122   55121   55123   55124   55125   55124   55126
   55127   55128   55127   55129   55130   55131   55130   55132
   55133   55134   55133   55135   55136   55137   55136   55138
   55139   55140   55139   55141   55142   55143   55142   55144
   55145   55146   55145   55147   55148   55149   55148   55150
   55151   55152   55151   55153   55154   55155   55154   55156
   55157   55158   55157   55159   55160   55161   55160   55162
   55163   55164   55163   55165   55166   55167   55166   55168
   55169   55170   55169   55171   55172   55173   55172   55174
   55175   55176   55175   55177   55178   55179   55178   55180
   55181   55182   55181   55183   55184   55185   55184   55186
   55187   55188   55187   55189   55190   55191   55190   55192
   55193   55194   55193   55195   55196   55197   55196   55198
   55199   55200   55199   55201   55202   55203   55202   55204
   55205   55206   55205   55207   55208   55209   55208   55210
   55211   55212   55211   55213   55214   55215   55214   55216
   55217   55218   55217   55219   55220   55221   55220   55222
   55223   55224   55223   55225   55226   55227   55226   55228
   55229   55230   55229   55231   55232   55233   55232   55234
   55235   55236   55235   55237   55238   55239   55238   55240
   55241   55242   55241   55243   55244   55245   55244   55246
   55247   55248   55247   55249   55250   55251   55250   55252
   55253   55254   55253   55255   55256   55257   55256   55258
   55259   55260   55259   55261   55262   55263   55262   55264
   55265   55266   55265   55267   55268   55269   55268   55270
   55271   55272   55271   55273   55274   55275   55274   55276
   55277   55278   55277   55279   55280   55281   55280   55282
   55283   55284   55283   55285   55286   55287   55286   55288
   55289   55290   55289   55291   55292   55293   55292   55294
   55295   55296   55295   55297   55298   55299   55298   55300
   55301   55302   55301   55303   55304   55305   55304   55306
   55307   55308   55307   55309   55310   55311   55310   55312
   55313   55314   55313   55315   55316   55317   55316   55318
   55319   55320   55319   55321   55322   55323   55322   55324
   55325   55326   55325   55327   55328   55329   55328   55330
   55331   55332   55331   55333   55334   55335   55334   55336
   55337   55338   55337   55339   55340   55341   55340   55342
   55343   55344   55343   55345   55346   55347   55346   55348
   55349   55350   55349   55351   55352   55353   55352   55354
   55355   55356   55355   55357   55358   55359   55358   55360
   55361   55362   55361   55363   55364   55365   55364   55366
   55367   55368   55367   55369   55370   55371   55370   55372
   55373   55374   55373   55375   55376   55377   55376   55378
   55379   55380   55379   55381   55382   55383   55382   55384
   55385   55386   55385   55387   55388   55389   55388   55390
   55391   55392   55391   55393   55394   55395   55394   55396
   55397   55398   55397   55399   55400   55401   55400   55402
   55403   55404   55403   55405   55406   55407   55406   55408
   55409   55410   55409   55411   55412   55413   55412   55414
   55415   55416   55415   55417   55418   55419   55418   55420
   55421   55422   55421   55423   55424   55425   55424   55426
   55427   55428   55427   55429   55430   55431   55430   55432
   55433   55434   55433   55435   55436   55437   55436   55438
   55439   55440   55439   55441   55442   55443   55442   55444
   55445   55446   55445   55447   55448   55449   55448   55450
   55451   55452   55451   55453   55454   55455   55454   55456
   55457   55458   55457   55459   55460   55461   55460   55462
   55463   55464   55463   55465   55466   55467   55466   55468
   55469   55470   55469   55471   55472   55473   55472   55474
   55475   55476   55475   55477   55478   55479   55478   55480
   55481   55482   55481   55483   55484   55485   55484   55486
   55487   55488   55487   55489   55490   55491   55490   55492
   55493   55494   55493   55495   55496   55497   55496   55498
   55499   55500   55499   55501   55502   55503   55502   55504
   55505   55506   55505   55507   55508   55509   55508   55510
   55511   55512   55511   55513   55514   55515   55514   55516
   55517   55518   55517   55519   55520   55521   55520   55522
   55523   55524   55523   55525   55526   55527   55526   55528
   55529   55530   55529   55531   55532   55533   55532   55534
   55535   55536   55535   55537   55538   55539   55538   55540
   55541   55542   55541   55543   55544   55545   55544   55546
   55547   55548   55547   55549   55550   55551   55550   55552
   55553   55554   55553   55555   55556   55557   55556   55558
   55559   55560   55559   55561   55562   55563   55562   55564
   55565   55566   55565   55567   55568   55569   55568   55570
   55571   55572   55571   55573   55574   55575   55574   55576
   55577   55578   55577   55579   55580   55581   55580   55582
   55583   55584   55583   55585   55586   55587   55586   55588
   55589   55590   55589   55591   55592   55593   55592   55594
   55595   55596   55595   55597   55598   55599   55598   55600
   55601   55602   55601   55603   55604   55605   55604   55606
   55607   55608   55607   55609   55610   55611   55610   55612
   55613   55614   55613   55615   55616   55617   55616   55618
   55619   55620   55619   55621   55622   55623   55622   55624
   55625   55626   55625   55627   55628   55629   55628   55630
   55631   55632   55631   55633   55634   55635   55634   55636
   55637   55638   55637   55639   55640   55641   55640   55642
   55643   55644   55643   55645   55646   55647   55646   55648
   55649   55650   55649   55651   55652   55653   55652   55654
   55655   55656   55655   55657   55658   55659   55658   55660
   55661   55662   55661   55663   55664   55665   55664   55666
   55667   55668   55667   55669   55670   55671   55670   55672
   55673   55674   55673   55675   55676   55677   55676   55678
   55679   55680   55679   55681   55682   55683   55682   55684
   55685   55686   55685   55687   55688   55689   55688   55690
   55691   55692   55691   55693   55694   55695   55694   55696
   55697   55698   55697   55699   55700   55701   55700   55702
   55703   55704   55703   55705   55706   55707   55706   55708
   55709   55710   55709   55711   55712   55713   55712   55714
   55715   55716   55715   55717   55718   55719   55718   55720
   55721   55722   55721   55723   55724   55725   55724   55726
   55727   55728   55727   55729   55730   55731   55730   55732
   55733   55734   55733   55735   55736   55737   55736   55738
   55739   55740   55739   55741   55742   55743   55742   55744
   55745   55746   55745   55747   55748   55749   55748   55750
   55751   55752   55751   55753   55754   55755   55754   55756
   55757   55758   55757   55759   55760   55761   55760   55762
   55763   55764   55763   55765   55766   55767   55766   55768
   55769   55770   55769   55771   55772   55773   55772   55774
   55775   55776   55775   55777   55778   55779   55778   55780
   55781   55782   55781   55783   55784   55785   55784   55786
   55787   55788   55787   55789   55790   55791   55790   55792
   55793   55794   55793   55795   55796   55797   55796   55798
   55799   55800   55799   55801   55802   55803   55802   55804
   55805   55806   55805   55807   55808   55809   55808   55810
   55811   55812   55811   55813   55814   55815   55814   55816
   55817   55818   55817   55819   55820   55821   55820   55822
   55823   55824   55823   55825   55826   55827   55826   55828
   55829   55830   55829   55831   55832   55833   55832   55834
   55835   55836   55835   55837   55838   55839   55838   55840
   55841   55842   55841   55843   55844   55845   55844   55846
   55847   55848   55847   55849   55850   55851   55850   55852
   55853   55854   55853   55855   55856   55857   55856   55858
   55859   55860   55859   55861   55862   55863   55862   55864
   55865   55866   55865   55867   55868   55869   55868   55870
   55871   55872   55871   55873   55874   55875   55874   55876
   55877   55878   55877   55879   55880   55881   55880   55882
   55883   55884   55883   55885   55886   55887   55886   55888
   55889   55890   55889   55891   55892   55893   55892   55894
   55895   55896   55895   55897   55898   55899   55898   55900
   55901   55902   55901   55903   55904   55905   55904   55906
   55907   55908   55907   55909   55910   55911   55910   55912
   55913   55914   55913   55915   55916   55917   55916   55918
   55919   55920   55919   55921   55922   55923   55922   55924
   55925   55926   55925   55927   55928   55929   55928   55930
   55931   55932   55931   55933   55934   55935   55934   55936
   55937   55938   55937   55939   55940   55941   55940   55942
   55943   55944   55943   55945   55946   55947   55946   55948
   55949   55950   55949   55951   55952   55953   55952   55954
   55955   55956   55955   55957   55958   55959   55958   55960
   55961   55962   55961   55963   55964   55965   55964   55966
   55967   55968   55967   55969   55970   55971   55970   55972
   55973   55974   55973   55975   55976   55977   55976   55978
   55979   55980   55979   55981   55982   55983   55982   55984
   55985   55986   55985   55987   55988   55989   55988   55990
   55991   55992   55991   55993   55994   55995   55994   55996
   55997   55998   55997   55999   56000   56001   56000   56002
   56003   56004   56003   56005   56006   56007   56006   56008
   56009   56010   56009   56011   56012   56013   56012   56014
   56015   56016   56015   56017   56018   56019   56018   56020
   56021   56022   56021   56023   56024   56025   56024   56026
   56027   56028   56027   56029   56030   56031   56030   56032
   56033   56034   56033   56035   56036   56037   56036   56038
   56039   56040   56039   56041   56042   56043   56042   56044
   56045   56046   56045   56047   56048   56049   56048   56050
   56051   56052   56051   56053   56054   56055   56054   56056
   56057   56058   56057   56059   56060   56061   56060   56062
   56063   56064   56063   56065   56066   56067   56066   56068
   56069   56070   56069   56071   56072   56073   56072   56074
   56075   56076   56075   56077   56078   56079   56078   56080
   56081   56082   56081   56083   56084   56085   56084   56086
   56087   56088   56087   56089   56090   56091   56090   56092
   56093   56094   56093   56095   56096   56097   56096   56098
   56099   56100   56099   56101   56102   56103   56102   56104
   56105   56106   56105   56107   56108   56109   56108   56110
   56111   56112   56111   56113   56114   56115   56114   56116
   56117   56118   56117   56119   56120   56121   56120   56122
   56123   56124   56123   56125   56126   56127   56126   56128
   56129   56130   56129   56131   56132   56133   56132   56134
   56135   56136   56135   56137   56138   56139   56138   56140
   56141   56142   56141   56143   56144   56145   56144   56146
   56147   56148   56147   56149   56150   56151   56150   56152
   56153   56154   56153   56155   56156   56157   56156   56158
   56159   56160   56159   56161   56162   56163   56162   56164
   56165   56166   56165   56167   56168   56169   56168   56170
   56171   56172   56171   56173   56174   56175   56174   56176
   56177   56178   56177   56179   56180   56181   56180   56182
   56183   56184   56183   56185   56186   56187   56186   56188
   56189   56190   56189   56191   56192   56193   56192   56194
   56195   56196   56195   56197   56198   56199   56198   56200
   56201   56202   56201   56203   56204   56205   56204   56206
   56207   56208   56207   56209   56210   56211   56210   56212
   56213   56214   56213   56215   56216   56217   56216   56218
   56219   56220   56219   56221   56222   56223   56222   56224
   56225   56226   56225   56227   56228   56229   56228   56230
   56231   56232   56231   56233   56234   56235   56234   56236
   56237   56238   56237   56239   56240   56241   56240   56242
   56243   56244   56243   56245   56246   56247   56246   56248
   56249   56250   56249   56251   56252   56253   56252   56254
   56255   56256   56255   56257   56258   56259   56258   56260
   56261   56262   56261   56263   56264   56265   56264   56266
   56267   56268   56267   56269   56270   56271   56270   56272
   56273   56274   56273   56275   56276   56277   56276   56278
   56279   56280   56279   56281   56282   56283   56282   56284
   56285   56286   56285   56287   56288   56289   56288   56290
   56291   56292   56291   56293   56294   56295   56294   56296
   56297   56298   56297   56299   56300   56301   56300   56302
   56303   56304   56303   56305   56306   56307   56306   56308
   56309   56310   56309   56311   56312   56313   56312   56314
   56315   56316   56315   56317   56318   56319   56318   56320
   56321   56322   56321   56323   56324   56325   56324   56326
   56327   56328   56327   56329   56330   56331   56330   56332
   56333   56334   56333   56335   56336   56337   56336   56338
   56339   56340   56339   56341   56342   56343   56342   56344
   56345   56346   56345   56347   56348   56349   56348   56350
   56351   56352   56351   56353   56354   56355   56354   56356
   56357   56358   56357   56359   56360   56361   56360   56362
   56363   56364   56363   56365   56366   56367   56366   56368
   56369   56370   56369   56371   56372   56373   56372   56374
   56375   56376   56375   56377   56378   56379   56378   56380
   56381   56382   56381   56383   56384   56385   56384   56386
   56387   56388   56387   56389   56390   56391   56390   56392
   56393   56394   56393   56395   56396   56397   56396   56398
   56399   56400   56399   56401   56402   56403   56402   56404
   56405   56406   56405   56407   56408   56409   56408   56410
   56411   56412   56411   56413   56414   56415   56414   56416
   56417   56418   56417   56419   56420   56421   56420   56422
   56423   56424   56423   56425   56426   56427   56426   56428
   56429   56430   56429   56431   56432   56433   56432   56434
   56435   56436   56435   56437   56438   56439   56438   56440
   56441   56442   56441   56443   56444   56445   56444   56446
   56447   56448   56447   56449   56450   56451   56450   56452
   56453   56454   56453   56455   56456   56457   56456   56458
   56459   56460   56459   56461   56462   56463   56462   56464
   56465   56466   56465   56467   56468   56469   56468   56470
   56471   56472   56471   56473   56474   56475   56474   56476
   56477   56478   56477   56479   56480   56481   56480   56482
   56483   56484   56483   56485   56486   56487   56486   56488
   56489   56490   56489   56491   56492   56493   56492   56494
   56495   56496   56495   56497   56498   56499   56498   56500
   56501   56502   56501   56503   56504   56505   56504   56506
   56507   56508   56507   56509   56510   56511   56510   56512
   56513   56514   56513   56515   56516   56517   56516   56518
   56519   56520   56519   56521   56522   56523   56522   56524
   56525   56526   56525   56527   56528   56529   56528   56530
   56531   56532   56531   56533   56534   56535   56534   56536
   56537   56538   56537   56539   56540   56541   56540   56542
   56543   56544   56543   56545   56546   56547   56546   56548
   56549   56550   56549   56551   56552   56553   56552   56554
   56555   56556   56555   56557   56558   56559   56558   56560
   56561   56562   56561   56563   56564   56565   56564   56566
   56567   56568   56567   56569   56570   56571   56570   56572
   56573   56574   56573   56575   56576   56577   56576   56578
   56579   56580   56579   56581   56582   56583   56582   56584
   56585   56586   56585   56587   56588   56589   56588   56590
   56591   56592   56591   56593   56594   56595   56594   56596
   56597   56598   56597   56599   56600   56601   56600   56602
   56603   56604   56603   56605   56606   56607   56606   56608
   56609   56610   56609   56611   56612   56613   56612   56614
   56615   56616   56615   56617   56618   56619   56618   56620
   56621   56622   56621   56623   56624   56625   56624   56626
   56627   56628   56627   56629   56630   56631   56630   56632
   56633   56634   56633   56635   56636   56637   56636   56638
   56639   56640   56639   56641   56642   56643   56642   56644
   56645   56646   56645   56647   56648   56649   56648   56650
   56651   56652   56651   56653   56654   56655   56654   56656
   56657   56658   56657   56659   56660   56661   56660   56662
   56663   56664   56663   56665   56666   56667   56666   56668
   56669   56670   56669   56671   56672   56673   56672   56674
   56675   56676   56675   56677   56678   56679   56678   56680
   56681   56682   56681   56683   56684   56685   56684   56686
   56687   56688   56687   56689   56690   56691   56690   56692
   56693   56694   56693   56695   56696   56697   56696   56698
   56699   56700   56699   56701   56702   56703   56702   56704
   56705   56706   56705   56707   56708   56709   56708   56710
   56711   56712   56711   56713   56714   56715   56714   56716
   56717   56718   56717   56719   56720   56721   56720   56722
   56723   56724   56723   56725   56726   56727   56726   56728
   56729   56730   56729   56731   56732   56733   56732   56734
   56735   56736   56735   56737   56738   56739   56738   56740
   56741   56742   56741   56743   56744   56745   56744   56746
   56747   56748   56747   56749   56750   56751   56750   56752
   56753   56754   56753   56755   56756   56757   56756   56758
   56759   56760   56759   56761   56762   56763   56762   56764
   56765   56766   56765   56767   56768   56769   56768   56770
   56771   56772   56771   56773   56774   56775   56774   56776
   56777   56778   56777   56779   56780   56781   56780   56782
   56783   56784   56783   56785   56786   56787   56786   56788
   56789   56790   56789   56791   56792   56793   56792   56794
   56795   56796   56795   56797   56798   56799   56798   56800
   56801   56802   56801   56803   56804   56805   56804   56806
   56807   56808   56807   56809   56810   56811   56810   56812
   56813   56814   56813   56815   56816   56817   56816   56818
   56819   56820   56819   56821   56822   56823   56822   56824
   56825   56826   56825   56827   56828   56829   56828   56830
   56831   56832   56831   56833   56834   56835   56834   56836
   56837   56838   56837   56839   56840   56841   56840   56842
   56843   56844   56843   56845   56846   56847   56846   56848
   56849   56850   56849   56851   56852   56853   56852   56854
   56855   56856   56855   56857   56858   56859   56858   56860
   56861   56862   56861   56863   56864   56865   56864   56866
   56867   56868   56867   56869   56870   56871   56870   56872
   56873   56874   56873   56875   56876   56877   56876   56878
   56879   56880   56879   56881   56882   56883   56882   56884
   56885   56886   56885   56887   56888   56889   56888   56890
   56891   56892   56891   56893   56894   56895   56894   56896
   56897   56898   56897   56899   56900   56901   56900   56902
   56903   56904   56903   56905   56906   56907   56906   56908
   56909   56910   56909   56911   56912   56913   56912   56914
   56915   56916   56915   56917   56918   56919   56918   56920
   56921   56922   56921   56923   56924   56925   56924   56926
   56927   56928   56927   56929   56930   56931   56930   56932
   56933   56934   56933   56935   56936   56937   56936   56938
   56939   56940   56939   56941   56942   56943   56942   56944
   56945   56946   56945   56947   56948   56949   56948   56950
   56951   56952   56951   56953   56954   56955   56954   56956
   56957   56958   56957   56959   56960   56961   56960   56962
   56963   56964   56963   56965   56966   56967   56966   56968
   56969   56970   56969   56971   56972   56973   56972   56974
   56975   56976   56975   56977   56978   56979   56978   56980
   56981   56982   56981   56983   56984   56985   56984   56986
   56987   56988   56987   56989   56990   56991   56990   56992
   56993   56994   56993   56995   56996   56997   56996   56998
   56999   57000   56999   57001   57002   57003   57002   57004
   57005   57006   57005   57007   57008   57009   57008   57010
   57011   57012   57011   57013   57014   57015   57014   57016
   57017   57018   57017   57019   57020   57021   57020   57022
   57023   57024   57023   57025   57026   57027   57026   57028
   57029   57030   57029   57031   57032   57033   57032   57034
   57035   57036   57035   57037   57038   57039   57038   57040
   57041   57042   57041   57043   57044   57045   57044   57046
   57047   57048   57047   57049   57050   57051   57050   57052
   57053   57054   57053   57055   57056   57057   57056   57058
   57059   57060   57059   57061   57062   57063   57062   57064
   57065   57066   57065   57067   57068   57069   57068   57070
   57071   57072   57071   57073   57074   57075   57074   57076
   57077   57078   57077   57079   57080   57081   57080   57082
   57083   57084   57083   57085   57086   57087   57086   57088
   57089   57090   57089   57091   57092   57093   57092   57094
   57095   57096   57095   57097   57098   57099   57098   57100
   57101   57102   57101   57103   57104   57105   57104   57106
   57107   57108   57107   57109   57110   57111   57110   57112
   57113   57114   57113   57115   57116   57117   57116   57118
   57119   57120   57119   57121   57122   57123   57122   57124
   57125   57126   57125   57127   57128   57129   57128   57130
   57131   57132   57131   57133   57134   57135   57134   57136
   57137   57138   57137   57139   57140   57141   57140   57142
   57143   57144   57143   57145   57146   57147   57146   57148
   57149   57150   57149   57151   57152   57153   57152   57154
   57155   57156   57155   57157   57158   57159   57158   57160
   57161   57162   57161   57163   57164   57165   57164   57166
   57167   57168   57167   57169   57170   57171   57170   57172
   57173   57174   57173   57175   57176   57177   57176   57178
   57179   57180   57179   57181   57182   57183   57182   57184
   57185   57186   57185   57187   57188   57189   57188   57190
   57191   57192   57191   57193   57194   57195   57194   57196
   57197   57198   57197   57199   57200   57201   57200   57202
   57203   57204   57203   57205   57206   57207   57206   57208
   57209   57210   57209   57211   57212   57213   57212   57214
   57215   57216   57215   57217   57218   57219   57218   57220
   57221   57222   57221   57223   57224   57225   57224   57226
   57227   57228   57227   57229   57230   57231   57230   57232
   57233   57234   57233   57235   57236   57237   57236   57238
   57239   57240   57239   57241   57242   57243   57242   57244
   57245   57246   57245   57247   57248   57249   57248   57250
   57251   57252   57251   57253   57254   57255   57254   57256
   57257   57258   57257   57259   57260   57261   57260   57262
   57263   57264   57263   57265   57266   57267   57266   57268
   57269   57270   57269   57271   57272   57273   57272   57274
   57275   57276   57275   57277   57278   57279   57278   57280
   57281   57282   57281   57283   57284   57285   57284   57286
   57287   57288   57287   57289   57290   57291   57290   57292
   57293   57294   57293   57295   57296   57297   57296   57298
   57299   57300   57299   57301   57302   57303   57302   57304
   57305   57306   57305   57307   57308   57309   57308   57310
   57311   57312   57311   57313   57314   57315   57314   57316
   57317   57318   57317   57319   57320   57321   57320   57322
   57323   57324   57323   57325   57326   57327   57326   57328
   57329   57330   57329   57331   57332   57333   57332   57334
   57335   57336   57335   57337   57338   57339   57338   57340
   57341   57342   57341   57343   57344   57345   57344   57346
   57347   57348   57347   57349   57350   57351   57350   57352
   57353   57354   57353   57355   57356   57357   57356   57358
   57359   57360   57359   57361   57362   57363   57362   57364
   57365   57366   57365   57367   57368   57369   57368   57370
   57371   57372   57371   57373   57374   57375   57374   57376
   57377   57378   57377   57379   57380   57381   57380   57382
   57383   57384   57383   57385   57386   57387   57386   57388
   57389   57390   57389   57391   57392   57393   57392   57394
   57395   57396   57395   57397   57398   57399   57398   57400
   57401   57402   57401   57403   57404   57405   57404   57406
   57407   57408   57407   57409   57410   57411   57410   57412
   57413   57414   57413   57415   57416   57417   57416   57418
   57419   57420   57419   57421   57422   57423   57422   57424
   57425   57426   57425   57427   57428   57429   57428   57430
   57431   57432   57431   57433   57434   57435   57434   57436
   57437   57438   57437   57439   57440   57441   57440   57442
   57443   57444   57443   57445   57446   57447   57446   57448
   57449   57450   57449   57451   57452   57453   57452   57454
   57455   57456   57455   57457   57458   57459   57458   57460
   57461   57462   57461   57463   57464   57465   57464   57466
   57467   57468   57467   57469   57470   57471   57470   57472
   57473   57474   57473   57475   57476   57477   57476   57478
   57479   57480   57479   57481   57482   57483   57482   57484
   57485   57486   57485   57487   57488   57489   57488   57490
   57491   57492   57491   57493   57494   57495   57494   57496
   57497   57498   57497   57499   57500   57501   57500   57502
   57503   57504   57503   57505   57506   57507   57506   57508
   57509   57510   57509   57511   57512   57513   57512   57514
   57515   57516   57515   57517   57518   57519   57518   57520
   57521   57522   57521   57523   57524   57525   57524   57526
   57527   57528   57527   57529   57530   57531   57530   57532
   57533   57534   57533   57535   57536   57537   57536   57538
   57539   57540   57539   57541   57542   57543   57542   57544
   57545   57546   57545   57547   57548   57549   57548   57550
   57551   57552   57551   57553   57554   57555   57554   57556
   57557   57558   57557   57559   57560   57561   57560   57562
   57563   57564   57563   57565   57566   57567   57566   57568
   57569   57570   57569   57571   57572   57573   57572   57574
   57575   57576   57575   57577   57578   57579   57578   57580
   57581   57582   57581   57583   57584   57585   57584   57586
   57587   57588   57587   57589   57590   57591   57590   57592
   57593   57594   57593   57595   57596   57597   57596   57598
   57599   57600   57599   57601   57602   57603   57602   57604
   57605   57606   57605   57607   57608   57609   57608   57610
   57611   57612   57611   57613   57614   57615   57614   57616
   57617   57618   57617   57619   57620   57621   57620   57622
   57623   57624   57623   57625   57626   57627   57626   57628
   57629   57630   57629   57631   57632   57633   57632   57634
   57635   57636   57635   57637   57638   57639   57638   57640
   57641   57642   57641   57643   57644   57645   57644   57646
   57647   57648   57647   57649   57650   57651   57650   57652
   57653   57654   57653   57655   57656   57657   57656   57658
   57659   57660   57659   57661   57662   57663   57662   57664
   57665   57666   57665   57667   57668   57669   57668   57670
   57671   57672   57671   57673   57674   57675   57674   57676
   57677   57678   57677   57679   57680   57681   57680   57682
   57683   57684   57683   57685   57686   57687   57686   57688
   57689   57690   57689   57691   57692   57693   57692   57694
   57695   57696   57695   57697   57698   57699   57698   57700
   57701   57702   57701   57703   57704   57705   57704   57706
   57707   57708   57707   57709   57710   57711   57710   57712
   57713   57714   57713   57715   57716   57717   57716   57718
   57719   57720   57719   57721   57722   57723   57722   57724
   57725   57726   57725   57727   57728   57729   57728   57730
   57731   57732   57731   57733   57734   57735   57734   57736
   57737   57738   57737   57739   57740   57741   57740   57742
   57743   57744   57743   57745   57746   57747   57746   57748
   57749   57750   57749   57751   57752   57753   57752   57754
   57755   57756   57755   57757   57758   57759   57758   57760
   57761   57762   57761   57763   57764   57765   57764   57766
   57767   57768   57767   57769   57770   57771   57770   57772
   57773   57774   57773   57775   57776   57777   57776   57778
   57779   57780   57779   57781   57782   57783   57782   57784
   57785   57786   57785   57787   57788   57789   57788   57790
   57791   57792   57791   57793   57794   57795   57794   57796
   57797   57798   57797   57799   57800   57801   57800   57802
   57803   57804   57803   57805   57806   57807   57806   57808
   57809   57810   57809   57811   57812   57813   57812   57814
   57815   57816   57815   57817   57818   57819   57818   57820
   57821   57822   57821   57823   57824   57825   57824   57826
   57827   57828   57827   57829   57830   57831   57830   57832
   57833   57834   57833   57835   57836   57837   57836   57838
   57839   57840   57839   57841   57842   57843   57842   57844
   57845   57846   57845   57847   57848   57849   57848   57850
   57851   57852   57851   57853   57854   57855   57854   57856
   57857   57858   57857   57859   57860   57861   57860   57862
   57863   57864   57863   57865   57866   57867   57866   57868
   57869   57870   57869   57871   57872   57873   57872   57874
   57875   57876   57875   57877   57878   57879   57878   57880
   57881   57882   57881   57883   57884   57885   57884   57886
   57887   57888   57887   57889   57890   57891   57890   57892
   57893   57894   57893   57895   57896   57897   57896   57898
   57899   57900   57899   57901   57902   57903   57902   57904
   57905   57906   57905   57907   57908   57909   57908   57910
   57911   57912   57911   57913   57914   57915   57914   57916
   57917   57918   57917   57919   57920   57921   57920   57922
   57923   57924   57923   57925   57926   57927   57926   57928
   57929   57930   57929   57931   57932   57933   57932   57934
   57935   57936   57935   57937   57938   57939   57938   57940
   57941   57942   57941   57943   57944   57945   57944   57946
   57947   57948   57947   57949   57950   57951   57950   57952
   57953   57954   57953   57955   57956   57957   57956   57958
   57959   57960   57959   57961   57962   57963   57962   57964
   57965   57966   57965   57967   57968   57969   57968   57970
   57971   57972   57971   57973   57974   57975   57974   57976
   57977   57978   57977   57979   57980   57981   57980   57982
   57983   57984   57983   57985   57986   57987   57986   57988
   57989   57990   57989   57991   57992   57993   57992   57994
   57995   57996   57995   57997   57998   57999   57998   58000
   58001   58002   58001   58003   58004   58005   58004   58006
   58007   58008   58007   58009   58010   58011   58010   58012
   58013   58014   58013   58015   58016   58017   58016   58018
   58019   58020   58019   58021   58022   58023   58022   58024
   58025   58026   58025   58027   58028   58029   58028   58030
   58031   58032   58031   58033   58034   58035   58034   58036
   58037   58038   58037   58039   58040   58041   58040   58042
   58043   58044   58043   58045   58046   58047   58046   58048
   58049   58050   58049   58051   58052   58053   58052   58054
   58055   58056   58055   58057   58058   58059   58058   58060
   58061   58062   58061   58063   58064   58065   58064   58066
   58067   58068   58067   58069   58070   58071   58070   58072
   58073   58074   58073   58075   58076   58077   58076   58078
   58079   58080   58079   58081   58082   58083   58082   58084
   58085   58086   58085   58087   58088   58089   58088   58090
   58091   58092   58091   58093   58094   58095   58094   58096
   58097   58098   58097   58099   58100   58101   58100   58102
   58103   58104   58103   58105   58106   58107   58106   58108
   58109   58110   58109   58111   58112   58113   58112   58114
   58115   58116   58115   58117   58118   58119   58118   58120
   58121   58122   58121   58123   58124   58125   58124   58126
   58127   58128   58127   58129   58130   58131   58130   58132
   58133   58134   58133   58135   58136   58137   58136   58138
   58139   58140   58139   58141   58142   58143   58142   58144
   58145   58146   58145   58147   58148   58149   58148   58150
   58151   58152   58151   58153   58154   58155   58154   58156
   58157   58158   58157   58159   58160   58161   58160   58162
   58163   58164   58163   58165   58166   58167   58166   58168
   58169   58170   58169   58171   58172   58173   58172   58174
   58175   58176   58175   58177   58178   58179   58178   58180
   58181   58182   58181   58183   58184   58185   58184   58186
   58187   58188   58187   58189   58190   58191   58190   58192
   58193   58194   58193   58195   58196   58197   58196   58198
   58199   58200   58199   58201   58202   58203   58202   58204
   58205   58206   58205   58207   58208   58209   58208   58210
   58211   58212   58211   58213   58214   58215   58214   58216
   58217   58218   58217   58219   58220   58221   58220   58222
   58223   58224   58223   58225   58226   58227   58226   58228
   58229   58230   58229   58231   58232   58233   58232   58234
   58235   58236   58235   58237   58238   58239   58238   58240
   58241   58242   58241   58243   58244   58245   58244   58246
   58247   58248   58247   58249   58250   58251   58250   58252
   58253   58254   58253   58255   58256   58257   58256   58258
   58259   58260   58259   58261   58262   58263   58262   58264
   58265   58266   58265   58267   58268   58269   58268   58270
   58271   58272   58271   58273   58274   58275   58274   58276
   58277   58278   58277   58279   58280   58281   58280   58282
   58283   58284   58283   58285   58286   58287   58286   58288
   58289   58290   58289   58291   58292   58293   58292   58294
   58295   58296   58295   58297   58298   58299   58298   58300
   58301   58302   58301   58303   58304   58305   58304   58306
   58307   58308   58307   58309   58310   58311   58310   58312
   58313   58314   58313   58315   58316   58317   58316   58318
   58319   58320   58319   58321   58322   58323   58322   58324
   58325   58326   58325   58327   58328   58329   58328   58330
   58331   58332   58331   58333   58334   58335   58334   58336
   58337   58338   58337   58339   58340   58341   58340   58342
   58343   58344   58343   58345   58346   58347   58346   58348
   58349   58350   58349   58351   58352   58353   58352   58354
   58355   58356   58355   58357   58358   58359   58358   58360
   58361   58362   58361   58363   58364   58365   58364   58366
   58367   58368   58367   58369   58370   58371   58370   58372
   58373   58374   58373   58375   58376   58377   58376   58378
   58379   58380   58379   58381   58382   58383   58382   58384
   58385   58386   58385   58387   58388   58389   58388   58390
   58391   58392   58391   58393   58394   58395   58394   58396
   58397   58398   58397   58399   58400   58401   58400   58402
   58403   58404   58403   58405   58406   58407   58406   58408
   58409   58410   58409   58411   58412   58413   58412   58414
   58415   58416   58415   58417   58418   58419   58418   58420
   58421   58422   58421   58423   58424   58425   58424   58426
   58427   58428   58427   58429   58430   58431   58430   58432
   58433   58434   58433   58435   58436   58437   58436   58438
   58439   58440   58439   58441   58442   58443   58442   58444
   58445   58446   58445   58447   58448   58449   58448   58450
   58451   58452   58451   58453   58454   58455   58454   58456
   58457   58458   58457   58459   58460   58461   58460   58462
   58463   58464   58463   58465   58466   58467   58466   58468
   58469   58470   58469   58471   58472   58473   58472   58474
   58475   58476   58475   58477   58478   58479   58478   58480
   58481   58482   58481   58483   58484   58485   58484   58486
   58487   58488   58487   58489   58490   58491   58490   58492
   58493   58494   58493   58495   58496   58497   58496   58498
   58499   58500   58499   58501   58502   58503   58502   58504
   58505   58506   58505   58507   58508   58509   58508   58510
   58511   58512   58511   58513   58514   58515   58514   58516
   58517   58518   58517   58519   58520   58521   58520   58522
   58523   58524   58523   58525   58526   58527   58526   58528
   58529   58530   58529   58531   58532   58533   58532   58534
   58535   58536   58535   58537   58538   58539   58538   58540
   58541   58542   58541   58543   58544   58545   58544   58546
   58547   58548   58547   58549   58550   58551   58550   58552
   58553   58554   58553   58555   58556   58557   58556   58558
   58559   58560   58559   58561   58562   58563   58562   58564
   58565   58566   58565   58567   58568   58569   58568   58570
   58571   58572   58571   58573   58574   58575   58574   58576
   58577   58578   58577   58579   58580   58581   58580   58582
   58583   58584   58583   58585   58586   58587   58586   58588
   58589   58590   58589   58591   58592   58593   58592   58594
   58595   58596   58595   58597   58598   58599   58598   58600
   58601   58602   58601   58603   58604   58605   58604   58606
   58607   58608   58607   58609   58610   58611   58610   58612
   58613   58614   58613   58615   58616   58617   58616   58618
   58619   58620   58619   58621   58622   58623   58622   58624
   58625   58626   58625   58627   58628   58629   58628   58630
   58631   58632   58631   58633   58634   58635   58634   58636
   58637   58638   58637   58639   58640   58641   58640   58642
   58643   58644   58643   58645   58646   58647   58646   58648
   58649   58650   58649   58651   58652   58653   58652   58654
   58655   58656   58655   58657   58658   58659   58658   58660
   58661   58662   58661   58663   58664   58665   58664   58666
   58667   58668   58667   58669   58670   58671   58670   58672
   58673   58674   58673   58675   58676   58677   58676   58678
   58679   58680   58679   58681   58682   58683   58682   58684
   58685   58686   58685   58687   58688   58689   58688   58690
   58691   58692   58691   58693   58694   58695   58694   58696
   58697   58698   58697   58699   58700   58701   58700   58702
   58703   58704   58703   58705   58706   58707   58706   58708
   58709   58710   58709   58711   58712   58713   58712   58714
   58715   58716   58715   58717   58718   58719   58718   58720
   58721   58722   58721   58723   58724   58725   58724   58726
   58727   58728   58727   58729   58730   58731   58730   58732
   58733   58734   58733   58735   58736   58737   58736   58738
   58739   58740   58739   58741   58742   58743   58742   58744
   58745   58746   58745   58747   58748   58749   58748   58750
   58751   58752   58751   58753   58754   58755   58754   58756
   58757   58758   58757   58759   58760   58761   58760   58762
   58763   58764   58763   58765   58766   58767   58766   58768
   58769   58770   58769   58771   58772   58773   58772   58774
   58775   58776   58775   58777   58778   58779   58778   58780
   58781   58782   58781   58783   58784   58785   58784   58786
   58787   58788   58787   58789   58790   58791   58790   58792
   58793   58794   58793   58795   58796   58797   58796   58798
   58799   58800   58799   58801   58802   58803   58802   58804
   58805   58806   58805   58807   58808   58809   58808   58810
   58811   58812   58811   58813   58814   58815   58814   58816
   58817   58818   58817   58819   58820   58821   58820   58822
   58823   58824   58823   58825   58826   58827   58826   58828
   58829   58830   58829   58831   58832   58833   58832   58834
   58835   58836   58835   58837   58838   58839   58838   58840
   58841   58842   58841   58843   58844   58845   58844   58846
   58847   58848   58847   58849   58850   58851   58850   58852
   58853   58854   58853   58855   58856   58857   58856   58858
   58859   58860   58859   58861   58862   58863   58862   58864
   58865   58866   58865   58867   58868   58869   58868   58870
   58871   58872   58871   58873   58874   58875   58874   58876
   58877   58878   58877   58879   58880   58881   58880   58882
   58883   58884   58883   58885   58886   58887   58886   58888
   58889   58890   58889   58891   58892   58893   58892   58894
   58895   58896   58895   58897   58898   58899   58898   58900
   58901   58902   58901   58903   58904   58905   58904   58906
   58907   58908   58907   58909   58910   58911   58910   58912
   58913   58914   58913   58915   58916   58917   58916   58918
   58919   58920   58919   58921   58922   58923   58922   58924
   58925   58926   58925   58927   58928   58929   58928   58930
   58931   58932   58931   58933   58934   58935   58934   58936
   58937   58938   58937   58939   58940   58941   58940   58942
   58943   58944   58943   58945   58946   58947   58946   58948
   58949   58950   58949   58951   58952   58953   58952   58954
   58955   58956   58955   58957   58958   58959   58958   58960
   58961   58962   58961   58963   58964   58965   58964   58966
   58967   58968   58967   58969   58970   58971   58970   58972
   58973   58974   58973   58975   58976   58977   58976   58978
   58979   58980   58979   58981   58982   58983   58982   58984
   58985   58986   58985   58987   58988   58989   58988   58990
   58991   58992   58991   58993   58994   58995   58994   58996
   58997   58998   58997   58999   59000   59001   59000   59002
   59003   59004   59003   59005   59006   59007   59006   59008
   59009   59010   59009   59011   59012   59013   59012   59014
   59015   59016   59015   59017   59018   59019   59018   59020
   59021   59022   59021   59023   59024   59025   59024   59026
   59027   59028   59027   59029   59030   59031   59030   59032
   59033   59034   59033   59035   59036   59037   59036   59038
   59039   59040   59039   59041   59042   59043   59042   59044
   59045   59046   59045   59047   59048   59049   59048   59050
   59051   59052   59051   59053   59054   59055   59054   59056
   59057   59058   59057   59059   59060   59061   59060   59062
   59063   59064   59063   59065   59066   59067   59066   59068
   59069   59070   59069   59071   59072   59073   59072   59074
   59075   59076   59075   59077   59078   59079   59078   59080
   59081   59082   59081   59083   59084   59085   59084   59086
   59087   59088   59087   59089   59090   59091   59090   59092
   59093   59094   59093   59095   59096   59097   59096   59098
   59099   59100   59099   59101   59102   59103   59102   59104
   59105   59106   59105   59107   59108   59109   59108   59110
   59111   59112   59111   59113   59114   59115   59114   59116
   59117   59118   59117   59119   59120   59121   59120   59122
   59123   59124   59123   59125   59126   59127   59126   59128
   59129   59130   59129   59131   59132   59133   59132   59134
   59135   59136   59135   59137   59138   59139   59138   59140
   59141   59142   59141   59143   59144   59145   59144   59146
   59147   59148   59147   59149   59150   59151   59150   59152
   59153   59154   59153   59155   59156   59157   59156   59158
   59159   59160   59159   59161   59162   59163   59162   59164
   59165   59166   59165   59167   59168   59169   59168   59170
   59171   59172   59171   59173   59174   59175   59174   59176
   59177   59178   59177   59179   59180   59181   59180   59182
   59183   59184   59183   59185   59186   59187   59186   59188
   59189   59190   59189   59191   59192   59193   59192   59194
   59195   59196   59195   59197   59198   59199   59198   59200
   59201   59202   59201   59203   59204   59205   59204   59206
   59207   59208   59207   59209   59210   59211   59210   59212
   59213   59214   59213   59215   59216   59217   59216   59218
   59219   59220   59219   59221   59222   59223   59222   59224
   59225   59226   59225   59227   59228   59229   59228   59230
   59231   59232   59231   59233   59234   59235   59234   59236
   59237   59238   59237   59239   59240   59241   59240   59242
   59243   59244   59243   59245   59246   59247   59246   59248
   59249   59250   59249   59251   59252   59253   59252   59254
   59255   59256   59255   59257   59258   59259   59258   59260
   59261   59262   59261   59263   59264   59265   59264   59266
   59267   59268   59267   59269   59270   59271   59270   59272
   59273   59274   59273   59275   59276   59277   59276   59278
   59279   59280   59279   59281   59282   59283   59282   59284
   59285   59286   59285   59287   59288   59289   59288   59290
   59291   59292   59291   59293   59294   59295   59294   59296
   59297   59298   59297   59299   59300   59301   59300   59302
   59303   59304   59303   59305   59306   59307   59306   59308
   59309   59310   59309   59311   59312   59313   59312   59314
   59315   59316   59315   59317   59318   59319   59318   59320
   59321   59322   59321   59323   59324   59325   59324   59326
   59327   59328   59327   59329   59330   59331   59330   59332
   59333   59334   59333   59335   59336   59337   59336   59338
   59339   59340   59339   59341   59342   59343   59342   59344
   59345   59346   59345   59347   59348   59349   59348   59350
   59351   59352   59351   59353   59354   59355   59354   59356
   59357   59358   59357   59359   59360   59361   59360   59362
   59363   59364   59363   59365   59366   59367   59366   59368
   59369   59370   59369   59371   59372   59373   59372   59374
   59375   59376   59375   59377   59378   59379   59378   59380
   59381   59382   59381   59383   59384   59385   59384   59386
   59387   59388   59387   59389   59390   59391   59390   59392
   59393   59394   59393   59395   59396   59397   59396   59398
   59399   59400   59399   59401   59402   59403   59402   59404
   59405   59406   59405   59407   59408   59409   59408   59410
   59411   59412   59411   59413   59414   59415   59414   59416
   59417   59418   59417   59419   59420   59421   59420   59422
   59423   59424   59423   59425   59426   59427   59426   59428
   59429   59430   59429   59431   59432   59433   59432   59434
   59435   59436   59435   59437   59438   59439   59438   59440
   59441   59442   59441   59443   59444   59445   59444   59446
   59447   59448   59447   59449   59450   59451   59450   59452
   59453   59454   59453   59455   59456   59457   59456   59458
   59459   59460   59459   59461   59462   59463   59462   59464
   59465   59466   59465   59467   59468   59469   59468   59470
   59471   59472   59471   59473   59474   59475   59474   59476
   59477   59478   59477   59479   59480   59481   59480   59482
   59483   59484   59483   59485   59486   59487   59486   59488
   59489   59490   59489   59491   59492   59493   59492   59494
   59495   59496   59495   59497   59498   59499   59498   59500
   59501   59502   59501   59503   59504   59505   59504   59506
   59507   59508   59507   59509   59510   59511   59510   59512
   59513   59514   59513   59515   59516   59517   59516   59518
   59519   59520   59519   59521   59522   59523   59522   59524
   59525   59526   59525   59527   59528   59529   59528   59530
   59531   59532   59531   59533   59534   59535   59534   59536
   59537   59538   59537   59539   59540   59541   59540   59542
   59543   59544   59543   59545   59546   59547   59546   59548
   59549   59550   59549   59551   59552   59553   59552   59554
   59555   59556   59555   59557   59558   59559   59558   59560
   59561   59562   59561   59563   59564   59565   59564   59566
   59567   59568   59567   59569   59570   59571   59570   59572
   59573   59574   59573   59575   59576   59577   59576   59578
   59579   59580   59579   59581   59582   59583   59582   59584
   59585   59586   59585   59587   59588   59589   59588   59590
   59591   59592   59591   59593   59594   59595   59594   59596
   59597   59598   59597   59599   59600   59601   59600   59602
   59603   59604   59603   59605   59606   59607   59606   59608
   59609   59610   59609   59611   59612   59613   59612   59614
   59615   59616   59615   59617   59618   59619   59618   59620
   59621   59622   59621   59623   59624   59625   59624   59626
   59627   59628   59627   59629   59630   59631   59630   59632
   59633   59634   59633   59635   59636   59637   59636   59638
   59639   59640   59639   59641   59642   59643   59642   59644
   59645   59646   59645   59647   59648   59649   59648   59650
   59651   59652   59651   59653   59654   59655   59654   59656
   59657   59658   59657   59659   59660   59661   59660   59662
   59663   59664   59663   59665   59666   59667   59666   59668
   59669   59670   59669   59671   59672   59673   59672   59674
   59675   59676   59675   59677   59678   59679   59678   59680
   59681   59682   59681   59683   59684   59685   59684   59686
   59687   59688   59687   59689   59690   59691   59690   59692
   59693   59694   59693   59695   59696   59697   59696   59698
   59699   59700   59699   59701   59702   59703   59702   59704
   59705   59706   59705   59707   59708   59709   59708   59710
   59711   59712   59711   59713   59714   59715   59714   59716
   59717   59718   59717   59719   59720   59721   59720   59722
   59723   59724   59723   59725   59726   59727   59726   59728
   59729   59730   59729   59731   59732   59733   59732   59734
   59735   59736   59735   59737   59738   59739   59738   59740
   59741   59742   59741   59743   59744   59745   59744   59746
   59747   59748   59747   59749   59750   59751   59750   59752
   59753   59754   59753   59755   59756   59757   59756   59758
   59759   59760   59759   59761   59762   59763   59762   59764
   59765   59766   59765   59767   59768   59769   59768   59770
   59771   59772   59771   59773   59774   59775   59774   59776
   59777   59778   59777   59779   59780   59781   59780   59782
   59783   59784   59783   59785   59786   59787   59786   59788
   59789   59790   59789   59791   59792   59793   59792   59794
   59795   59796   59795   59797   59798   59799   59798   59800
   59801   59802   59801   59803   59804   59805   59804   59806
   59807   59808   59807   59809   59810   59811   59810   59812
   59813   59814   59813   59815   59816   59817   59816   59818
   59819   59820   59819   59821   59822   59823   59822   59824
   59825   59826   59825   59827   59828   59829   59828   59830
   59831   59832   59831   59833   59834   59835   59834   59836
   59837   59838   59837   59839   59840   59841   59840   59842
   59843   59844   59843   59845   59846   59847   59846   59848
   59849   59850   59849   59851   59852   59853   59852   59854
   59855   59856   59855   59857   59858   59859   59858   59860
   59861   59862   59861   59863   59864   59865   59864   59866
   59867   59868   59867   59869   59870   59871   59870   59872
   59873   59874   59873   59875   59876   59877   59876   59878
   59879   59880   59879   59881   59882   59883   59882   59884
   59885   59886   59885   59887   59888   59889   59888   59890
   59891   59892   59891   59893   59894   59895   59894   59896
   59897   59898   59897   59899   59900   59901   59900   59902
   59903   59904   59903   59905   59906   59907   59906   59908
   59909   59910   59909   59911   59912   59913   59912   59914
   59915   59916   59915   59917   59918   59919   59918   59920
   59921   59922   59921   59923   59924   59925   59924   59926
   59927   59928   59927   59929   59930   59931   59930   59932
   59933   59934   59933   59935   59936   59937   59936   59938
   59939   59940   59939   59941   59942   59943   59942   59944
   59945   59946   59945   59947   59948   59949   59948   59950
   59951   59952   59951   59953   59954   59955   59954   59956
   59957   59958   59957   59959   59960   59961   59960   59962
   59963   59964   59963   59965   59966   59967   59966   59968
   59969   59970   59969   59971   59972   59973   59972   59974
   59975   59976   59975   59977   59978   59979   59978   59980
   59981   59982   59981   59983   59984   59985   59984   59986
   59987   59988   59987   59989   59990   59991   59990   59992
   59993   59994   59993   59995   59996   59997   59996   59998
   59999   60000   59999   60001   60002   60003   60002   60004
   60005   60006   60005   60007   60008   60009   60008   60010
   60011   60012   60011   60013   60014   60015   60014   60016
   60017   60018   60017   60019   60020   60021   60020   60022
   60023   60024   60023   60025   60026   60027   60026   60028
   60029   60030   60029   60031   60032   60033   60032   60034
   60035   60036   60035   60037   60038   60039   60038   60040
   60041   60042   60041   60043   60044   60045   60044   60046
   60047   60048   60047   60049   60050   60051   60050   60052
   60053   60054   60053   60055   60056   60057   60056   60058
   60059   60060   60059   60061   60062   60063   60062   60064
   60065   60066   60065   60067   60068   60069   60068   60070
   60071   60072   60071   60073   60074   60075   60074   60076
   60077   60078   60077   60079   60080   60081   60080   60082
   60083   60084   60083   60085   60086   60087   60086   60088
   60089   60090   60089   60091   60092   60093   60092   60094
   60095   60096   60095   60097   60098   60099   60098   60100
   60101   60102   60101   60103   60104   60105   60104   60106
   60107   60108   60107   60109   60110   60111   60110   60112
   60113   60114   60113   60115   60116   60117   60116   60118
   60119   60120   60119   60121   60122   60123   60122   60124
   60125   60126   60125   60127   60128   60129   60128   60130
   60131   60132   60131   60133   60134   60135   60134   60136
   60137   60138   60137   60139   60140   60141   60140   60142
   60143   60144   60143   60145   60146   60147   60146   60148
   60149   60150   60149   60151   60152   60153   60152   60154
   60155   60156   60155   60157   60158   60159   60158   60160
   60161   60162   60161   60163   60164   60165   60164   60166
   60167   60168   60167   60169   60170   60171   60170   60172
   60173   60174   60173   60175   60176   60177   60176   60178
   60179   60180   60179   60181   60182   60183   60182   60184
   60185   60186   60185   60187   60188   60189   60188   60190
   60191   60192   60191   60193   60194   60195   60194   60196
   60197   60198   60197   60199   60200   60201   60200   60202
   60203   60204   60203   60205   60206   60207   60206   60208
   60209   60210   60209   60211   60212   60213   60212   60214
   60215   60216   60215   60217   60218   60219   60218   60220
   60221   60222   60221   60223   60224   60225   60224   60226
   60227   60228   60227   60229   60230   60231   60230   60232
   60233   60234   60233   60235   60236   60237   60236   60238
   60239   60240   60239   60241   60242   60243   60242   60244
   60245   60246   60245   60247   60248   60249   60248   60250
   60251   60252   60251   60253   60254   60255   60254   60256
   60257   60258   60257   60259   60260   60261   60260   60262
   60263   60264   60263   60265   60266   60267   60266   60268
   60269   60270   60269   60271   60272   60273   60272   60274
   60275   60276   60275   60277   60278   60279   60278   60280
   60281   60282   60281   60283   60284   60285   60284   60286
   60287   60288   60287   60289   60290   60291   60290   60292
   60293   60294   60293   60295   60296   60297   60296   60298
   60299   60300   60299   60301   60302   60303   60302   60304
   60305   60306   60305   60307   60308   60309   60308   60310
   60311   60312   60311   60313   60314   60315   60314   60316
   60317   60318   60317   60319   60320   60321   60320   60322
   60323   60324   60323   60325   60326   60327   60326   60328
   60329   60330   60329   60331   60332   60333   60332   60334
   60335   60336   60335   60337   60338   60339   60338   60340
   60341   60342   60341   60343   60344   60345   60344   60346
   60347   60348   60347   60349   60350   60351   60350   60352
   60353   60354   60353   60355   60356   60357   60356   60358
   60359   60360   60359   60361   60362   60363   60362   60364
   60365   60366   60365   60367   60368   60369   60368   60370
   60371   60372   60371   60373   60374   60375   60374   60376
   60377   60378   60377   60379   60380   60381   60380   60382
   60383   60384   60383   60385   60386   60387   60386   60388
   60389   60390   60389   60391   60392   60393   60392   60394
   60395   60396   60395   60397   60398   60399   60398   60400
   60401   60402   60401   60403   60404   60405   60404   60406
   60407   60408   60407   60409   60410   60411   60410   60412
   60413   60414   60413   60415   60416   60417   60416   60418
   60419   60420   60419   60421   60422   60423   60422   60424
   60425   60426   60425   60427   60428   60429   60428   60430
   60431   60432   60431   60433   60434   60435   60434   60436
   60437   60438   60437   60439   60440   60441   60440   60442
   60443   60444   60443   60445   60446   60447   60446   60448
   60449   60450   60449   60451   60452   60453   60452   60454
   60455   60456   60455   60457   60458   60459   60458   60460
   60461   60462   60461   60463   60464   60465   60464   60466
   60467   60468   60467   60469   60470   60471   60470   60472
   60473   60474   60473   60475   60476   60477   60476   60478
   60479   60480   60479   60481   60482   60483   60482   60484
   60485   60486   60485   60487   60488   60489   60488   60490
   60491   60492   60491   60493   60494   60495   60494   60496
   60497   60498   60497   60499   60500   60501   60500   60502
   60503   60504   60503   60505   60506   60507   60506   60508
   60509   60510   60509   60511   60512   60513   60512   60514
   60515   60516   60515   60517   60518   60519   60518   60520
   60521   60522   60521   60523   60524   60525   60524   60526
   60527   60528   60527   60529   60530   60531   60530   60532
   60533   60534   60533   60535   60536   60537   60536   60538
   60539   60540   60539   60541   60542   60543   60542   60544
   60545   60546   60545   60547   60548   60549   60548   60550
   60551   60552   60551   60553   60554   60555   60554   60556
   60557   60558   60557   60559   60560   60561   60560   60562
   60563   60564   60563   60565   60566   60567   60566   60568
   60569   60570   60569   60571   60572   60573   60572   60574
   60575   60576   60575   60577   60578   60579   60578   60580
   60581   60582   60581   60583   60584   60585   60584   60586
   60587   60588   60587   60589   60590   60591   60590   60592
   60593   60594   60593   60595   60596   60597   60596   60598
   60599   60600   60599   60601   60602   60603   60602   60604
   60605   60606   60605   60607   60608   60609   60608   60610
   60611   60612   60611   60613   60614   60615   60614   60616
   60617   60618   60617   60619   60620   60621   60620   60622
   60623   60624   60623   60625   60626   60627   60626   60628
   60629   60630   60629   60631   60632   60633   60632   60634
   60635   60636   60635   60637   60638   60639   60638   60640
   60641   60642   60641   60643   60644   60645   60644   60646
   60647   60648   60647   60649   60650   60651   60650   60652
   60653   60654   60653   60655   60656   60657   60656   60658
   60659   60660   60659   60661   60662   60663   60662   60664
   60665   60666   60665   60667   60668   60669   60668   60670
   60671   60672   60671   60673   60674   60675   60674   60676
   60677   60678   60677   60679   60680   60681   60680   60682
   60683   60684   60683   60685   60686   60687   60686   60688
   60689   60690   60689   60691   60692   60693   60692   60694
   60695   60696   60695   60697   60698   60699   60698   60700
   60701   60702   60701   60703   60704   60705   60704   60706
   60707   60708   60707   60709   60710   60711   60710   60712
   60713   60714   60713   60715   60716   60717   60716   60718
   60719   60720   60719   60721   60722   60723   60722   60724
   60725   60726   60725   60727   60728   60729   60728   60730
   60731   60732   60731   60733   60734   60735   60734   60736
   60737   60738   60737   60739   60740   60741   60740   60742
   60743   60744   60743   60745   60746   60747   60746   60748
   60749   60750   60749   60751   60752   60753   60752   60754
   60755   60756   60755   60757   60758   60759   60758   60760
   60761   60762   60761   60763   60764   60765   60764   60766
   60767   60768   60767   60769   60770   60771   60770   60772
   60773   60774   60773   60775   60776   60777   60776   60778
   60779   60780   60779   60781   60782   60783   60782   60784
   60785   60786   60785   60787   60788   60789   60788   60790
   60791   60792   60791   60793   60794   60795   60794   60796
   60797   60798   60797   60799   60800   60801   60800   60802
   60803   60804   60803   60805   60806   60807   60806   60808
   60809   60810   60809   60811   60812   60813   60812   60814
   60815   60816   60815   60817   60818   60819   60818   60820
   60821   60822   60821   60823   60824   60825   60824   60826
   60827   60828   60827   60829   60830   60831   60830   60832
   60833   60834   60833   60835   60836   60837   60836   60838
   60839   60840   60839   60841   60842   60843   60842   60844
   60845   60846   60845   60847   60848   60849   60848   60850
   60851   60852   60851   60853   60854   60855   60854   60856
   60857   60858   60857   60859   60860   60861   60860   60862
   60863   60864   60863   60865   60866   60867   60866   60868
   60869   60870   60869   60871   60872   60873   60872   60874
   60875   60876   60875   60877   60878   60879   60878   60880
   60881   60882   60881   60883   60884   60885   60884   60886
   60887   60888   60887   60889   60890   60891   60890   60892
   60893   60894   60893   60895   60896   60897   60896   60898
   60899   60900   60899   60901   60902   60903   60902   60904
   60905   60906   60905   60907   60908   60909   60908   60910
   60911   60912   60911   60913   60914   60915   60914   60916
   60917   60918   60917   60919   60920   60921   60920   60922
   60923   60924   60923   60925   60926   60927   60926   60928
   60929   60930   60929   60931   60932   60933   60932   60934
   60935   60936   60935   60937   60938   60939   60938   60940
   60941   60942   60941   60943   60944   60945   60944   60946
   60947   60948   60947   60949   60950   60951   60950   60952
   60953   60954   60953   60955   60956   60957   60956   60958
   60959   60960   60959   60961   60962   60963   60962   60964
   60965   60966   60965   60967   60968   60969   60968   60970
   60971   60972   60971   60973   60974   60975   60974   60976
   60977   60978   60977   60979   60980   60981   60980   60982
   60983   60984   60983   60985   60986   60987   60986   60988
   60989   60990   60989   60991   60992   60993   60992   60994
   60995   60996   60995   60997   60998   60999   60998   61000
   61001   61002   61001   61003   61004   61005   61004   61006
   61007   61008   61007   61009   61010   61011   61010   61012
   61013   61014   61013   61015   61016   61017   61016   61018
   61019   61020   61019   61021   61022   61023   61022   61024
   61025   61026   61025   61027   61028   61029   61028   61030
   61031   61032   61031   61033   61034   61035   61034   61036
   61037   61038   61037   61039   61040   61041   61040   61042
   61043   61044   61043   61045   61046   61047   61046   61048
   61049   61050   61049   61051   61052   61053   61052   61054
   61055   61056   61055   61057   61058   61059   61058   61060
   61061   61062   61061   61063   61064   61065   61064   61066
   61067   61068   61067   61069   61070   61071   61070   61072
   61073   61074   61073   61075   61076   61077   61076   61078
   61079   61080   61079   61081   61082   61083   61082   61084
   61085   61086   61085   61087   61088   61089   61088   61090
   61091   61092   61091   61093   61094   61095   61094   61096
   61097   61098   61097   61099   61100   61101   61100   61102
   61103   61104   61103   61105   61106   61107   61106   61108
   61109   61110   61109   61111   61112   61113   61112   61114
   61115   61116   61115   61117   61118   61119   61118   61120
   61121   61122   61121   61123   61124   61125   61124   61126
   61127   61128   61127   61129   61130   61131   61130   61132
   61133   61134   61133   61135   61136   61137   61136   61138
   61139   61140   61139   61141   61142   61143   61142   61144
   61145   61146   61145   61147   61148   61149   61148   61150
   61151   61152   61151   61153   61154   61155   61154   61156
   61157   61158   61157   61159   61160   61161   61160   61162
   61163   61164   61163   61165   61166   61167   61166   61168
   61169   61170   61169   61171   61172   61173   61172   61174
   61175   61176   61175   61177   61178   61179   61178   61180
   61181   61182   61181   61183   61184   61185   61184   61186
   61187   61188   61187   61189   61190   61191   61190   61192
   61193   61194   61193   61195   61196   61197   61196   61198
   61199   61200   61199   61201   61202   61203   61202   61204
   61205   61206   61205   61207   61208   61209   61208   61210
   61211   61212   61211   61213   61214   61215   61214   61216
   61217   61218   61217   61219   61220   61221   61220   61222
   61223   61224   61223   61225   61226   61227   61226   61228
   61229   61230   61229   61231   61232   61233   61232   61234
   61235   61236   61235   61237   61238   61239   61238   61240
   61241   61242   61241   61243   61244   61245   61244   61246
   61247   61248   61247   61249   61250   61251   61250   61252
   61253   61254   61253   61255   61256   61257   61256   61258
   61259   61260   61259   61261   61262   61263   61262   61264
   61265   61266   61265   61267   61268   61269   61268   61270
   61271   61272   61271   61273   61274   61275   61274   61276
   61277   61278   61277   61279   61280   61281   61280   61282
   61283   61284   61283   61285   61286   61287   61286   61288
   61289   61290   61289   61291   61292   61293   61292   61294
   61295   61296   61295   61297   61298   61299   61298   61300
   61301   61302   61301   61303   61304   61305   61304   61306
   61307   61308   61307   61309   61310   61311   61310   61312
   61313   61314   61313   61315   61316   61317   61316   61318
   61319   61320   61319   61321   61322   61323   61322   61324
   61325   61326   61325   61327   61328   61329   61328   61330
   61331   61332   61331   61333   61334   61335   61334   61336
   61337   61338   61337   61339   61340   61341   61340   61342
   61343   61344   61343   61345   61346   61347   61346   61348
   61349   61350   61349   61351   61352   61353   61352   61354
   61355   61356   61355   61357   61358   61359   61358   61360
   61361   61362   61361   61363   61364   61365   61364   61366
   61367   61368   61367   61369   61370   61371   61370   61372
   61373   61374   61373   61375   61376   61377   61376   61378
   61379   61380   61379   61381   61382   61383   61382   61384
   61385   61386   61385   61387   61388   61389   61388   61390
   61391   61392   61391   61393   61394   61395   61394   61396
   61397   61398   61397   61399   61400   61401   61400   61402
   61403   61404   61403   61405   61406   61407   61406   61408
   61409   61410   61409   61411   61412   61413   61412   61414
   61415   61416   61415   61417   61418   61419   61418   61420
   61421   61422   61421   61423   61424   61425   61424   61426
   61427   61428   61427   61429   61430   61431   61430   61432
   61433   61434   61433   61435   61436   61437   61436   61438
   61439   61440   61439   61441   61442   61443   61442   61444
   61445   61446   61445   61447   61448   61449   61448   61450
   61451   61452   61451   61453   61454   61455   61454   61456
   61457   61458   61457   61459   61460   61461   61460   61462
   61463   61464   61463   61465   61466   61467   61466   61468
   61469   61470   61469   61471   61472   61473   61472   61474
   61475   61476   61475   61477   61478   61479   61478   61480
   61481   61482   61481   61483   61484   61485   61484   61486
   61487   61488   61487   61489   61490   61491   61490   61492
   61493   61494   61493   61495   61496   61497   61496   61498
   61499   61500   61499   61501   61502   61503   61502   61504
   61505   61506   61505   61507   61508   61509   61508   61510
   61511   61512   61511   61513   61514   61515   61514   61516
   61517   61518   61517   61519   61520   61521   61520   61522
   61523   61524   61523   61525   61526   61527   61526   61528
   61529   61530   61529   61531   61532   61533   61532   61534
   61535   61536   61535   61537   61538   61539   61538   61540
   61541   61542   61541   61543   61544   61545   61544   61546
   61547   61548   61547   61549   61550   61551   61550   61552
   61553   61554   61553   61555   61556   61557   61556   61558
   61559   61560   61559   61561   61562   61563   61562   61564
   61565   61566   61565   61567   61568   61569   61568   61570
   61571   61572   61571   61573   61574   61575   61574   61576
   61577   61578   61577   61579   61580   61581   61580   61582
   61583   61584   61583   61585   61586   61587   61586   61588
   61589   61590   61589   61591   61592   61593   61592   61594
   61595   61596   61595   61597   61598   61599   61598   61600
   61601   61602   61601   61603   61604   61605   61604   61606
   61607   61608   61607   61609   61610   61611   61610   61612
   61613   61614   61613   61615   61616   61617   61616   61618
   61619   61620   61619   61621   61622   61623   61622   61624
   61625   61626   61625   61627   61628   61629   61628   61630
   61631   61632   61631   61633   61634   61635   61634   61636
   61637   61638   61637   61639   61640   61641   61640   61642
   61643   61644   61643   61645   61646   61647   61646   61648
   61649   61650   61649   61651   61652   61653   61652   61654
   61655   61656   61655   61657   61658   61659   61658   61660
   61661   61662   61661   61663   61664   61665   61664   61666
   61667   61668   61667   61669   61670   61671   61670   61672
   61673   61674   61673   61675   61676   61677   61676   61678
   61679   61680   61679   61681   61682   61683   61682   61684
   61685   61686   61685   61687   61688   61689   61688   61690
   61691   61692   61691   61693   61694   61695   61694   61696
   61697   61698   61697   61699   61700   61701   61700   61702
   61703   61704   61703   61705   61706   61707   61706   61708
   61709   61710   61709   61711   61712   61713   61712   61714
   61715   61716   61715   61717   61718   61719   61718   61720
   61721   61722   61721   61723   61724   61725   61724   61726
   61727   61728   61727   61729   61730   61731   61730   61732
   61733   61734   61733   61735   61736   61737   61736   61738
   61739   61740   61739   61741   61742   61743   61742   61744
   61745   61746   61745   61747   61748   61749   61748   61750
   61751   61752   61751   61753   61754   61755   61754   61756
   61757   61758   61757   61759   61760   61761   61760   61762
   61763   61764   61763   61765   61766   61767   61766   61768
   61769   61770   61769   61771   61772   61773   61772   61774
   61775   61776   61775   61777   61778   61779   61778   61780
   61781   61782   61781   61783   61784   61785   61784   61786
   61787   61788   61787   61789   61790   61791   61790   61792
   61793   61794   61793   61795   61796   61797   61796   61798
   61799   61800   61799   61801   61802   61803   61802   61804
   61805   61806   61805   61807   61808   61809   61808   61810
   61811   61812   61811   61813   61814   61815   61814   61816
   61817   61818   61817   61819   61820   61821   61820   61822
   61823   61824   61823   61825   61826   61827   61826   61828
   61829   61830   61829   61831   61832   61833   61832   61834
   61835   61836   61835   61837   61838   61839   61838   61840
   61841   61842   61841   61843   61844   61845   61844   61846
   61847   61848   61847   61849   61850   61851   61850   61852
   61853   61854   61853   61855   61856   61857   61856   61858
   61859   61860   61859   61861   61862   61863   61862   61864
   61865   61866   61865   61867   61868   61869   61868   61870
   61871   61872   61871   61873   61874   61875   61874   61876
   61877   61878   61877   61879   61880   61881   61880   61882
   61883   61884   61883   61885   61886   61887   61886   61888
   61889   61890   61889   61891   61892   61893   61892   61894
   61895   61896   61895   61897   61898   61899   61898   61900
   61901   61902   61901   61903   61904   61905   61904   61906
   61907   61908   61907   61909   61910   61911   61910   61912
   61913   61914   61913   61915   61916   61917   61916   61918
   61919   61920   61919   61921   61922   61923   61922   61924
   61925   61926   61925   61927   61928   61929   61928   61930
   61931   61932   61931   61933   61934   61935   61934   61936
   61937   61938   61937   61939   61940   61941   61940   61942
   61943   61944   61943   61945   61946   61947   61946   61948
   61949   61950   61949   61951   61952   61953   61952   61954
   61955   61956   61955   61957   61958   61959   61958   61960
   61961   61962   61961   61963   61964   61965   61964   61966
   61967   61968   61967   61969   61970   61971   61970   61972
   61973   61974   61973   61975   61976   61977   61976   61978
   61979   61980   61979   61981   61982   61983   61982   61984
   61985   61986   61985   61987   61988   61989   61988   61990
   61991   61992   61991   61993   61994   61995   61994   61996
   61997   61998   61997   61999   62000   62001   62000   62002
   62003   62004   62003   62005   62006   62007   62006   62008
   62009   62010   62009   62011   62012   62013   62012   62014
   62015   62016   62015   62017   62018   62019   62018   62020
   62021   62022   62021   62023   62024   62025   62024   62026
   62027   62028   62027   62029   62030   62031   62030   62032
   62033   62034   62033   62035   62036   62037   62036   62038
   62039   62040   62039   62041   62042   62043   62042   62044
   62045   62046   62045   62047   62048   62049   62048   62050
   62051   62052   62051   62053   62054   62055   62054   62056
   62057   62058   62057   62059   62060   62061   62060   62062
   62063   62064   62063   62065   62066   62067   62066   62068
   62069   62070   62069   62071   62072   62073   62072   62074
   62075   62076   62075   62077   62078   62079   62078   62080
   62081   62082   62081   62083   62084   62085   62084   62086
   62087   62088   62087   62089   62090   62091   62090   62092
   62093   62094   62093   62095   62096   62097   62096   62098
   62099   62100   62099   62101   62102   62103   62102   62104
   62105   62106   62105   62107   62108   62109   62108   62110
   62111   62112   62111   62113   62114   62115   62114   62116
   62117   62118   62117   62119   62120   62121   62120   62122
   62123   62124   62123   62125   62126   62127   62126   62128
   62129   62130   62129   62131   62132   62133   62132   62134
   62135   62136   62135   62137   62138   62139   62138   62140
   62141   62142   62141   62143   62144   62145   62144   62146
   62147   62148   62147   62149   62150   62151   62150   62152
   62153   62154   62153   62155   62156   62157   62156   62158
   62159   62160   62159   62161   62162   62163   62162   62164
   62165   62166   62165   62167   62168   62169   62168   62170
   62171   62172   62171   62173   62174   62175   62174   62176
   62177   62178   62177   62179   62180   62181   62180   62182
   62183   62184   62183   62185   62186   62187   62186   62188
   62189   62190   62189   62191   62192   62193   62192   62194
   62195   62196   62195   62197   62198   62199   62198   62200
   62201   62202   62201   62203   62204   62205   62204   62206
   62207   62208   62207   62209   62210   62211   62210   62212
   62213   62214   62213   62215   62216   62217   62216   62218
   62219   62220   62219   62221   62222   62223   62222   62224
   62225   62226   62225   62227   62228   62229   62228   62230
   62231   62232   62231   62233   62234   62235   62234   62236
   62237   62238   62237   62239   62240   62241   62240   62242
   62243   62244   62243   62245   62246   62247   62246   62248
   62249   62250   62249   62251   62252   62253   62252   62254
   62255   62256   62255   62257   62258   62259   62258   62260
   62261   62262   62261   62263   62264   62265   62264   62266
   62267   62268   62267   62269   62270   62271   62270   62272
   62273   62274   62273   62275   62276   62277   62276   62278
   62279   62280   62279   62281   62282   62283   62282   62284
   62285   62286   62285   62287   62288   62289   62288   62290
   62291   62292   62291   62293   62294   62295   62294   62296
   62297   62298   62297   62299   62300   62301   62300   62302
   62303   62304   62303   62305   62306   62307   62306   62308
   62309   62310   62309   62311   62312   62313   62312   62314
   62315   62316   62315   62317   62318   62319   62318   62320
   62321   62322   62321   62323   62324   62325   62324   62326
   62327   62328   62327   62329   62330   62331   62330   62332
   62333   62334   62333   62335   62336   62337   62336   62338
   62339   62340   62339   62341   62342   62343   62342   62344
   62345   62346   62345   62347   62348   62349   62348   62350
   62351   62352   62351   62353   62354   62355   62354   62356
   62357   62358   62357   62359   62360   62361   62360   62362
   62363   62364   62363   62365   62366   62367   62366   62368
   62369   62370   62369   62371   62372   62373   62372   62374
   62375   62376   62375   62377   62378   62379   62378   62380
   62381   62382   62381   62383   62384   62385   62384   62386
   62387   62388   62387   62389   62390   62391   62390   62392
   62393   62394   62393   62395   62396   62397   62396   62398
   62399   62400   62399   62401   62402   62403   62402   62404
   62405   62406   62405   62407   62408   62409   62408   62410
   62411   62412   62411   62413   62414   62415   62414   62416
   62417   62418   62417   62419   62420   62421   62420   62422
   62423   62424   62423   62425   62426   62427   62426   62428
   62429   62430   62429   62431   62432   62433   62432   62434
   62435   62436   62435   62437   62438   62439   62438   62440
   62441   62442   62441   62443   62444   62445   62444   62446
   62447   62448   62447   62449   62450   62451   62450   62452
   62453   62454   62453   62455   62456   62457   62456   62458
   62459   62460   62459   62461   62462   62463   62462   62464
   62465   62466   62465   62467   62468   62469   62468   62470
   62471   62472   62471   62473   62474   62475   62474   62476
   62477   62478   62477   62479   62480   62481   62480   62482
   62483   62484   62483   62485   62486   62487   62486   62488
   62489   62490   62489   62491   62492   62493   62492   62494
   62495   62496   62495   62497   62498   62499   62498   62500
   62501   62502   62501   62503   62504   62505   62504   62506
   62507   62508   62507   62509   62510   62511   62510   62512
   62513   62514   62513   62515   62516   62517   62516   62518
   62519   62520   62519   62521   62522   62523   62522   62524
   62525   62526   62525   62527   62528   62529   62528   62530
   62531   62532   62531   62533   62534   62535   62534   62536
   62537   62538   62537   62539   62540   62541   62540   62542
   62543   62544   62543   62545   62546   62547   62546   62548
   62549   62550   62549   62551   62552   62553   62552   62554
   62555   62556   62555   62557   62558   62559   62558   62560
   62561   62562   62561   62563   62564   62565   62564   62566
   62567   62568   62567   62569   62570   62571   62570   62572
   62573   62574   62573   62575   62576   62577   62576   62578
   62579   62580   62579   62581   62582   62583   62582   62584
   62585   62586   62585   62587   62588   62589   62588   62590
   62591   62592   62591   62593   62594   62595   62594   62596
   62597   62598   62597   62599   62600   62601   62600   62602
   62603   62604   62603   62605   62606   62607   62606   62608
   62609   62610   62609   62611   62612   62613   62612   62614
   62615   62616   62615   62617   62618   62619   62618   62620
   62621   62622   62621   62623   62624   62625   62624   62626
   62627   62628   62627   62629   62630   62631   62630   62632
   62633   62634   62633   62635   62636   62637   62636   62638
   62639   62640   62639   62641   62642   62643   62642   62644
   62645   62646   62645   62647   62648   62649   62648   62650
   62651   62652   62651   62653   62654   62655   62654   62656
   62657   62658   62657   62659   62660   62661   62660   62662
   62663   62664   62663   62665   62666   62667   62666   62668
   62669   62670   62669   62671   62672   62673   62672   62674
   62675   62676   62675   62677   62678   62679   62678   62680
   62681   62682   62681   62683   62684   62685   62684   62686
   62687   62688   62687   62689   62690   62691   62690   62692
   62693   62694   62693   62695   62696   62697   62696   62698
   62699   62700   62699   62701   62702   62703   62702   62704
   62705   62706   62705   62707   62708   62709   62708   62710
   62711   62712   62711   62713   62714   62715   62714   62716
   62717   62718   62717   62719   62720   62721   62720   62722
   62723   62724   62723   62725   62726   62727   62726   62728
   62729   62730   62729   62731   62732   62733   62732   62734
   62735   62736   62735   62737   62738   62739   62738   62740
   62741   62742   62741   62743   62744   62745   62744   62746
   62747   62748   62747   62749   62750   62751   62750   62752
   62753   62754   62753   62755   62756   62757   62756   62758
   62759   62760   62759   62761   62762   62763   62762   62764
   62765   62766   62765   62767   62768   62769   62768   62770
   62771   62772   62771   62773   62774   62775   62774   62776
   62777   62778   62777   62779   62780   62781   62780   62782
   62783   62784   62783   62785   62786   62787   62786   62788
   62789   62790   62789   62791   62792   62793   62792   62794
   62795   62796   62795   62797   62798   62799   62798   62800
   62801   62802   62801   62803   62804   62805   62804   62806
   62807   62808   62807   62809   62810   62811   62810   62812
   62813   62814   62813   62815   62816   62817   62816   62818
   62819   62820   62819   62821   62822   62823   62822   62824
   62825   62826   62825   62827   62828   62829   62828   62830
   62831   62832   62831   62833   62834   62835   62834   62836
   62837   62838   62837   62839   62840   62841   62840   62842
   62843   62844   62843   62845   62846   62847   62846   62848
   62849   62850   62849   62851   62852   62853   62852   62854
   62855   62856   62855   62857   62858   62859   62858   62860
   62861   62862   62861   62863   62864   62865   62864   62866
   62867   62868   62867   62869   62870   62871   62870   62872
   62873   62874   62873   62875   62876   62877   62876   62878
   62879   62880   62879   62881   62882   62883   62882   62884
   62885   62886   62885   62887   62888   62889   62888   62890
   62891   62892   62891   62893   62894   62895   62894   62896
   62897   62898   62897   62899   62900   62901   62900   62902
   62903   62904   62903   62905   62906   62907   62906   62908
   62909   62910   62909   62911   62912   62913   62912   62914
   62915   62916   62915   62917   62918   62919   62918   62920
   62921   62922   62921   62923   62924   62925   62924   62926
   62927   62928   62927   62929   62930   62931   62930   62932
   62933   62934   62933   62935   62936   62937   62936   62938
   62939   62940   62939   62941   62942   62943   62942   62944
   62945   62946   62945   62947   62948   62949   62948   62950
   62951   62952   62951   62953   62954   62955   62954   62956
   62957   62958   62957   62959   62960   62961   62960   62962
   62963   62964   62963   62965   62966   62967   62966   62968
   62969   62970   62969   62971   62972   62973   62972   62974
   62975   62976   62975   62977   62978   62979   62978   62980
   62981   62982   62981   62983   62984   62985   62984   62986
   62987   62988   62987   62989   62990   62991   62990   62992
   62993   62994   62993   62995   62996   62997   62996   62998
   62999   63000   62999   63001   63002   63003   63002   63004
   63005   63006   63005   63007   63008   63009   63008   63010
   63011   63012   63011   63013   63014   63015   63014   63016
   63017   63018   63017   63019   63020   63021   63020   63022
   63023   63024   63023   63025   63026   63027   63026   63028
   63029   63030   63029   63031   63032   63033   63032   63034
   63035   63036   63035   63037   63038   63039   63038   63040
   63041   63042   63041   63043   63044   63045   63044   63046
   63047   63048   63047   63049   63050   63051   63050   63052
   63053   63054   63053   63055   63056   63057   63056   63058
   63059   63060   63059   63061   63062   63063   63062   63064
   63065   63066   63065   63067   63068   63069   63068   63070
   63071   63072   63071   63073   63074   63075   63074   63076
   63077   63078   63077   63079   63080   63081   63080   63082
   63083   63084   63083   63085   63086   63087   63086   63088
   63089   63090   63089   63091   63092   63093   63092   63094
   63095   63096   63095   63097   63098   63099   63098   63100
   63101   63102   63101   63103   63104   63105   63104   63106
   63107   63108   63107   63109   63110   63111   63110   63112
   63113   63114   63113   63115   63116   63117   63116   63118
   63119   63120   63119   63121   63122   63123   63122   63124
   63125   63126   63125   63127   63128   63129   63128   63130
   63131   63132   63131   63133   63134   63135   63134   63136
   63137   63138   63137   63139   63140   63141   63140   63142
   63143   63144   63143   63145   63146   63147   63146   63148
   63149   63150   63149   63151   63152   63153   63152   63154
   63155   63156   63155   63157   63158   63159   63158   63160
   63161   63162   63161   63163   63164   63165   63164   63166
   63167   63168   63167   63169   63170   63171   63170   63172
   63173   63174   63173   63175   63176   63177   63176   63178
   63179   63180   63179   63181   63182   63183   63182   63184
   63185   63186   63185   63187   63188   63189   63188   63190
   63191   63192   63191   63193   63194   63195   63194   63196
   63197   63198   63197   63199   63200   63201   63200   63202
   63203   63204   63203   63205   63206   63207   63206   63208
   63209   63210   63209   63211   63212   63213   63212   63214
   63215   63216   63215   63217   63218   63219   63218   63220
   63221   63222   63221   63223   63224   63225   63224   63226
   63227   63228   63227   63229   63230   63231   63230   63232
   63233   63234   63233   63235   63236   63237   63236   63238
   63239   63240   63239   63241   63242   63243   63242   63244
   63245   63246   63245   63247   63248   63249   63248   63250
   63251   63252   63251   63253   63254   63255   63254   63256
   63257   63258   63257   63259   63260   63261   63260   63262
   63263   63264   63263   63265   63266   63267   63266   63268
   63269   63270   63269   63271   63272   63273   63272   63274
   63275   63276   63275   63277   63278   63279   63278   63280
   63281   63282   63281   63283   63284   63285   63284   63286
   63287   63288   63287   63289   63290   63291   63290   63292
   63293   63294   63293   63295   63296   63297   63296   63298
   63299   63300   63299   63301   63302   63303   63302   63304
   63305   63306   63305   63307   63308   63309   63308   63310
   63311   63312   63311   63313   63314   63315   63314   63316
   63317   63318   63317   63319   63320   63321   63320   63322
   63323   63324   63323   63325   63326   63327   63326   63328
   63329   63330   63329   63331   63332   63333   63332   63334
   63335   63336   63335   63337   63338   63339   63338   63340
   63341   63342   63341   63343   63344   63345   63344   63346
   63347   63348   63347   63349   63350   63351   63350   63352
   63353   63354   63353   63355   63356   63357   63356   63358
   63359   63360   63359   63361   63362   63363   63362   63364
   63365   63366   63365   63367   63368   63369   63368   63370
   63371   63372   63371   63373   63374   63375   63374   63376
   63377   63378   63377   63379   63380   63381   63380   63382
   63383   63384   63383   63385   63386   63387   63386   63388
   63389   63390   63389   63391   63392   63393   63392   63394
   63395   63396   63395   63397   63398   63399   63398   63400
   63401   63402   63401   63403   63404   63405   63404   63406
   63407   63408   63407   63409   63410   63411   63410   63412
   63413   63414   63413   63415   63416   63417   63416   63418
   63419   63420   63419   63421   63422   63423   63422   63424
   63425   63426   63425   63427   63428   63429   63428   63430
   63431   63432   63431   63433   63434   63435   63434   63436
   63437   63438   63437   63439   63440   63441   63440   63442
   63443   63444   63443   63445   63446   63447   63446   63448
   63449   63450   63449   63451   63452   63453   63452   63454
   63455   63456   63455   63457   63458   63459   63458   63460
   63461   63462   63461   63463   63464   63465   63464   63466
   63467   63468   63467   63469   63470   63471   63470   63472
   63473   63474   63473   63475   63476   63477   63476   63478
   63479   63480   63479   63481   63482   63483   63482   63484
   63485   63486   63485   63487   63488   63489   63488   63490
   63491   63492   63491   63493   63494   63495   63494   63496
   63497   63498   63497   63499   63500   63501   63500   63502
   63503   63504   63503   63505   63506   63507   63506   63508
   63509   63510   63509   63511   63512   63513   63512   63514
   63515   63516   63515   63517   63518   63519   63518   63520
   63521   63522   63521   63523   63524   63525   63524   63526
   63527   63528   63527   63529   63530   63531   63530   63532
   63533   63534   63533   63535   63536   63537   63536   63538
   63539   63540   63539   63541   63542   63543   63542   63544
   63545   63546   63545   63547   63548   63549   63548   63550
   63551   63552   63551   63553   63554   63555   63554   63556
   63557   63558   63557   63559   63560   63561   63560   63562
   63563   63564   63563   63565   63566   63567   63566   63568
   63569   63570   63569   63571   63572   63573   63572   63574
   63575   63576   63575   63577   63578   63579   63578   63580
   63581   63582   63581   63583   63584   63585   63584   63586
   63587   63588   63587   63589   63590   63591   63590   63592
   63593   63594   63593   63595   63596   63597   63596   63598
   63599   63600   63599   63601   63602   63603   63602   63604
   63605   63606   63605   63607   63608   63609   63608   63610
   63611   63612   63611   63613   63614   63615   63614   63616
   63617   63618   63617   63619   63620   63621   63620   63622
   63623   63624   63623   63625   63626   63627   63626   63628
   63629   63630   63629   63631   63632   63633   63632   63634
   63635   63636   63635   63637   63638   63639   63638   63640
   63641   63642   63641   63643   63644   63645   63644   63646
   63647   63648   63647   63649   63650   63651   63650   63652
   63653   63654   63653   63655   63656   63657   63656   63658
   63659   63660   63659   63661   63662   63663   63662   63664
   63665   63666   63665   63667   63668   63669   63668   63670
   63671   63672   63671   63673   63674   63675   63674   63676
   63677   63678   63677   63679   63680   63681   63680   63682
   63683   63684   63683   63685   63686   63687   63686   63688
   63689   63690   63689   63691   63692   63693   63692   63694
   63695   63696   63695   63697   63698   63699   63698   63700
   63701   63702   63701   63703   63704   63705   63704   63706
   63707   63708   63707   63709   63710   63711   63710   63712
   63713   63714   63713   63715   63716   63717   63716   63718
   63719   63720   63719   63721   63722   63723   63722   63724
   63725   63726   63725   63727   63728   63729   63728   63730
   63731   63732   63731   63733   63734   63735   63734   63736
   63737   63738   63737   63739   63740   63741   63740   63742
   63743   63744   63743   63745   63746   63747   63746   63748
   63749   63750   63749   63751   63752   63753   63752   63754
   63755   63756   63755   63757   63758   63759   63758   63760
   63761   63762   63761   63763   63764   63765   63764   63766
   63767   63768   63767   63769   63770   63771   63770   63772
   63773   63774   63773   63775   63776   63777   63776   63778
   63779   63780   63779   63781   63782   63783   63782   63784
   63785   63786   63785   63787   63788   63789   63788   63790
   63791   63792   63791   63793   63794   63795   63794   63796
   63797   63798   63797   63799   63800   63801   63800   63802
   63803   63804   63803   63805   63806   63807   63806   63808
   63809   63810   63809   63811   63812   63813   63812   63814
   63815   63816   63815   63817   63818   63819   63818   63820
   63821   63822   63821   63823   63824   63825   63824   63826
   63827   63828   63827   63829   63830   63831   63830   63832
   63833   63834   63833   63835   63836   63837   63836   63838
   63839   63840   63839   63841   63842   63843   63842   63844
   63845   63846   63845   63847   63848   63849   63848   63850
   63851   63852   63851   63853   63854   63855   63854   63856
   63857   63858   63857   63859   63860   63861   63860   63862
   63863   63864   63863   63865   63866   63867   63866   63868
   63869   63870   63869   63871   63872   63873   63872   63874
   63875   63876   63875   63877   63878   63879   63878   63880
   63881   63882   63881   63883   63884   63885   63884   63886
   63887   63888   63887   63889   63890   63891   63890   63892
   63893   63894   63893   63895   63896   63897   63896   63898
   63899   63900   63899   63901   63902   63903   63902   63904
   63905   63906   63905   63907   63908   63909   63908   63910
   63911   63912   63911   63913   63914   63915   63914   63916
   63917   63918   63917   63919   63920   63921   63920   63922
   63923   63924   63923   63925   63926   63927   63926   63928
   63929   63930   63929   63931   63932   63933   63932   63934
   63935   63936   63935   63937   63938   63939   63938   63940
   63941   63942   63941   63943   63944   63945   63944   63946
   63947   63948   63947   63949   63950   63951   63950   63952
   63953   63954   63953   63955   63956   63957   63956   63958
   63959   63960   63959   63961   63962   63963   63962   63964
   63965   63966   63965   63967   63968   63969   63968   63970
   63971   63972   63971   63973   63974   63975   63974   63976
   63977   63978   63977   63979   63980   63981   63980   63982
   63983   63984   63983   63985   63986   63987   63986   63988
   63989   63990   63989   63991   63992   63993   63992   63994
   63995   63996   63995   63997   63998   63999   63998   64000
   64001   64002   64001   64003   64004   64005   64004   64006
   64007   64008   64007   64009   64010   64011   64010   64012
   64013   64014   64013   64015   64016   64017   64016   64018
   64019   64020   64019   64021   64022   64023   64022   64024
   64025   64026   64025   64027   64028   64029   64028   64030
   64031   64032   64031   64033   64034   64035   64034   64036
   64037   64038   64037   64039   64040   64041   64040   64042
   64043   64044   64043   64045   64046   64047   64046   64048
   64049   64050   64049   64051   64052   64053   64052   64054
   64055   64056   64055   64057   64058   64059   64058   64060
   64061   64062   64061   64063   64064   64065   64064   64066
   64067   64068   64067   64069   64070   64071   64070   64072
   64073   64074   64073   64075   64076   64077   64076   64078
   64079   64080   64079   64081   64082   64083   64082   64084
   64085   64086   64085   64087   64088   64089   64088   64090
   64091   64092   64091   64093   64094   64095   64094   64096
   64097   64098   64097   64099   64100   64101   64100   64102
   64103   64104   64103   64105   64106   64107   64106   64108
   64109   64110   64109   64111   64112   64113   64112   64114
   64115   64116   64115   64117   64118   64119   64118   64120
   64121   64122   64121   64123   64124   64125   64124   64126
   64127   64128   64127   64129   64130   64131   64130   64132
   64133   64134   64133   64135   64136   64137   64136   64138
   64139   64140   64139   64141   64142   64143   64142   64144
   64145   64146   64145   64147   64148   64149   64148   64150
   64151   64152   64151   64153   64154   64155   64154   64156
   64157   64158   64157   64159   64160   64161   64160   64162
   64163   64164   64163   64165   64166   64167   64166   64168
   64169   64170   64169   64171   64172   64173   64172   64174
   64175   64176   64175   64177   64178   64179   64178   64180
   64181   64182   64181   64183   64184   64185   64184   64186
   64187   64188   64187   64189   64190   64191   64190   64192
   64193   64194   64193   64195   64196   64197   64196   64198
   64199   64200   64199   64201   64202   64203   64202   64204
   64205   64206   64205   64207   64208   64209   64208   64210
   64211   64212   64211   64213   64214   64215   64214   64216
   64217   64218   64217   64219   64220   64221   64220   64222
   64223   64224   64223   64225   64226   64227   64226   64228
   64229   64230   64229   64231   64232   64233   64232   64234
   64235   64236   64235   64237   64238   64239   64238   64240
   64241   64242   64241   64243   64244   64245   64244   64246
   64247   64248   64247   64249   64250   64251   64250   64252
   64253   64254   64253   64255   64256   64257   64256   64258
   64259   64260   64259   64261   64262   64263   64262   64264
   64265   64266   64265   64267   64268   64269   64268   64270
   64271   64272   64271   64273   64274   64275   64274   64276
   64277   64278   64277   64279   64280   64281   64280   64282
   64283   64284   64283   64285   64286   64287   64286   64288
   64289   64290   64289   64291   64292   64293   64292   64294
   64295   64296   64295   64297   64298   64299   64298   64300
   64301   64302   64301   64303   64304   64305   64304   64306
   64307   64308   64307   64309   64310   64311   64310   64312
   64313   64314   64313   64315   64316   64317   64316   64318
   64319   64320   64319   64321   64322   64323   64322   64324
   64325   64326   64325   64327   64328   64329   64328   64330
   64331   64332   64331   64333   64334   64335   64334   64336
   64337   64338   64337   64339   64340   64341   64340   64342
   64343   64344   64343   64345   64346   64347   64346   64348
   64349   64350   64349   64351   64352   64353   64352   64354
   64355   64356   64355   64357   64358   64359   64358   64360
   64361   64362   64361   64363   64364   64365   64364   64366
   64367   64368   64367   64369   64370   64371   64370   64372
   64373   64374   64373   64375   64376   64377   64376   64378
   64379   64380   64379   64381   64382   64383   64382   64384
   64385   64386   64385   64387   64388   64389   64388   64390
   64391   64392   64391   64393   64394   64395   64394   64396
   64397   64398   64397   64399   64400   64401   64400   64402
   64403   64404   64403   64405   64406   64407   64406   64408
   64409   64410   64409   64411   64412   64413   64412   64414
   64415   64416   64415   64417   64418   64419   64418   64420
   64421   64422   64421   64423   64424   64425   64424   64426
   64427   64428   64427   64429   64430   64431   64430   64432
   64433   64434   64433   64435   64436   64437   64436   64438
   64439   64440   64439   64441   64442   64443   64442   64444
   64445   64446   64445   64447   64448   64449   64448   64450
   64451   64452   64451   64453   64454   64455   64454   64456
   64457   64458   64457   64459   64460   64461   64460   64462
   64463   64464   64463   64465   64466   64467   64466   64468
   64469   64470   64469   64471   64472   64473   64472   64474
   64475   64476   64475   64477   64478   64479   64478   64480
   64481   64482   64481   64483   64484   64485   64484   64486
   64487   64488   64487   64489   64490   64491   64490   64492
   64493   64494   64493   64495   64496   64497   64496   64498
   64499   64500   64499   64501   64502   64503   64502   64504
   64505   64506   64505   64507   64508   64509   64508   64510
   64511   64512   64511   64513   64514   64515   64514   64516
   64517   64518   64517   64519   64520   64521   64520   64522
   64523   64524   64523   64525   64526   64527   64526   64528
   64529   64530   64529   64531   64532   64533   64532   64534
   64535   64536   64535   64537   64538   64539   64538   64540
   64541   64542   64541   64543   64544   64545   64544   64546
   64547   64548   64547   64549   64550   64551   64550   64552
   64553   64554   64553   64555   64556   64557   64556   64558
   64559   64560   64559   64561   64562   64563   64562   64564
   64565   64566   64565   64567   64568   64569   64568   64570
   64571   64572   64571   64573   64574   64575   64574   64576
   64577   64578   64577   64579   64580   64581   64580   64582
   64583   64584   64583   64585   64586   64587   64586   64588
   64589   64590   64589   64591   64592   64593   64592   64594
   64595   64596   64595   64597   64598   64599   64598   64600
   64601   64602   64601   64603   64604   64605   64604   64606
   64607   64608   64607   64609   64610   64611   64610   64612
   64613   64614   64613   64615   64616   64617   64616   64618
   64619   64620   64619   64621   64622   64623   64622   64624
   64625   64626   64625   64627   64628   64629   64628   64630
   64631   64632   64631   64633   64634   64635   64634   64636
   64637   64638   64637   64639   64640   64641   64640   64642
   64643   64644   64643   64645   64646   64647   64646   64648
   64649   64650   64649   64651   64652   64653   64652   64654
   64655   64656   64655   64657   64658   64659   64658   64660
   64661   64662   64661   64663   64664   64665   64664   64666
   64667   64668   64667   64669   64670   64671   64670   64672
   64673   64674   64673   64675   64676   64677   64676   64678
   64679   64680   64679   64681   64682   64683   64682   64684
   64685   64686   64685   64687   64688   64689   64688   64690
   64691   64692   64691   64693   64694   64695   64694   64696
   64697   64698   64697   64699   64700   64701   64700   64702
   64703   64704   64703   64705   64706   64707   64706   64708
   64709   64710   64709   64711   64712   64713   64712   64714
   64715   64716   64715   64717   64718   64719   64718   64720
   64721   64722   64721   64723   64724   64725   64724   64726
   64727   64728   64727   64729   64730   64731   64730   64732
   64733   64734   64733   64735   64736   64737   64736   64738
   64739   64740   64739   64741   64742   64743   64742   64744
   64745   64746   64745   64747   64748   64749   64748   64750
   64751   64752   64751   64753   64754   64755   64754   64756
   64757   64758   64757   64759   64760   64761   64760   64762
   64763   64764   64763   64765   64766   64767   64766   64768
   64769   64770   64769   64771   64772   64773   64772   64774
   64775   64776   64775   64777   64778   64779   64778   64780
   64781   64782   64781   64783   64784   64785   64784   64786
   64787   64788   64787   64789   64790   64791   64790   64792
   64793   64794   64793   64795   64796   64797   64796   64798
   64799   64800   64799   64801   64802   64803   64802   64804
   64805   64806   64805   64807   64808   64809   64808   64810
   64811   64812   64811   64813   64814   64815   64814   64816
   64817   64818   64817   64819   64820   64821   64820   64822
   64823   64824   64823   64825   64826   64827   64826   64828
   64829   64830   64829   64831   64832   64833   64832   64834
   64835   64836   64835   64837   64838   64839   64838   64840
   64841   64842   64841   64843   64844   64845   64844   64846
   64847   64848   64847   64849   64850   64851   64850   64852
   64853   64854   64853   64855   64856   64857   64856   64858
   64859   64860   64859   64861   64862   64863   64862   64864
   64865   64866   64865   64867   64868   64869   64868   64870
   64871   64872   64871   64873   64874   64875   64874   64876
   64877   64878   64877   64879   64880   64881   64880   64882
   64883   64884   64883   64885   64886   64887   64886   64888
   64889   64890   64889   64891   64892   64893   64892   64894
   64895   64896   64895   64897   64898   64899   64898   64900
   64901   64902   64901   64903   64904   64905   64904   64906
   64907   64908   64907   64909   64910   64911   64910   64912
   64913   64914   64913   64915   64916   64917   64916   64918
   64919   64920   64919   64921   64922   64923   64922   64924
   64925   64926   64925   64927   64928   64929   64928   64930
   64931   64932   64931   64933   64934   64935   64934   64936
   64937   64938   64937   64939   64940   64941   64940   64942
   64943   64944   64943   64945   64946   64947   64946   64948
   64949   64950   64949   64951   64952   64953   64952   64954
   64955   64956   64955   64957   64958   64959   64958   64960
   64961   64962   64961   64963   64964   64965   64964   64966
   64967   64968   64967   64969   64970   64971   64970   64972
   64973   64974   64973   64975   64976   64977   64976   64978
   64979   64980   64979   64981   64982   64983   64982   64984
   64985   64986   64985   64987   64988   64989   64988   64990
   64991   64992   64991   64993   64994   64995   64994   64996
   64997   64998   64997   64999   65000   65001   65000   65002
   65003   65004   65003   65005   65006   65007   65006   65008
   65009   65010   65009   65011   65012   65013   65012   65014
   65015   65016   65015   65017   65018   65019   65018   65020
   65021   65022   65021   65023   65024   65025   65024   65026
   65027   65028   65027   65029   65030   65031   65030   65032
   65033   65034   65033   65035   65036   65037   65036   65038
   65039   65040   65039   65041   65042   65043   65042   65044
   65045   65046   65045   65047   65048   65049   65048   65050
   65051   65052   65051   65053   65054   65055   65054   65056
   65057   65058   65057   65059   65060   65061   65060   65062
   65063   65064   65063   65065   65066   65067   65066   65068
   65069   65070   65069   65071   65072   65073   65072   65074
   65075   65076   65075   65077   65078   65079   65078   65080
   65081   65082   65081   65083   65084   65085   65084   65086
   65087   65088   65087   65089   65090   65091   65090   65092
   65093   65094   65093   65095   65096   65097   65096   65098
   65099   65100   65099   65101   65102   65103   65102   65104
   65105   65106   65105   65107   65108   65109   65108   65110
   65111   65112   65111   65113   65114   65115   65114   65116
   65117   65118   65117   65119   65120   65121   65120   65122
   65123   65124   65123   65125   65126   65127   65126   65128
   65129   65130   65129   65131   65132   65133   65132   65134
   65135   65136   65135   65137   65138   65139   65138   65140
   65141   65142   65141   65143   65144   65145   65144   65146
   65147   65148   65147   65149   65150   65151   65150   65152
   65153   65154   65153   65155   65156   65157   65156   65158
   65159   65160   65159   65161   65162   65163   65162   65164
   65165   65166   65165   65167   65168   65169   65168   65170
   65171   65172   65171   65173   65174   65175   65174   65176
   65177   65178   65177   65179   65180   65181   65180   65182
   65183   65184   65183   65185   65186   65187   65186   65188
   65189   65190   65189   65191   65192   65193   65192   65194
   65195   65196   65195   65197   65198   65199   65198   65200
   65201   65202   65201   65203   65204   65205   65204   65206
   65207   65208   65207   65209   65210   65211   65210   65212
   65213   65214   65213   65215   65216   65217   65216   65218
   65219   65220   65219   65221   65222   65223   65222   65224
   65225   65226   65225   65227   65228   65229   65228   65230
   65231   65232   65231   65233   65234   65235   65234   65236
   65237   65238   65237   65239   65240   65241   65240   65242
   65243   65244   65243   65245   65246   65247   65246   65248
   65249   65250   65249   65251   65252   65253   65252   65254
   65255   65256   65255   65257   65258   65259   65258   65260
   65261   65262   65261   65263   65264   65265   65264   65266
   65267   65268   65267   65269   65270   65271   65270   65272
   65273   65274   65273   65275   65276   65277   65276   65278
   65279   65280   65279   65281   65282   65283   65282   65284
   65285   65286   65285   65287   65288   65289   65288   65290
   65291   65292   65291   65293   65294   65295   65294   65296
   65297   65298   65297   65299   65300   65301   65300   65302
   65303   65304   65303   65305   65306   65307   65306   65308
   65309   65310   65309   65311   65312   65313   65312   65314
   65315   65316   65315   65317   65318   65319   65318   65320
   65321   65322   65321   65323   65324   65325   65324   65326
   65327   65328   65327   65329   65330   65331   65330   65332
   65333   65334   65333   65335   65336   65337   65336   65338
   65339   65340   65339   65341   65342   65343   65342   65344
   65345   65346   65345   65347   65348   65349   65348   65350
   65351   65352   65351   65353   65354   65355   65354   65356
   65357   65358   65357   65359   65360   65361   65360   65362
   65363   65364   65363   65365   65366   65367   65366   65368
   65369   65370   65369   65371   65372   65373   65372   65374
   65375   65376   65375   65377   65378   65379   65378   65380
   65381   65382   65381   65383   65384   65385   65384   65386
   65387   65388   65387   65389   65390   65391   65390   65392
   65393   65394   65393   65395   65396   65397   65396   65398
   65399   65400   65399   65401   65402   65403   65402   65404
   65405   65406   65405   65407   65408   65409   65408   65410
   65411   65412   65411   65413   65414   65415   65414   65416
   65417   65418   65417   65419   65420   65421   65420   65422
   65423   65424   65423   65425   65426   65427   65426   65428
   65429   65430   65429   65431   65432   65433   65432   65434
   65435   65436   65435   65437   65438   65439   65438   65440
   65441   65442   65441   65443   65444   65445   65444   65446
   65447   65448   65447   65449   65450   65451   65450   65452
   65453   65454   65453   65455   65456   65457   65456   65458
   65459   65460   65459   65461   65462   65463   65462   65464
   65465   65466   65465   65467   65468   65469   65468   65470
   65471   65472   65471   65473   65474   65475   65474   65476
   65477   65478   65477   65479   65480   65481   65480   65482
   65483   65484   65483   65485   65486   65487   65486   65488
   65489   65490   65489   65491   65492   65493   65492   65494
   65495   65496   65495   65497   65498   65499   65498   65500
   65501   65502   65501   65503   65504   65505   65504   65506
   65507   65508   65507   65509   65510   65511   65510   65512
   65513   65514   65513   65515   65516   65517   65516   65518
   65519   65520   65519   65521   65522   65523   65522   65524
   65525   65526   65525   65527   65528   65529   65528   65530
   65531   65532   65531   65533   65534   65535   65534   65536
   65537   65538   65537   65539   65540   65541   65540   65542
   65543   65544   65543   65545   65546   65547   65546   65548
   65549   65550   65549   65551   65552   65553   65552   65554
   65555   65556   65555   65557   65558   65559   65558   65560
   65561   65562   65561   65563   65564   65565   65564   65566
   65567   65568   65567   65569   65570   65571   65570   65572
   65573   65574   65573   65575   65576   65577   65576   65578
   65579   65580   65579   65581   65582   65583   65582   65584
   65585   65586   65585   65587   65588   65589   65588   65590
   65591   65592   65591   65593   65594   65595   65594   65596
   65597   65598   65597   65599   65600   65601   65600   65602
   65603   65604   65603   65605   65606   65607   65606   65608
   65609   65610   65609   65611   65612   65613   65612   65614
   65615   65616   65615   65617   65618   65619   65618   65620
   65621   65622   65621   65623   65624   65625   65624   65626
   65627   65628   65627   65629   65630   65631   65630   65632
   65633   65634   65633   65635   65636   65637   65636   65638
   65639   65640   65639   65641   65642   65643   65642   65644
   65645   65646   65645   65647   65648   65649   65648   65650
   65651   65652   65651   65653   65654   65655   65654   65656
   65657   65658   65657   65659   65660   65661   65660   65662
   65663   65664   65663   65665   65666   65667   65666   65668
   65669   65670   65669   65671   65672   65673   65672   65674
   65675   65676   65675   65677   65678   65679   65678   65680
   65681   65682   65681   65683   65684   65685   65684   65686
   65687   65688   65687   65689   65690   65691   65690   65692
   65693   65694   65693   65695   65696   65697   65696   65698
   65699   65700   65699   65701   65702   65703   65702   65704
   65705   65706   65705   65707   65708   65709   65708   65710
   65711   65712   65711   65713   65714   65715   65714   65716
   65717   65718   65717   65719   65720   65721   65720   65722
   65723   65724   65723   65725   65726   65727   65726   65728
   65729   65730   65729   65731   65732   65733   65732   65734
   65735   65736   65735   65737   65738   65739   65738   65740
   65741   65742   65741   65743   65744   65745   65744   65746
   65747   65748   65747   65749   65750   65751   65750   65752
   65753   65754   65753   65755   65756   65757   65756   65758
   65759   65760   65759   65761   65762   65763   65762   65764
   65765   65766   65765   65767   65768   65769   65768   65770
   65771   65772   65771   65773   65774   65775   65774   65776
   65777   65778   65777   65779   65780   65781   65780   65782
   65783   65784   65783   65785   65786   65787   65786   65788
   65789   65790   65789   65791   65792   65793   65792   65794
   65795   65796   65795   65797   65798   65799   65798   65800
   65801   65802   65801   65803   65804   65805   65804   65806
   65807   65808   65807   65809   65810   65811   65810   65812
   65813   65814   65813   65815   65816   65817   65816   65818
   65819   65820   65819   65821   65822   65823   65822   65824
   65825   65826   65825   65827   65828   65829   65828   65830
   65831   65832   65831   65833   65834   65835   65834   65836
   65837   65838   65837   65839   65840   65841   65840   65842
   65843   65844   65843   65845   65846   65847   65846   65848
   65849   65850   65849   65851   65852   65853   65852   65854
   65855   65856   65855   65857   65858   65859   65858   65860
   65861   65862   65861   65863   65864   65865   65864   65866
   65867   65868   65867   65869   65870   65871   65870   65872
   65873   65874   65873   65875   65876   65877   65876   65878
   65879   65880   65879   65881   65882   65883   65882   65884
   65885   65886   65885   65887   65888   65889   65888   65890
   65891   65892   65891   65893   65894   65895   65894   65896
   65897   65898   65897   65899   65900   65901   65900   65902
   65903   65904   65903   65905   65906   65907   65906   65908
   65909   65910   65909   65911   65912   65913   65912   65914
   65915   65916   65915   65917   65918   65919   65918   65920
   65921   65922   65921   65923   65924   65925   65924   65926
   65927   65928   65927   65929   65930   65931   65930   65932
   65933   65934   65933   65935   65936   65937   65936   65938
   65939   65940   65939   65941   65942   65943   65942   65944
   65945   65946   65945   65947   65948   65949   65948   65950
   65951   65952   65951   65953   65954   65955   65954   65956
   65957   65958   65957   65959   65960   65961   65960   65962
   65963   65964   65963   65965   65966   65967   65966   65968
   65969   65970   65969   65971   65972   65973   65972   65974
   65975   65976   65975   65977   65978   65979   65978   65980
   65981   65982   65981   65983   65984   65985   65984   65986
   65987   65988   65987   65989   65990   65991   65990   65992
   65993   65994   65993   65995   65996   65997   65996   65998
   65999   66000   65999   66001   66002   66003   66002   66004
   66005   66006   66005   66007   66008   66009   66008   66010
   66011   66012   66011   66013   66014   66015   66014   66016
   66017   66018   66017   66019   66020   66021   66020   66022
   66023   66024   66023   66025   66026   66027   66026   66028
   66029   66030   66029   66031   66032   66033   66032   66034
   66035   66036   66035   66037   66038   66039   66038   66040
   66041   66042   66041   66043   66044   66045   66044   66046
   66047   66048   66047   66049   66050   66051   66050   66052
   66053   66054   66053   66055   66056   66057   66056   66058
   66059   66060   66059   66061   66062   66063   66062   66064
   66065   66066   66065   66067   66068   66069   66068   66070
   66071   66072   66071   66073   66074   66075   66074   66076
   66077   66078   66077   66079   66080   66081   66080   66082
   66083   66084   66083   66085   66086   66087   66086   66088
   66089   66090   66089   66091   66092   66093   66092   66094
   66095   66096   66095   66097   66098   66099   66098   66100
   66101   66102   66101   66103   66104   66105   66104   66106
   66107   66108   66107   66109   66110   66111   66110   66112
   66113   66114   66113   66115   66116   66117   66116   66118
   66119   66120   66119   66121   66122   66123   66122   66124
   66125   66126   66125   66127   66128   66129   66128   66130
   66131   66132   66131   66133   66134   66135   66134   66136
   66137   66138   66137   66139   66140   66141   66140   66142
   66143   66144   66143   66145   66146   66147   66146   66148
   66149   66150   66149   66151   66152   66153   66152   66154
   66155   66156   66155   66157   66158   66159   66158   66160
   66161   66162   66161   66163   66164   66165   66164   66166
   66167   66168   66167   66169   66170   66171   66170   66172
   66173   66174   66173   66175   66176   66177   66176   66178
   66179   66180   66179   66181   66182   66183   66182   66184
   66185   66186   66185   66187   66188   66189   66188   66190
   66191   66192   66191   66193   66194   66195   66194   66196
   66197   66198   66197   66199   66200   66201   66200   66202
   66203   66204   66203   66205   66206   66207   66206   66208
   66209   66210   66209   66211   66212   66213   66212   66214
   66215   66216   66215   66217   66218   66219   66218   66220
   66221   66222   66221   66223   66224   66225   66224   66226
   66227   66228   66227   66229   66230   66231   66230   66232
   66233   66234   66233   66235   66236   66237   66236   66238
   66239   66240   66239   66241   66242   66243   66242   66244
   66245   66246   66245   66247   66248   66249   66248   66250
   66251   66252   66251   66253   66254   66255   66254   66256
   66257   66258   66257   66259   66260   66261   66260   66262
   66263   66264   66263   66265   66266   66267   66266   66268
   66269   66270   66269   66271   66272   66273   66272   66274
   66275   66276   66275   66277   66278   66279   66278   66280
   66281   66282   66281   66283   66284   66285   66284   66286
   66287   66288   66287   66289   66290   66291   66290   66292
   66293   66294   66293   66295   66296   66297   66296   66298
   66299   66300   66299   66301   66302   66303   66302   66304
   66305   66306   66305   66307   66308   66309   66308   66310
   66311   66312   66311   66313   66314   66315   66314   66316
   66317   66318   66317   66319   66320   66321   66320   66322
   66323   66324   66323   66325   66326   66327   66326   66328
   66329   66330   66329   66331   66332   66333   66332   66334
   66335   66336   66335   66337   66338   66339   66338   66340
   66341   66342   66341   66343   66344   66345   66344   66346
   66347   66348   66347   66349   66350   66351   66350   66352
   66353   66354   66353   66355   66356   66357   66356   66358
   66359   66360   66359   66361   66362   66363   66362   66364
   66365   66366   66365   66367   66368   66369   66368   66370
   66371   66372   66371   66373   66374   66375   66374   66376
   66377   66378   66377   66379   66380   66381   66380   66382
   66383   66384   66383   66385   66386   66387   66386   66388
   66389   66390   66389   66391   66392   66393   66392   66394
   66395   66396   66395   66397   66398   66399   66398   66400
   66401   66402   66401   66403   66404   66405   66404   66406
   66407   66408   66407   66409   66410   66411   66410   66412
   66413   66414   66413   66415   66416   66417   66416   66418
   66419   66420   66419   66421   66422   66423   66422   66424
   66425   66426   66425   66427   66428   66429   66428   66430
   66431   66432   66431   66433   66434   66435   66434   66436
   66437   66438   66437   66439   66440   66441   66440   66442
   66443   66444   66443   66445   66446   66447   66446   66448
   66449   66450   66449   66451   66452   66453   66452   66454
   66455   66456   66455   66457   66458   66459   66458   66460
   66461   66462   66461   66463   66464   66465   66464   66466
   66467   66468   66467   66469   66470   66471   66470   66472
   66473   66474   66473   66475   66476   66477   66476   66478
   66479   66480   66479   66481   66482   66483   66482   66484
   66485   66486   66485   66487   66488   66489   66488   66490
   66491   66492   66491   66493   66494   66495   66494   66496
   66497   66498   66497   66499   66500   66501   66500   66502
   66503   66504   66503   66505   66506   66507   66506   66508
   66509   66510   66509   66511   66512   66513   66512   66514
   66515   66516   66515   66517   66518   66519   66518   66520
   66521   66522   66521   66523   66524   66525   66524   66526
   66527   66528   66527   66529   66530   66531   66530   66532
   66533   66534   66533   66535   66536   66537   66536   66538
   66539   66540   66539   66541   66542   66543   66542   66544
   66545   66546   66545   66547   66548   66549   66548   66550
   66551   66552   66551   66553   66554   66555   66554   66556
   66557   66558   66557   66559   66560   66561   66560   66562
   66563   66564   66563   66565   66566   66567   66566   66568
   66569   66570   66569   66571   66572   66573   66572   66574
   66575   66576   66575   66577   66578   66579   66578   66580
   66581   66582   66581   66583   66584   66585   66584   66586
   66587   66588   66587   66589   66590   66591   66590   66592
   66593   66594   66593   66595   66596   66597   66596   66598
   66599   66600   66599   66601   66602   66603   66602   66604
   66605   66606   66605   66607   66608   66609   66608   66610
   66611   66612   66611   66613   66614   66615   66614   66616
   66617   66618   66617   66619   66620   66621   66620   66622
   66623   66624   66623   66625   66626   66627   66626   66628
   66629   66630   66629   66631   66632   66633   66632   66634
   66635   66636   66635   66637   66638   66639   66638   66640
   66641   66642   66641   66643   66644   66645   66644   66646
   66647   66648   66647   66649   66650   66651   66650   66652
   66653   66654   66653   66655   66656   66657   66656   66658
   66659   66660   66659   66661   66662   66663   66662   66664
   66665   66666   66665   66667   66668   66669   66668   66670
   66671   66672   66671   66673   66674   66675   66674   66676
   66677   66678   66677   66679   66680   66681   66680   66682
   66683   66684   66683   66685   66686   66687   66686   66688
   66689   66690   66689   66691   66692   66693   66692   66694
   66695   66696   66695   66697   66698   66699   66698   66700
   66701   66702   66701   66703   66704   66705   66704   66706
   66707   66708   66707   66709   66710   66711   66710   66712
   66713   66714   66713   66715   66716   66717   66716   66718
   66719   66720   66719   66721   66722   66723   66722   66724
   66725   66726   66725   66727   66728   66729   66728   66730
   66731   66732   66731   66733   66734   66735   66734   66736
   66737   66738   66737   66739   66740   66741   66740   66742
   66743   66744   66743   66745   66746   66747   66746   66748
   66749   66750   66749   66751   66752   66753   66752   66754
   66755   66756   66755   66757   66758   66759   66758   66760
   66761   66762   66761   66763   66764   66765   66764   66766
   66767   66768   66767   66769   66770   66771   66770   66772
   66773   66774   66773   66775   66776   66777   66776   66778
   66779   66780   66779   66781   66782   66783   66782   66784
   66785   66786   66785   66787   66788   66789   66788   66790
   66791   66792   66791   66793   66794   66795   66794   66796
   66797   66798   66797   66799   66800   66801   66800   66802
   66803   66804   66803   66805   66806   66807   66806   66808
   66809   66810   66809   66811   66812   66813   66812   66814
   66815   66816   66815   66817   66818   66819   66818   66820
   66821   66822   66821   66823   66824   66825   66824   66826
   66827   66828   66827   66829   66830   66831   66830   66832
   66833   66834   66833   66835   66836   66837   66836   66838
   66839   66840   66839   66841   66842   66843   66842   66844
   66845   66846   66845   66847   66848   66849   66848   66850
   66851   66852   66851   66853   66854   66855   66854   66856
   66857   66858   66857   66859   66860   66861   66860   66862
   66863   66864   66863   66865   66866   66867   66866   66868
   66869   66870   66869   66871   66872   66873   66872   66874
   66875   66876   66875   66877   66878   66879   66878   66880
   66881   66882   66881   66883   66884   66885   66884   66886
   66887   66888   66887   66889   66890   66891   66890   66892
   66893   66894   66893   66895   66896   66897   66896   66898
   66899   66900   66899   66901   66902   66903   66902   66904
   66905   66906   66905   66907   66908   66909   66908   66910
   66911   66912   66911   66913   66914   66915   66914   66916
   66917   66918   66917   66919   66920   66921   66920   66922
   66923   66924   66923   66925   66926   66927   66926   66928
   66929   66930   66929   66931   66932   66933   66932   66934
   66935   66936   66935   66937   66938   66939   66938   66940
   66941   66942   66941   66943   66944   66945   66944   66946
   66947   66948   66947   66949   66950   66951   66950   66952
   66953   66954   66953   66955   66956   66957   66956   66958
   66959   66960   66959   66961   66962   66963   66962   66964
   66965   66966   66965   66967   66968   66969   66968   66970
   66971   66972   66971   66973   66974   66975   66974   66976
   66977   66978   66977   66979   66980   66981   66980   66982
   66983   66984   66983   66985   66986   66987   66986   66988
   66989   66990   66989   66991   66992   66993   66992   66994
   66995   66996   66995   66997   66998   66999   66998   67000
   67001   67002   67001   67003   67004   67005   67004   67006
   67007   67008   67007   67009   67010   67011   67010   67012
   67013   67014   67013   67015   67016   67017   67016   67018
   67019   67020   67019   67021   67022   67023   67022   67024
   67025   67026   67025   67027   67028   67029   67028   67030
   67031   67032   67031   67033   67034   67035   67034   67036
   67037   67038   67037   67039   67040   67041   67040   67042
   67043   67044   67043   67045   67046   67047   67046   67048
   67049   67050   67049   67051   67052   67053   67052   67054
   67055   67056   67055   67057   67058   67059   67058   67060
   67061   67062   67061   67063   67064   67065   67064   67066
   67067   67068   67067   67069   67070   67071   67070   67072
   67073   67074   67073   67075   67076   67077   67076   67078
   67079   67080   67079   67081   67082   67083   67082   67084
   67085   67086   67085   67087   67088   67089   67088   67090
   67091   67092   67091   67093   67094   67095   67094   67096
   67097   67098   67097   67099   67100   67101   67100   67102
   67103   67104   67103   67105   67106   67107   67106   67108
   67109   67110   67109   67111   67112   67113   67112   67114
   67115   67116   67115   67117   67118   67119   67118   67120
   67121   67122   67121   67123   67124   67125   67124   67126
   67127   67128   67127   67129   67130   67131   67130   67132
   67133   67134   67133   67135   67136   67137   67136   67138
   67139   67140   67139   67141   67142   67143   67142   67144
   67145   67146   67145   67147   67148   67149   67148   67150
   67151   67152   67151   67153   67154   67155   67154   67156
   67157   67158   67157   67159   67160   67161   67160   67162
   67163   67164   67163   67165   67166   67167   67166   67168
   67169   67170   67169   67171   67172   67173   67172   67174
   67175   67176   67175   67177   67178   67179   67178   67180
   67181   67182   67181   67183   67184   67185   67184   67186
   67187   67188   67187   67189   67190   67191   67190   67192
   67193   67194   67193   67195   67196   67197   67196   67198
   67199   67200   67199   67201   67202   67203   67202   67204
   67205   67206   67205   67207   67208   67209   67208   67210
   67211   67212   67211   67213   67214   67215   67214   67216
   67217   67218   67217   67219   67220   67221   67220   67222
   67223   67224   67223   67225   67226   67227   67226   67228
   67229   67230   67229   67231   67232   67233   67232   67234
   67235   67236   67235   67237   67238   67239   67238   67240
   67241   67242   67241   67243   67244   67245   67244   67246
   67247   67248   67247   67249   67250   67251   67250   67252
   67253   67254   67253   67255   67256   67257   67256   67258
   67259   67260   67259   67261   67262   67263   67262   67264
   67265   67266   67265   67267   67268   67269   67268   67270
   67271   67272   67271   67273   67274   67275   67274   67276
   67277   67278   67277   67279   67280   67281   67280   67282
   67283   67284   67283   67285   67286   67287   67286   67288
   67289   67290   67289   67291   67292   67293   67292   67294
   67295   67296   67295   67297   67298   67299   67298   67300
   67301   67302   67301   67303   67304   67305   67304   67306
   67307   67308   67307   67309   67310   67311   67310   67312
   67313   67314   67313   67315   67316   67317   67316   67318
   67319   67320   67319   67321   67322   67323   67322   67324
   67325   67326   67325   67327   67328   67329   67328   67330
   67331   67332   67331   67333   67334   67335   67334   67336
   67337   67338   67337   67339   67340   67341   67340   67342
   67343   67344   67343   67345   67346   67347   67346   67348
   67349   67350   67349   67351   67352   67353   67352   67354
   67355   67356   67355   67357   67358   67359   67358   67360
   67361   67362   67361   67363   67364   67365   67364   67366
   67367   67368   67367   67369   67370   67371   67370   67372
   67373   67374   67373   67375   67376   67377   67376   67378
   67379   67380   67379   67381   67382   67383   67382   67384
   67385   67386   67385   67387   67388   67389   67388   67390
   67391   67392   67391   67393   67394   67395   67394   67396
   67397   67398   67397   67399   67400   67401   67400   67402
   67403   67404   67403   67405   67406   67407   67406   67408
   67409   67410   67409   67411   67412   67413   67412   67414
   67415   67416   67415   67417   67418   67419   67418   67420
   67421   67422   67421   67423   67424   67425   67424   67426
   67427   67428   67427   67429   67430   67431   67430   67432
   67433   67434   67433   67435   67436   67437   67436   67438
   67439   67440   67439   67441   67442   67443   67442   67444
   67445   67446   67445   67447   67448   67449   67448   67450
   67451   67452   67451   67453   67454   67455   67454   67456
   67457   67458   67457   67459   67460   67461   67460   67462
   67463   67464   67463   67465   67466   67467   67466   67468
   67469   67470   67469   67471   67472   67473   67472   67474
   67475   67476   67475   67477   67478   67479   67478   67480
   67481   67482   67481   67483   67484   67485   67484   67486
   67487   67488   67487   67489   67490   67491   67490   67492
   67493   67494   67493   67495   67496   67497   67496   67498
   67499   67500   67499   67501   67502   67503   67502   67504
   67505   67506   67505   67507   67508   67509   67508   67510
   67511   67512   67511   67513   67514   67515   67514   67516
   67517   67518   67517   67519   67520   67521   67520   67522
   67523   67524   67523   67525   67526   67527   67526   67528
   67529   67530   67529   67531   67532   67533   67532   67534
   67535   67536   67535   67537   67538   67539   67538   67540
   67541   67542   67541   67543   67544   67545   67544   67546
   67547   67548   67547   67549   67550   67551   67550   67552
   67553   67554   67553   67555   67556   67557   67556   67558
   67559   67560   67559   67561   67562   67563   67562   67564
   67565   67566   67565   67567   67568   67569   67568   67570
   67571   67572   67571   67573   67574   67575   67574   67576
   67577   67578   67577   67579   67580   67581   67580   67582
   67583   67584   67583   67585   67586   67587   67586   67588
   67589   67590   67589   67591   67592   67593   67592   67594
   67595   67596   67595   67597   67598   67599   67598   67600
   67601   67602   67601   67603   67604   67605   67604   67606
   67607   67608   67607   67609   67610   67611   67610   67612
   67613   67614   67613   67615   67616   67617   67616   67618
   67619   67620   67619   67621   67622   67623   67622   67624
   67625   67626   67625   67627   67628   67629   67628   67630
   67631   67632   67631   67633   67634   67635   67634   67636
   67637   67638   67637   67639   67640   67641   67640   67642
   67643   67644   67643   67645   67646   67647   67646   67648
   67649   67650   67649   67651   67652   67653   67652   67654
   67655   67656   67655   67657   67658   67659   67658   67660
   67661   67662   67661   67663   67664   67665   67664   67666
   67667   67668   67667   67669   67670   67671   67670   67672
   67673   67674   67673   67675   67676   67677   67676   67678
   67679   67680   67679   67681   67682   67683   67682   67684
   67685   67686   67685   67687   67688   67689   67688   67690
   67691   67692   67691   67693   67694   67695   67694   67696
   67697   67698   67697   67699   67700   67701   67700   67702
   67703   67704   67703   67705   67706   67707   67706   67708
   67709   67710   67709   67711   67712   67713   67712   67714
   67715   67716   67715   67717   67718   67719   67718   67720
   67721   67722   67721   67723   67724   67725   67724   67726
   67727   67728   67727   67729   67730   67731   67730   67732
   67733   67734   67733   67735   67736   67737   67736   67738
   67739   67740   67739   67741   67742   67743   67742   67744
   67745   67746   67745   67747   67748   67749   67748   67750
   67751   67752   67751   67753   67754   67755   67754   67756
   67757   67758   67757   67759   67760   67761   67760   67762
   67763   67764   67763   67765   67766   67767   67766   67768
   67769   67770   67769   67771   67772   67773   67772   67774
   67775   67776   67775   67777   67778   67779   67778   67780
   67781   67782   67781   67783   67784   67785   67784   67786
   67787   67788   67787   67789   67790   67791   67790   67792
   67793   67794   67793   67795   67796   67797   67796   67798
   67799   67800   67799   67801   67802   67803   67802   67804
   67805   67806   67805   67807   67808   67809   67808   67810
   67811   67812   67811   67813   67814   67815   67814   67816
   67817   67818   67817   67819   67820   67821   67820   67822
   67823   67824   67823   67825   67826   67827   67826   67828
   67829   67830   67829   67831   67832   67833   67832   67834
   67835   67836   67835   67837   67838   67839   67838   67840
   67841   67842   67841   67843   67844   67845   67844   67846
   67847   67848   67847   67849   67850   67851   67850   67852
   67853   67854   67853   67855   67856   67857   67856   67858
   67859   67860   67859   67861   67862   67863   67862   67864
   67865   67866   67865   67867   67868   67869   67868   67870
   67871   67872   67871   67873   67874   67875   67874   67876
   67877   67878   67877   67879   67880   67881   67880   67882
   67883   67884   67883   67885   67886   67887   67886   67888
   67889   67890   67889   67891   67892   67893   67892   67894
   67895   67896   67895   67897   67898   67899   67898   67900
   67901   67902   67901   67903   67904   67905   67904   67906
   67907   67908   67907   67909   67910   67911   67910   67912
   67913   67914   67913   67915   67916   67917   67916   67918
   67919   67920   67919   67921   67922   67923   67922   67924
   67925   67926   67925   67927   67928   67929   67928   67930
   67931   67932   67931   67933   67934   67935   67934   67936
   67937   67938   67937   67939   67940   67941   67940   67942
   67943   67944   67943   67945   67946   67947   67946   67948
   67949   67950   67949   67951   67952   67953   67952   67954
   67955   67956   67955   67957   67958   67959   67958   67960
   67961   67962   67961   67963   67964   67965   67964   67966
   67967   67968   67967   67969   67970   67971   67970   67972
   67973   67974   67973   67975   67976   67977   67976   67978
   67979   67980   67979   67981   67982   67983   67982   67984
   67985   67986   67985   67987   67988   67989   67988   67990
   67991   67992   67991   67993   67994   67995   67994   67996
   67997   67998   67997   67999   68000   68001   68000   68002
   68003   68004   68003   68005   68006   68007   68006   68008
   68009   68010   68009   68011   68012   68013   68012   68014
   68015   68016   68015   68017   68018   68019   68018   68020
   68021   68022   68021   68023   68024   68025   68024   68026
   68027   68028   68027   68029   68030   68031   68030   68032
   68033   68034   68033   68035   68036   68037   68036   68038
   68039   68040   68039   68041   68042   68043   68042   68044
   68045   68046   68045   68047   68048   68049   68048   68050
   68051   68052   68051   68053   68054   68055   68054   68056
   68057   68058   68057   68059   68060   68061   68060   68062
   68063   68064   68063   68065   68066   68067   68066   68068
   68069   68070   68069   68071   68072   68073   68072   68074
   68075   68076   68075   68077   68078   68079   68078   68080
   68081   68082   68081   68083   68084   68085   68084   68086
   68087   68088   68087   68089   68090   68091   68090   68092
   68093   68094   68093   68095   68096   68097   68096   68098
   68099   68100   68099   68101   68102   68103   68102   68104
   68105   68106   68105   68107   68108   68109   68108   68110
   68111   68112   68111   68113   68114   68115   68114   68116
   68117   68118   68117   68119   68120   68121   68120   68122
   68123   68124   68123   68125   68126   68127   68126   68128
   68129   68130   68129   68131   68132   68133   68132   68134
   68135   68136   68135   68137   68138   68139   68138   68140
   68141   68142   68141   68143   68144   68145   68144   68146
   68147   68148   68147   68149   68150   68151   68150   68152
   68153   68154   68153   68155   68156   68157   68156   68158
   68159   68160   68159   68161   68162   68163   68162   68164
   68165   68166   68165   68167   68168   68169   68168   68170
   68171   68172   68171   68173   68174   68175   68174   68176
   68177   68178   68177   68179   68180   68181   68180   68182
   68183   68184   68183   68185   68186   68187   68186   68188
   68189   68190   68189   68191   68192   68193   68192   68194
   68195   68196   68195   68197   68198   68199   68198   68200
   68201   68202   68201   68203   68204   68205   68204   68206
   68207   68208   68207   68209   68210   68211   68210   68212
   68213   68214   68213   68215   68216   68217   68216   68218
   68219   68220   68219   68221   68222   68223   68222   68224
   68225   68226   68225   68227   68228   68229   68228   68230
   68231   68232   68231   68233   68234   68235   68234   68236
   68237   68238   68237   68239   68240   68241   68240   68242
   68243   68244   68243   68245   68246   68247   68246   68248
   68249   68250   68249   68251   68252   68253   68252   68254
   68255   68256   68255   68257   68258   68259   68258   68260
   68261   68262   68261   68263   68264   68265   68264   68266
   68267   68268   68267   68269   68270   68271   68270   68272
   68273   68274   68273   68275   68276   68277   68276   68278
   68279   68280   68279   68281   68282   68283   68282   68284
   68285   68286   68285   68287   68288   68289   68288   68290
   68291   68292   68291   68293   68294   68295   68294   68296
   68297   68298   68297   68299   68300   68301   68300   68302
   68303   68304   68303   68305   68306   68307   68306   68308
   68309   68310   68309   68311   68312   68313   68312   68314
   68315   68316   68315   68317   68318   68319   68318   68320
   68321   68322   68321   68323   68324   68325   68324   68326
   68327   68328   68327   68329   68330   68331   68330   68332
   68333   68334   68333   68335   68336   68337   68336   68338
   68339   68340   68339   68341   68342   68343   68342   68344
   68345   68346   68345   68347   68348   68349   68348   68350
   68351   68352   68351   68353   68354   68355   68354   68356
   68357   68358   68357   68359   68360   68361   68360   68362
   68363   68364   68363   68365   68366   68367   68366   68368
   68369   68370   68369   68371   68372   68373   68372   68374
   68375   68376   68375   68377   68378   68379   68378   68380
   68381   68382   68381   68383   68384   68385   68384   68386
   68387   68388   68387   68389   68390   68391   68390   68392
   68393   68394   68393   68395   68396   68397   68396   68398
   68399   68400   68399   68401   68402   68403   68402   68404
   68405   68406   68405   68407   68408   68409   68408   68410
   68411   68412   68411   68413   68414   68415   68414   68416
   68417   68418   68417   68419   68420   68421   68420   68422
   68423   68424   68423   68425   68426   68427   68426   68428
   68429   68430   68429   68431   68432   68433   68432   68434
   68435   68436   68435   68437   68438   68439   68438   68440
   68441   68442   68441   68443   68444   68445   68444   68446
   68447   68448   68447   68449   68450   68451   68450   68452
   68453   68454   68453   68455   68456   68457   68456   68458
   68459   68460   68459   68461   68462   68463   68462   68464
   68465   68466   68465   68467   68468   68469   68468   68470
   68471   68472   68471   68473   68474   68475   68474   68476
   68477   68478   68477   68479   68480   68481   68480   68482
   68483   68484   68483   68485   68486   68487   68486   68488
   68489   68490   68489   68491   68492   68493   68492   68494
   68495   68496   68495   68497   68498   68499   68498   68500
   68501   68502   68501   68503   68504   68505   68504   68506
   68507   68508   68507   68509   68510   68511   68510   68512
   68513   68514   68513   68515   68516   68517   68516   68518
   68519   68520   68519   68521   68522   68523   68522   68524
   68525   68526   68525   68527   68528   68529   68528   68530
   68531   68532   68531   68533   68534   68535   68534   68536
   68537   68538   68537   68539   68540   68541   68540   68542
   68543   68544   68543   68545   68546   68547   68546   68548
   68549   68550   68549   68551   68552   68553   68552   68554
   68555   68556   68555   68557   68558   68559   68558   68560
   68561   68562   68561   68563   68564   68565   68564   68566
   68567   68568   68567   68569   68570   68571   68570   68572
   68573   68574   68573   68575   68576   68577   68576   68578
   68579   68580   68579   68581   68582   68583   68582   68584
   68585   68586   68585   68587   68588   68589   68588   68590
   68591   68592   68591   68593   68594   68595   68594   68596
   68597   68598   68597   68599   68600   68601   68600   68602
   68603   68604   68603   68605   68606   68607   68606   68608
   68609   68610   68609   68611   68612   68613   68612   68614
   68615   68616   68615   68617   68618   68619   68618   68620
   68621   68622   68621   68623   68624   68625   68624   68626
   68627   68628   68627   68629   68630   68631   68630   68632
   68633   68634   68633   68635   68636   68637   68636   68638
   68639   68640   68639   68641   68642   68643   68642   68644
   68645   68646   68645   68647   68648   68649   68648   68650
   68651   68652   68651   68653   68654   68655   68654   68656
   68657   68658   68657   68659   68660   68661   68660   68662
   68663   68664   68663   68665   68666   68667   68666   68668
   68669   68670   68669   68671   68672   68673   68672   68674
   68675   68676   68675   68677   68678   68679   68678   68680
   68681   68682   68681   68683   68684   68685   68684   68686
   68687   68688   68687   68689   68690   68691   68690   68692
   68693   68694   68693   68695   68696   68697   68696   68698
   68699   68700   68699   68701   68702   68703   68702   68704
   68705   68706   68705   68707   68708   68709   68708   68710
   68711   68712   68711   68713   68714   68715   68714   68716
   68717   68718   68717   68719   68720   68721   68720   68722
   68723   68724   68723   68725   68726   68727   68726   68728
   68729   68730   68729   68731   68732   68733   68732   68734
   68735   68736   68735   68737   68738   68739   68738   68740
   68741   68742   68741   68743   68744   68745   68744   68746
   68747   68748   68747   68749   68750   68751   68750   68752
   68753   68754   68753   68755   68756   68757   68756   68758
   68759   68760   68759   68761   68762   68763   68762   68764
   68765   68766   68765   68767   68768   68769   68768   68770
   68771   68772   68771   68773   68774   68775   68774   68776
   68777   68778   68777   68779   68780   68781   68780   68782
   68783   68784   68783   68785   68786   68787   68786   68788
   68789   68790   68789   68791   68792   68793   68792   68794
   68795   68796   68795   68797   68798   68799   68798   68800
   68801   68802   68801   68803   68804   68805   68804   68806
   68807   68808   68807   68809   68810   68811   68810   68812
   68813   68814   68813   68815   68816   68817   68816   68818
   68819   68820   68819   68821   68822   68823   68822   68824
   68825   68826   68825   68827   68828   68829   68828   68830
   68831   68832   68831   68833   68834   68835   68834   68836
   68837   68838   68837   68839   68840   68841   68840   68842
   68843   68844   68843   68845   68846   68847   68846   68848
   68849   68850   68849   68851   68852   68853   68852   68854
   68855   68856   68855   68857   68858   68859   68858   68860
   68861   68862   68861   68863   68864   68865   68864   68866
   68867   68868   68867   68869   68870   68871   68870   68872
   68873   68874   68873   68875   68876   68877   68876   68878
   68879   68880   68879   68881   68882   68883   68882   68884
   68885   68886   68885   68887   68888   68889   68888   68890
   68891   68892   68891   68893   68894   68895   68894   68896
   68897   68898   68897   68899   68900   68901   68900   68902
   68903   68904   68903   68905   68906   68907   68906   68908
   68909   68910   68909   68911   68912   68913   68912   68914
   68915   68916   68915   68917   68918   68919   68918   68920
   68921   68922   68921   68923   68924   68925   68924   68926
   68927   68928   68927   68929   68930   68931   68930   68932
   68933   68934   68933   68935   68936   68937   68936   68938
   68939   68940   68939   68941   68942   68943   68942   68944
   68945   68946   68945   68947   68948   68949   68948   68950
   68951   68952   68951   68953   68954   68955   68954   68956
   68957   68958   68957   68959   68960   68961   68960   68962
   68963   68964   68963   68965   68966   68967   68966   68968
   68969   68970   68969   68971   68972   68973   68972   68974
   68975   68976   68975   68977   68978   68979   68978   68980
   68981   68982   68981   68983   68984   68985   68984   68986
   68987   68988   68987   68989   68990   68991   68990   68992
   68993   68994   68993   68995   68996   68997   68996   68998
   68999   69000   68999   69001   69002   69003   69002   69004
   69005   69006   69005   69007   69008   69009   69008   69010
   69011   69012   69011   69013   69014   69015   69014   69016
   69017   69018   69017   69019   69020   69021   69020   69022
   69023   69024   69023   69025   69026   69027   69026   69028
   69029   69030   69029   69031   69032   69033   69032   69034
   69035   69036   69035   69037   69038   69039   69038   69040
   69041   69042   69041   69043   69044   69045   69044   69046
   69047   69048   69047   69049   69050   69051   69050   69052
   69053   69054   69053   69055   69056   69057   69056   69058
   69059   69060   69059   69061   69062   69063   69062   69064
   69065   69066   69065   69067   69068   69069   69068   69070
   69071   69072   69071   69073   69074   69075   69074   69076
   69077   69078   69077   69079   69080   69081   69080   69082
   69083   69084   69083   69085   69086   69087   69086   69088
   69089   69090   69089   69091   69092   69093   69092   69094
   69095   69096   69095   69097   69098   69099   69098   69100
   69101   69102   69101   69103   69104   69105   69104   69106
   69107   69108   69107   69109   69110   69111   69110   69112
   69113   69114   69113   69115   69116   69117   69116   69118
   69119   69120   69119   69121   69122   69123   69122   69124
   69125   69126   69125   69127   69128   69129   69128   69130
   69131   69132   69131   69133   69134   69135   69134   69136
   69137   69138   69137   69139   69140   69141   69140   69142
   69143   69144   69143   69145   69146   69147   69146   69148
   69149   69150   69149   69151   69152   69153   69152   69154
   69155   69156   69155   69157   69158   69159   69158   69160
   69161   69162   69161   69163   69164   69165   69164   69166
   69167   69168   69167   69169   69170   69171   69170   69172
   69173   69174   69173   69175   69176   69177   69176   69178
   69179   69180   69179   69181   69182   69183   69182   69184
   69185   69186   69185   69187   69188   69189   69188   69190
   69191   69192   69191   69193   69194   69195   69194   69196
   69197   69198   69197   69199   69200   69201   69200   69202
   69203   69204   69203   69205   69206   69207   69206   69208
   69209   69210   69209   69211   69212   69213   69212   69214
   69215   69216   69215   69217   69218   69219   69218   69220
   69221   69222   69221   69223   69224   69225   69224   69226
   69227   69228   69227   69229   69230   69231   69230   69232
   69233   69234   69233   69235   69236   69237   69236   69238
   69239   69240   69239   69241   69242   69243   69242   69244
   69245   69246   69245   69247   69248   69249   69248   69250
   69251   69252   69251   69253   69254   69255   69254   69256
   69257   69258   69257   69259   69260   69261   69260   69262
   69263   69264   69263   69265   69266   69267   69266   69268
   69269   69270   69269   69271   69272   69273   69272   69274
   69275   69276   69275   69277   69278   69279   69278   69280
   69281   69282   69281   69283   69284   69285   69284   69286
   69287   69288   69287   69289   69290   69291   69290   69292
   69293   69294   69293   69295   69296   69297   69296   69298
   69299   69300   69299   69301   69302   69303   69302   69304
   69305   69306   69305   69307   69308   69309   69308   69310
   69311   69312   69311   69313   69314   69315   69314   69316
   69317   69318   69317   69319   69320   69321   69320   69322
   69323   69324   69323   69325   69326   69327   69326   69328
   69329   69330   69329   69331   69332   69333   69332   69334
   69335   69336   69335   69337   69338   69339   69338   69340
   69341   69342   69341   69343   69344   69345   69344   69346
   69347   69348   69347   69349   69350   69351   69350   69352
   69353   69354   69353   69355   69356   69357   69356   69358
   69359   69360   69359   69361   69362   69363   69362   69364
   69365   69366   69365   69367   69368   69369   69368   69370
   69371   69372   69371   69373   69374   69375   69374   69376
   69377   69378   69377   69379   69380   69381   69380   69382
   69383   69384   69383   69385   69386   69387   69386   69388
   69389   69390   69389   69391   69392   69393   69392   69394
   69395   69396   69395   69397   69398   69399   69398   69400
   69401   69402   69401   69403   69404   69405   69404   69406
   69407   69408   69407   69409   69410   69411   69410   69412
   69413   69414   69413   69415   69416   69417   69416   69418
   69419   69420   69419   69421   69422   69423   69422   69424
   69425   69426   69425   69427   69428   69429   69428   69430
   69431   69432   69431   69433   69434   69435   69434   69436
   69437   69438   69437   69439   69440   69441   69440   69442
   69443   69444   69443   69445   69446   69447   69446   69448
   69449   69450   69449   69451   69452   69453   69452   69454
   69455   69456   69455   69457   69458   69459   69458   69460
   69461   69462   69461   69463   69464   69465   69464   69466
   69467   69468   69467   69469   69470   69471   69470   69472
   69473   69474   69473   69475   69476   69477   69476   69478
   69479   69480   69479   69481   69482   69483   69482   69484
   69485   69486   69485   69487   69488   69489   69488   69490
   69491   69492   69491   69493   69494   69495   69494   69496
   69497   69498   69497   69499   69500   69501   69500   69502
   69503   69504   69503   69505   69506   69507   69506   69508
   69509   69510   69509   69511   69512   69513   69512   69514
   69515   69516   69515   69517   69518   69519   69518   69520
   69521   69522   69521   69523   69524   69525   69524   69526
   69527   69528   69527   69529   69530   69531   69530   69532
   69533   69534   69533   69535   69536   69537   69536   69538
   69539   69540   69539   69541   69542   69543   69542   69544
   69545   69546   69545   69547   69548   69549   69548   69550
   69551   69552   69551   69553   69554   69555   69554   69556
   69557   69558   69557   69559   69560   69561   69560   69562
   69563   69564   69563   69565   69566   69567   69566   69568
   69569   69570   69569   69571   69572   69573   69572   69574
   69575   69576   69575   69577   69578   69579   69578   69580
   69581   69582   69581   69583   69584   69585   69584   69586
   69587   69588   69587   69589   69590   69591   69590   69592
   69593   69594   69593   69595   69596   69597   69596   69598
   69599   69600   69599   69601   69602   69603   69602   69604
   69605   69606   69605   69607   69608   69609   69608   69610
   69611   69612   69611   69613   69614   69615   69614   69616
   69617   69618   69617   69619   69620   69621   69620   69622
   69623   69624   69623   69625   69626   69627   69626   69628
   69629   69630   69629   69631   69632   69633   69632   69634
   69635   69636   69635   69637   69638   69639   69638   69640
   69641   69642   69641   69643   69644   69645   69644   69646
   69647   69648   69647   69649   69650   69651   69650   69652
   69653   69654   69653   69655   69656   69657   69656   69658
   69659   69660   69659   69661   69662   69663   69662   69664
   69665   69666   69665   69667   69668   69669   69668   69670
   69671   69672   69671   69673   69674   69675   69674   69676
   69677   69678   69677   69679   69680   69681   69680   69682
   69683   69684   69683   69685   69686   69687   69686   69688
   69689   69690   69689   69691   69692   69693   69692   69694
   69695   69696   69695   69697   69698   69699   69698   69700
   69701   69702   69701   69703   69704   69705   69704   69706
   69707   69708   69707   69709   69710   69711   69710   69712
   69713   69714   69713   69715   69716   69717   69716   69718
   69719   69720   69719   69721   69722   69723   69722   69724
   69725   69726   69725   69727   69728   69729   69728   69730
   69731   69732   69731   69733   69734   69735   69734   69736
   69737   69738   69737   69739   69740   69741   69740   69742
   69743   69744   69743   69745   69746   69747   69746   69748
   69749   69750   69749   69751   69752   69753   69752   69754
   69755   69756   69755   69757   69758   69759   69758   69760
   69761   69762   69761   69763   69764   69765   69764   69766
   69767   69768   69767   69769   69770   69771   69770   69772
   69773   69774   69773   69775   69776   69777   69776   69778
   69779   69780   69779   69781   69782   69783   69782   69784
   69785   69786   69785   69787   69788   69789   69788   69790
   69791   69792   69791   69793   69794   69795   69794   69796
   69797   69798   69797   69799   69800   69801   69800   69802
   69803   69804   69803   69805   69806   69807   69806   69808
   69809   69810   69809   69811   69812   69813   69812   69814
   69815   69816   69815   69817   69818   69819   69818   69820
   69821   69822   69821   69823   69824   69825   69824   69826
   69827   69828   69827   69829   69830   69831   69830   69832
   69833   69834   69833   69835   69836   69837   69836   69838
   69839   69840   69839   69841   69842   69843   69842   69844
   69845   69846   69845   69847   69848   69849   69848   69850
   69851   69852   69851   69853   69854   69855   69854   69856
   69857   69858   69857   69859   69860   69861   69860   69862
   69863   69864   69863   69865   69866   69867   69866   69868
   69869   69870   69869   69871   69872   69873   69872   69874
   69875   69876   69875   69877   69878   69879   69878   69880
   69881   69882   69881   69883   69884   69885   69884   69886
   69887   69888   69887   69889   69890   69891   69890   69892
   69893   69894   69893   69895   69896   69897   69896   69898
   69899   69900   69899   69901   69902   69903   69902   69904
   69905   69906   69905   69907   69908   69909   69908   69910
   69911   69912   69911   69913   69914   69915   69914   69916
   69917   69918   69917   69919   69920   69921   69920   69922
   69923   69924   69923   69925   69926   69927   69926   69928
   69929   69930   69929   69931   69932   69933   69932   69934
   69935   69936   69935   69937   69938   69939   69938   69940
   69941   69942   69941   69943   69944   69945   69944   69946
   69947   69948   69947   69949   69950   69951   69950   69952
   69953   69954   69953   69955   69956   69957   69956   69958
   69959   69960   69959   69961   69962   69963   69962   69964
   69965   69966   69965   69967   69968   69969   69968   69970
   69971   69972   69971   69973   69974   69975   69974   69976
   69977   69978   69977   69979   69980   69981   69980   69982
   69983   69984   69983   69985   69986   69987   69986   69988
   69989   69990   69989   69991   69992   69993   69992   69994
   69995   69996   69995   69997   69998   69999   69998   70000
   70001   70002   70001   70003   70004   70005   70004   70006
   70007   70008   70007   70009   70010   70011   70010   70012
   70013   70014   70013   70015   70016   70017   70016   70018
   70019   70020   70019   70021   70022   70023   70022   70024
   70025   70026   70025   70027   70028   70029   70028   70030
   70031   70032   70031   70033   70034   70035   70034   70036
   70037   70038   70037   70039   70040   70041   70040   70042
   70043   70044   70043   70045   70046   70047   70046   70048
   70049   70050   70049   70051   70052   70053   70052   70054
   70055   70056   70055   70057   70058   70059   70058   70060
   70061   70062   70061   70063   70064   70065   70064   70066
   70067   70068   70067   70069   70070   70071   70070   70072
   70073   70074   70073   70075   70076   70077   70076   70078
   70079   70080   70079   70081   70082   70083   70082   70084
   70085   70086   70085   70087   70088   70089   70088   70090
   70091   70092   70091   70093   70094   70095   70094   70096
   70097   70098   70097   70099   70100   70101   70100   70102
   70103   70104   70103   70105   70106   70107   70106   70108
   70109   70110   70109   70111   70112   70113   70112   70114
   70115   70116   70115   70117   70118   70119   70118   70120
   70121   70122   70121   70123   70124   70125   70124   70126
   70127   70128   70127   70129   70130   70131   70130   70132
   70133   70134   70133   70135   70136   70137   70136   70138
   70139   70140   70139   70141   70142   70143   70142   70144
   70145   70146   70145   70147   70148   70149   70148   70150
   70151   70152   70151   70153   70154   70155   70154   70156
   70157   70158   70157   70159   70160   70161   70160   70162
   70163   70164   70163   70165   70166   70167   70166   70168
   70169   70170   70169   70171   70172   70173   70172   70174
   70175   70176   70175   70177   70178   70179   70178   70180
   70181   70182   70181   70183   70184   70185   70184   70186
   70187   70188   70187   70189   70190   70191   70190   70192
   70193   70194   70193   70195   70196   70197   70196   70198
   70199   70200   70199   70201   70202   70203   70202   70204
   70205   70206   70205   70207   70208   70209   70208   70210
   70211   70212   70211   70213   70214   70215   70214   70216
   70217   70218   70217   70219   70220   70221   70220   70222
   70223   70224   70223   70225   70226   70227   70226   70228
   70229   70230   70229   70231   70232   70233   70232   70234
   70235   70236   70235   70237   70238   70239   70238   70240
   70241   70242   70241   70243   70244   70245   70244   70246
   70247   70248   70247   70249   70250   70251   70250   70252
   70253   70254   70253   70255   70256   70257   70256   70258
   70259   70260   70259   70261   70262   70263   70262   70264
   70265   70266   70265   70267   70268   70269   70268   70270
   70271   70272   70271   70273   70274   70275   70274   70276
   70277   70278   70277   70279   70280   70281   70280   70282
   70283   70284   70283   70285   70286   70287   70286   70288
   70289   70290   70289   70291   70292   70293   70292   70294
   70295   70296   70295   70297   70298   70299   70298   70300
   70301   70302   70301   70303   70304   70305   70304   70306
   70307   70308   70307   70309   70310   70311   70310   70312
   70313   70314   70313   70315   70316   70317   70316   70318
   70319   70320   70319   70321   70322   70323   70322   70324
   70325   70326   70325   70327   70328   70329   70328   70330
   70331   70332   70331   70333   70334   70335   70334   70336
   70337   70338   70337   70339   70340   70341   70340   70342
   70343   70344   70343   70345   70346   70347   70346   70348
   70349   70350   70349   70351   70352   70353   70352   70354
   70355   70356   70355   70357   70358   70359   70358   70360
   70361   70362   70361   70363   70364   70365   70364   70366
   70367   70368   70367   70369   70370   70371   70370   70372
   70373   70374   70373   70375   70376   70377   70376   70378
   70379   70380   70379   70381   70382   70383   70382   70384
   70385   70386   70385   70387   70388   70389   70388   70390
   70391   70392   70391   70393   70394   70395   70394   70396
   70397   70398   70397   70399   70400   70401   70400   70402
   70403   70404   70403   70405   70406   70407   70406   70408
   70409   70410   70409   70411   70412   70413   70412   70414
   70415   70416   70415   70417   70418   70419   70418   70420
   70421   70422   70421   70423   70424   70425   70424   70426
   70427   70428   70427   70429   70430   70431   70430   70432
   70433   70434   70433   70435   70436   70437   70436   70438
   70439   70440   70439   70441   70442   70443   70442   70444
   70445   70446   70445   70447   70448   70449   70448   70450
   70451   70452   70451   70453   70454   70455   70454   70456
   70457   70458   70457   70459   70460   70461   70460   70462
   70463   70464   70463   70465   70466   70467   70466   70468
   70469   70470   70469   70471   70472   70473   70472   70474
   70475   70476   70475   70477   70478   70479   70478   70480
   70481   70482   70481   70483   70484   70485   70484   70486
   70487   70488   70487   70489   70490   70491   70490   70492
   70493   70494   70493   70495   70496   70497   70496   70498
   70499   70500   70499   70501   70502   70503   70502   70504
   70505   70506   70505   70507   70508   70509   70508   70510
   70511   70512   70511   70513   70514   70515   70514   70516
   70517   70518   70517   70519   70520   70521   70520   70522
   70523   70524   70523   70525   70526   70527   70526   70528
   70529   70530   70529   70531   70532   70533   70532   70534
   70535   70536   70535   70537   70538   70539   70538   70540
   70541   70542   70541   70543   70544   70545   70544   70546
   70547   70548   70547   70549   70550   70551   70550   70552
   70553   70554   70553   70555   70556   70557   70556   70558
   70559   70560   70559   70561   70562   70563   70562   70564
   70565   70566   70565   70567   70568   70569   70568   70570
   70571   70572   70571   70573   70574   70575   70574   70576
   70577   70578   70577   70579   70580   70581   70580   70582
   70583   70584   70583   70585   70586   70587   70586   70588
   70589   70590   70589   70591   70592   70593   70592   70594
   70595   70596   70595   70597   70598   70599   70598   70600
   70601   70602   70601   70603   70604   70605   70604   70606
   70607   70608   70607   70609   70610   70611   70610   70612
   70613   70614   70613   70615   70616   70617   70616   70618
   70619   70620   70619   70621   70622   70623   70622   70624
   70625   70626   70625   70627   70628   70629   70628   70630
   70631   70632   70631   70633   70634   70635   70634   70636
   70637   70638   70637   70639   70640   70641   70640   70642
   70643   70644   70643   70645   70646   70647   70646   70648
   70649   70650   70649   70651   70652   70653   70652   70654
   70655   70656   70655   70657   70658   70659   70658   70660
   70661   70662   70661   70663   70664   70665   70664   70666
   70667   70668   70667   70669   70670   70671   70670   70672
   70673   70674   70673   70675   70676   70677   70676   70678
   70679   70680   70679   70681   70682   70683   70682   70684
   70685   70686   70685   70687   70688   70689   70688   70690
   70691   70692   70691   70693   70694   70695   70694   70696
   70697   70698   70697   70699   70700   70701   70700   70702
   70703   70704   70703   70705   70706   70707   70706   70708
   70709   70710   70709   70711   70712   70713   70712   70714
   70715   70716   70715   70717   70718   70719   70718   70720
   70721   70722   70721   70723   70724   70725   70724   70726
   70727   70728   70727   70729   70730   70731   70730   70732
   70733   70734   70733   70735   70736   70737   70736   70738
   70739   70740   70739   70741   70742   70743   70742   70744
   70745   70746   70745   70747   70748   70749   70748   70750
   70751   70752   70751   70753   70754   70755   70754   70756
   70757   70758   70757   70759   70760   70761   70760   70762
   70763   70764   70763   70765   70766   70767   70766   70768
   70769   70770   70769   70771   70772   70773   70772   70774
   70775   70776   70775   70777   70778   70779   70778   70780
   70781   70782   70781   70783   70784   70785   70784   70786
   70787   70788   70787   70789   70790   70791   70790   70792
   70793   70794   70793   70795   70796   70797   70796   70798
   70799   70800   70799   70801   70802   70803   70802   70804
   70805   70806   70805   70807   70808   70809   70808   70810
   70811   70812   70811   70813   70814   70815   70814   70816
   70817   70818   70817   70819   70820   70821   70820   70822
   70823   70824   70823   70825   70826   70827   70826   70828
   70829   70830   70829   70831   70832   70833   70832   70834
   70835   70836   70835   70837   70838   70839   70838   70840
   70841   70842   70841   70843   70844   70845   70844   70846
   70847   70848   70847   70849   70850   70851   70850   70852
   70853   70854   70853   70855   70856   70857   70856   70858
   70859   70860   70859   70861   70862   70863   70862   70864
   70865   70866   70865   70867   70868   70869   70868   70870
   70871   70872   70871   70873   70874   70875   70874   70876
   70877   70878   70877   70879   70880   70881   70880   70882
   70883   70884   70883   70885   70886   70887   70886   70888
   70889   70890   70889   70891   70892   70893   70892   70894
   70895   70896   70895   70897   70898   70899   70898   70900
   70901   70902   70901   70903   70904   70905   70904   70906
   70907   70908   70907   70909   70910   70911   70910   70912
   70913   70914   70913   70915   70916   70917   70916   70918
   70919   70920   70919   70921   70922   70923   70922   70924
   70925   70926   70925   70927   70928   70929   70928   70930
   70931   70932   70931   70933   70934   70935   70934   70936
   70937   70938   70937   70939   70940   70941   70940   70942
   70943   70944   70943   70945   70946   70947   70946   70948
   70949   70950   70949   70951   70952   70953   70952   70954
   70955   70956   70955   70957   70958   70959   70958   70960
   70961   70962   70961   70963   70964   70965   70964   70966
   70967   70968   70967   70969   70970   70971   70970   70972
   70973   70974   70973   70975   70976   70977   70976   70978
   70979   70980   70979   70981   70982   70983   70982   70984
   70985   70986   70985   70987   70988   70989   70988   70990
   70991   70992   70991   70993   70994   70995   70994   70996
   70997   70998   70997   70999   71000   71001   71000   71002
   71003   71004   71003   71005   71006   71007   71006   71008
   71009   71010   71009   71011   71012   71013   71012   71014
   71015   71016   71015   71017   71018   71019   71018   71020
   71021   71022   71021   71023   71024   71025   71024   71026
   71027   71028   71027   71029   71030   71031   71030   71032
   71033   71034   71033   71035   71036   71037   71036   71038
   71039   71040   71039   71041   71042   71043   71042   71044
   71045   71046   71045   71047   71048   71049   71048   71050
   71051   71052   71051   71053   71054   71055   71054   71056
   71057   71058   71057   71059   71060   71061   71060   71062
   71063   71064   71063   71065   71066   71067   71066   71068
   71069   71070   71069   71071   71072   71073   71072   71074
   71075   71076   71075   71077   71078   71079   71078   71080
   71081   71082   71081   71083   71084   71085   71084   71086
   71087   71088   71087   71089   71090   71091   71090   71092
   71093   71094   71093   71095   71096   71097   71096   71098
   71099   71100   71099   71101   71102   71103   71102   71104
   71105   71106   71105   71107   71108   71109   71108   71110
   71111   71112   71111   71113   71114   71115   71114   71116
   71117   71118   71117   71119   71120   71121   71120   71122
   71123   71124   71123   71125   71126   71127   71126   71128
   71129   71130   71129   71131   71132   71133   71132   71134
   71135   71136   71135   71137   71138   71139   71138   71140
   71141   71142   71141   71143   71144   71145   71144   71146
   71147   71148   71147   71149   71150   71151   71150   71152
   71153   71154   71153   71155   71156   71157   71156   71158
   71159   71160   71159   71161   71162   71163   71162   71164
   71165   71166   71165   71167   71168   71169   71168   71170
   71171   71172   71171   71173   71174   71175   71174   71176
   71177   71178   71177   71179   71180   71181   71180   71182
   71183   71184   71183   71185   71186   71187   71186   71188
   71189   71190   71189   71191   71192   71193   71192   71194
   71195   71196   71195   71197   71198   71199   71198   71200
   71201   71202   71201   71203   71204   71205   71204   71206
   71207   71208   71207   71209   71210   71211   71210   71212
   71213   71214   71213   71215   71216   71217   71216   71218
   71219   71220   71219   71221   71222   71223   71222   71224
   71225   71226   71225   71227   71228   71229   71228   71230
   71231   71232   71231   71233   71234   71235   71234   71236
   71237   71238   71237   71239   71240   71241   71240   71242
   71243   71244   71243   71245   71246   71247   71246   71248
   71249   71250   71249   71251   71252   71253   71252   71254
   71255   71256   71255   71257   71258   71259   71258   71260
   71261   71262   71261   71263   71264   71265   71264   71266
   71267   71268   71267   71269   71270   71271   71270   71272
   71273   71274   71273   71275   71276   71277   71276   71278
   71279   71280   71279   71281   71282   71283   71282   71284
   71285   71286   71285   71287   71288   71289   71288   71290
   71291   71292   71291   71293   71294   71295   71294   71296
   71297   71298   71297   71299   71300   71301   71300   71302
   71303   71304   71303   71305   71306   71307   71306   71308
   71309   71310   71309   71311   71312   71313   71312   71314
   71315   71316   71315   71317   71318   71319   71318   71320
   71321   71322   71321   71323   71324   71325   71324   71326
   71327   71328   71327   71329   71330   71331   71330   71332
   71333   71334   71333   71335   71336   71337   71336   71338
   71339   71340   71339   71341   71342   71343   71342   71344
   71345   71346   71345   71347   71348   71349   71348   71350
   71351   71352   71351   71353   71354   71355   71354   71356
   71357   71358   71357   71359   71360   71361   71360   71362
   71363   71364   71363   71365   71366   71367   71366   71368
   71369   71370   71369   71371   71372   71373   71372   71374
   71375   71376   71375   71377   71378   71379   71378   71380
   71381   71382   71381   71383   71384   71385   71384   71386
   71387   71388   71387   71389   71390   71391   71390   71392
   71393   71394   71393   71395   71396   71397   71396   71398
   71399   71400   71399   71401   71402   71403   71402   71404
   71405   71406   71405   71407   71408   71409   71408   71410
   71411   71412   71411   71413   71414   71415   71414   71416
   71417   71418   71417   71419   71420   71421   71420   71422
   71423   71424   71423   71425   71426   71427   71426   71428
   71429   71430   71429   71431   71432   71433   71432   71434
   71435   71436   71435   71437   71438   71439   71438   71440
   71441   71442   71441   71443   71444   71445   71444   71446
   71447   71448   71447   71449   71450   71451   71450   71452
   71453   71454   71453   71455   71456   71457   71456   71458
   71459   71460   71459   71461   71462   71463   71462   71464
   71465   71466   71465   71467   71468   71469   71468   71470
   71471   71472   71471   71473   71474   71475   71474   71476
   71477   71478   71477   71479   71480   71481   71480   71482
   71483   71484   71483   71485   71486   71487   71486   71488
   71489   71490   71489   71491   71492   71493   71492   71494
   71495   71496   71495   71497   71498   71499   71498   71500
   71501   71502   71501   71503   71504   71505   71504   71506
   71507   71508   71507   71509   71510   71511   71510   71512
   71513   71514   71513   71515   71516   71517   71516   71518
   71519   71520   71519   71521   71522   71523   71522   71524
   71525   71526   71525   71527   71528   71529   71528   71530
   71531   71532   71531   71533   71534   71535   71534   71536
   71537   71538   71537   71539   71540   71541   71540   71542
   71543   71544   71543   71545   71546   71547   71546   71548
   71549   71550   71549   71551   71552   71553   71552   71554
   71555   71556   71555   71557   71558   71559   71558   71560
   71561   71562   71561   71563   71564   71565   71564   71566
   71567   71568   71567   71569   71570   71571   71570   71572
   71573   71574   71573   71575   71576   71577   71576   71578
   71579   71580   71579   71581   71582   71583   71582   71584
   71585   71586   71585   71587   71588   71589   71588   71590
   71591   71592   71591   71593   71594   71595   71594   71596
   71597   71598   71597   71599   71600   71601   71600   71602
   71603   71604   71603   71605   71606   71607   71606   71608
   71609   71610   71609   71611   71612   71613   71612   71614
   71615   71616   71615   71617   71618   71619   71618   71620
   71621   71622   71621   71623   71624   71625   71624   71626
   71627   71628   71627   71629   71630   71631   71630   71632
   71633   71634   71633   71635   71636   71637   71636   71638
   71639   71640   71639   71641   71642   71643   71642   71644
   71645   71646   71645   71647   71648   71649   71648   71650
   71651   71652   71651   71653   71654   71655   71654   71656
   71657   71658   71657   71659   71660   71661   71660   71662
   71663   71664   71663   71665   71666   71667   71666   71668
   71669   71670   71669   71671   71672   71673   71672   71674
   71675   71676   71675   71677   71678   71679   71678   71680
   71681   71682   71681   71683   71684   71685   71684   71686
   71687   71688   71687   71689   71690   71691   71690   71692
   71693   71694   71693   71695   71696   71697   71696   71698
   71699   71700   71699   71701   71702   71703   71702   71704
   71705   71706   71705   71707   71708   71709   71708   71710
   71711   71712   71711   71713   71714   71715   71714   71716
   71717   71718   71717   71719   71720   71721   71720   71722
   71723   71724   71723   71725   71726   71727   71726   71728
   71729   71730   71729   71731   71732   71733   71732   71734
   71735   71736   71735   71737   71738   71739   71738   71740
   71741   71742   71741   71743   71744   71745   71744   71746
   71747   71748   71747   71749   71750   71751   71750   71752
   71753   71754   71753   71755   71756   71757   71756   71758
   71759   71760   71759   71761   71762   71763   71762   71764
   71765   71766   71765   71767   71768   71769   71768   71770
   71771   71772   71771   71773   71774   71775   71774   71776
   71777   71778   71777   71779   71780   71781   71780   71782
   71783   71784   71783   71785   71786   71787   71786   71788
   71789   71790   71789   71791   71792   71793   71792   71794
   71795   71796   71795   71797   71798   71799   71798   71800
   71801   71802   71801   71803   71804   71805   71804   71806
   71807   71808   71807   71809   71810   71811   71810   71812
   71813   71814   71813   71815   71816   71817   71816   71818
   71819   71820   71819   71821   71822   71823   71822   71824
   71825   71826   71825   71827   71828   71829   71828   71830
   71831   71832   71831   71833   71834   71835   71834   71836
   71837   71838   71837   71839   71840   71841   71840   71842
   71843   71844   71843   71845   71846   71847   71846   71848
   71849   71850   71849   71851   71852   71853   71852   71854
   71855   71856   71855   71857   71858   71859   71858   71860
   71861   71862   71861   71863   71864   71865   71864   71866
   71867   71868   71867   71869   71870   71871   71870   71872
   71873   71874   71873   71875   71876   71877   71876   71878
   71879   71880   71879   71881   71882   71883   71882   71884
   71885   71886   71885   71887   71888   71889   71888   71890
   71891   71892   71891   71893   71894   71895   71894   71896
   71897   71898   71897   71899   71900   71901   71900   71902
   71903   71904   71903   71905   71906   71907   71906   71908
   71909   71910   71909   71911   71912   71913   71912   71914
   71915   71916   71915   71917   71918   71919   71918   71920
   71921   71922   71921   71923   71924   71925   71924   71926
   71927   71928   71927   71929   71930   71931   71930   71932
   71933   71934   71933   71935   71936   71937   71936   71938
   71939   71940   71939   71941   71942   71943   71942   71944
   71945   71946   71945   71947   71948   71949   71948   71950
   71951   71952   71951   71953   71954   71955   71954   71956
   71957   71958   71957   71959   71960   71961   71960   71962
   71963   71964   71963   71965   71966   71967   71966   71968
   71969   71970   71969   71971   71972   71973   71972   71974
   71975   71976   71975   71977   71978   71979   71978   71980
   71981   71982   71981   71983   71984   71985   71984   71986
   71987   71988   71987   71989   71990   71991   71990   71992
   71993   71994   71993   71995   71996   71997   71996   71998
   71999   72000   71999   72001   72002   72003   72002   72004
   72005   72006   72005   72007   72008   72009   72008   72010
   72011   72012   72011   72013   72014   72015   72014   72016
   72017   72018   72017   72019   72020   72021   72020   72022
   72023   72024   72023   72025   72026   72027   72026   72028
   72029   72030   72029   72031   72032   72033   72032   72034
   72035   72036   72035   72037   72038   72039   72038   72040
   72041   72042   72041   72043   72044   72045   72044   72046
   72047   72048   72047   72049   72050   72051   72050   72052
   72053   72054   72053   72055   72056   72057   72056   72058
   72059   72060   72059   72061   72062   72063   72062   72064
   72065   72066   72065   72067   72068   72069   72068   72070
   72071   72072   72071   72073   72074   72075   72074   72076
   72077   72078   72077   72079   72080   72081   72080   72082
   72083   72084   72083   72085   72086   72087   72086   72088
   72089   72090   72089   72091   72092   72093   72092   72094
   72095   72096   72095   72097   72098   72099   72098   72100
   72101   72102   72101   72103   72104   72105   72104   72106
   72107   72108   72107   72109   72110   72111   72110   72112
   72113   72114   72113   72115   72116   72117   72116   72118
   72119   72120   72119   72121   72122   72123   72122   72124
   72125   72126   72125   72127   72128   72129   72128   72130
   72131   72132   72131   72133   72134   72135   72134   72136
   72137   72138   72137   72139   72140   72141   72140   72142
   72143   72144   72143   72145   72146   72147   72146   72148
   72149   72150   72149   72151   72152   72153   72152   72154
   72155   72156   72155   72157   72158   72159   72158   72160
   72161   72162   72161   72163   72164   72165   72164   72166
   72167   72168   72167   72169   72170   72171   72170   72172
   72173   72174   72173   72175   72176   72177   72176   72178
   72179   72180   72179   72181   72182   72183   72182   72184
   72185   72186   72185   72187   72188   72189   72188   72190
   72191   72192   72191   72193   72194   72195   72194   72196
   72197   72198   72197   72199   72200   72201   72200   72202
   72203   72204   72203   72205   72206   72207   72206   72208
   72209   72210   72209   72211   72212   72213   72212   72214
   72215   72216   72215   72217   72218   72219   72218   72220
   72221   72222   72221   72223   72224   72225   72224   72226
   72227   72228   72227   72229   72230   72231   72230   72232
   72233   72234   72233   72235   72236   72237   72236   72238
   72239   72240   72239   72241   72242   72243   72242   72244
   72245   72246   72245   72247   72248   72249   72248   72250
   72251   72252   72251   72253   72254   72255   72254   72256
   72257   72258   72257   72259   72260   72261   72260   72262
   72263   72264   72263   72265   72266   72267   72266   72268
   72269   72270   72269   72271   72272   72273   72272   72274
   72275   72276   72275   72277   72278   72279   72278   72280
   72281   72282   72281   72283   72284   72285   72284   72286
   72287   72288   72287   72289   72290   72291   72290   72292
   72293   72294   72293   72295   72296   72297   72296   72298
   72299   72300   72299   72301   72302   72303   72302   72304
   72305   72306   72305   72307   72308   72309   72308   72310
   72311   72312   72311   72313   72314   72315   72314   72316
   72317   72318   72317   72319   72320   72321   72320   72322
   72323   72324   72323   72325   72326   72327   72326   72328
   72329   72330   72329   72331   72332   72333   72332   72334
   72335   72336   72335   72337   72338   72339   72338   72340
   72341   72342   72341   72343   72344   72345   72344   72346
   72347   72348   72347   72349   72350   72351   72350   72352
   72353   72354   72353   72355   72356   72357   72356   72358
   72359   72360   72359   72361   72362   72363   72362   72364
   72365   72366   72365   72367   72368   72369   72368   72370
   72371   72372   72371   72373   72374   72375   72374   72376
   72377   72378   72377   72379   72380   72381   72380   72382
   72383   72384   72383   72385   72386   72387   72386   72388
   72389   72390   72389   72391   72392   72393   72392   72394
   72395   72396   72395   72397   72398   72399   72398   72400
   72401   72402   72401   72403   72404   72405   72404   72406
   72407   72408   72407   72409   72410   72411   72410   72412
   72413   72414   72413   72415   72416   72417   72416   72418
   72419   72420   72419   72421   72422   72423   72422   72424
   72425   72426   72425   72427   72428   72429   72428   72430
   72431   72432   72431   72433   72434   72435   72434   72436
   72437   72438   72437   72439   72440   72441   72440   72442
   72443   72444   72443   72445   72446   72447   72446   72448
   72449   72450   72449   72451   72452   72453   72452   72454
   72455   72456   72455   72457   72458   72459   72458   72460
   72461   72462   72461   72463   72464   72465   72464   72466
   72467   72468   72467   72469   72470   72471   72470   72472
   72473   72474   72473   72475   72476   72477   72476   72478
   72479   72480   72479   72481   72482   72483   72482   72484
   72485   72486   72485   72487   72488   72489   72488   72490
   72491   72492   72491   72493   72494   72495   72494   72496
   72497   72498   72497   72499   72500   72501   72500   72502
   72503   72504   72503   72505   72506   72507   72506   72508
   72509   72510   72509   72511   72512   72513   72512   72514
   72515   72516   72515   72517   72518   72519   72518   72520
   72521   72522   72521   72523   72524   72525   72524   72526
   72527   72528   72527   72529   72530   72531   72530   72532
   72533   72534   72533   72535   72536   72537   72536   72538
   72539   72540   72539   72541   72542   72543   72542   72544
   72545   72546   72545   72547   72548   72549   72548   72550
   72551   72552   72551   72553   72554   72555   72554   72556
   72557   72558   72557   72559   72560   72561   72560   72562
   72563   72564   72563   72565   72566   72567   72566   72568
   72569   72570   72569   72571   72572   72573   72572   72574
   72575   72576   72575   72577   72578   72579   72578   72580
   72581   72582   72581   72583   72584   72585   72584   72586
   72587   72588   72587   72589   72590   72591   72590   72592
   72593   72594   72593   72595   72596   72597   72596   72598
   72599   72600   72599   72601   72602   72603   72602   72604
   72605   72606   72605   72607   72608   72609   72608   72610
   72611   72612   72611   72613   72614   72615   72614   72616
   72617   72618   72617   72619   72620   72621   72620   72622
   72623   72624   72623   72625   72626   72627   72626   72628
   72629   72630   72629   72631   72632   72633   72632   72634
   72635   72636   72635   72637   72638   72639   72638   72640
   72641   72642   72641   72643   72644   72645   72644   72646
   72647   72648   72647   72649   72650   72651   72650   72652
   72653   72654   72653   72655   72656   72657   72656   72658
   72659   72660   72659   72661   72662   72663   72662   72664
   72665   72666   72665   72667   72668   72669   72668   72670
   72671   72672   72671   72673   72674   72675   72674   72676
   72677   72678   72677   72679   72680   72681   72680   72682
   72683   72684   72683   72685   72686   72687   72686   72688
   72689   72690   72689   72691   72692   72693   72692   72694
   72695   72696   72695   72697   72698   72699   72698   72700
   72701   72702   72701   72703   72704   72705   72704   72706
   72707   72708   72707   72709   72710   72711   72710   72712
   72713   72714   72713   72715   72716   72717   72716   72718
   72719   72720   72719   72721   72722   72723   72722   72724
   72725   72726   72725   72727   72728   72729   72728   72730
   72731   72732   72731   72733   72734   72735   72734   72736
   72737   72738   72737   72739   72740   72741   72740   72742
   72743   72744   72743   72745   72746   72747   72746   72748
   72749   72750   72749   72751   72752   72753   72752   72754
   72755   72756   72755   72757   72758   72759   72758   72760
   72761   72762   72761   72763   72764   72765   72764   72766
   72767   72768   72767   72769   72770   72771   72770   72772
   72773   72774   72773   72775   72776   72777   72776   72778
   72779   72780   72779   72781   72782   72783   72782   72784
   72785   72786   72785   72787   72788   72789   72788   72790
   72791   72792   72791   72793   72794   72795   72794   72796
   72797   72798   72797   72799   72800   72801   72800   72802
   72803   72804   72803   72805   72806   72807   72806   72808
   72809   72810   72809   72811   72812   72813   72812   72814
   72815   72816   72815   72817   72818   72819   72818   72820
   72821   72822   72821   72823   72824   72825   72824   72826
   72827   72828   72827   72829   72830   72831   72830   72832
   72833   72834   72833   72835   72836   72837   72836   72838
   72839   72840   72839   72841   72842   72843   72842   72844
   72845   72846   72845   72847   72848   72849   72848   72850
   72851   72852   72851   72853   72854   72855   72854   72856
   72857   72858   72857   72859   72860   72861   72860   72862
   72863   72864   72863   72865   72866   72867   72866   72868
   72869   72870   72869   72871   72872   72873   72872   72874
   72875   72876   72875   72877   72878   72879   72878   72880
   72881   72882   72881   72883   72884   72885   72884   72886
   72887   72888   72887   72889   72890   72891   72890   72892
   72893   72894   72893   72895   72896   72897   72896   72898
   72899   72900   72899   72901   72902   72903   72902   72904
   72905   72906   72905   72907   72908   72909   72908   72910
   72911   72912   72911   72913   72914   72915   72914   72916
   72917   72918   72917   72919   72920   72921   72920   72922
   72923   72924   72923   72925   72926   72927   72926   72928
   72929   72930   72929   72931   72932   72933   72932   72934
   72935   72936   72935   72937   72938   72939   72938   72940
   72941   72942   72941   72943   72944   72945   72944   72946
   72947   72948   72947   72949   72950   72951   72950   72952
   72953   72954   72953   72955   72956   72957   72956   72958
   72959   72960   72959   72961   72962   72963   72962   72964
   72965   72966   72965   72967   72968   72969   72968   72970
   72971   72972   72971   72973   72974   72975   72974   72976
   72977   72978   72977   72979   72980   72981   72980   72982
   72983   72984   72983   72985   72986   72987   72986   72988
   72989   72990   72989   72991   72992   72993   72992   72994
   72995   72996   72995   72997   72998   72999   72998   73000
   73001   73002   73001   73003   73004   73005   73004   73006
   73007   73008   73007   73009   73010   73011   73010   73012
   73013   73014   73013   73015   73016   73017   73016   73018
   73019   73020   73019   73021   73022   73023   73022   73024
   73025   73026   73025   73027   73028   73029   73028   73030
   73031   73032   73031   73033   73034   73035   73034   73036
   73037   73038   73037   73039   73040   73041   73040   73042
   73043   73044   73043   73045   73046   73047   73046   73048
   73049   73050   73049   73051   73052   73053   73052   73054
   73055   73056   73055   73057   73058   73059   73058   73060
   73061   73062   73061   73063   73064   73065   73064   73066
   73067   73068   73067   73069   73070   73071   73070   73072
   73073   73074   73073   73075   73076   73077   73076   73078
   73079   73080   73079   73081   73082   73083   73082   73084
   73085   73086   73085   73087   73088   73089   73088   73090
   73091   73092   73091   73093   73094   73095   73094   73096
   73097   73098   73097   73099   73100   73101   73100   73102
   73103   73104   73103   73105   73106   73107   73106   73108
   73109   73110   73109   73111   73112   73113   73112   73114
   73115   73116   73115   73117   73118   73119   73118   73120
   73121   73122   73121   73123   73124   73125   73124   73126
   73127   73128   73127   73129   73130   73131   73130   73132
   73133   73134   73133   73135   73136   73137   73136   73138
   73139   73140   73139   73141   73142   73143   73142   73144
   73145   73146   73145   73147   73148   73149   73148   73150
   73151   73152   73151   73153   73154   73155   73154   73156
   73157   73158   73157   73159   73160   73161   73160   73162
   73163   73164   73163   73165   73166   73167   73166   73168
   73169   73170   73169   73171   73172   73173   73172   73174
   73175   73176   73175   73177   73178   73179   73178   73180
   73181   73182   73181   73183   73184   73185   73184   73186
   73187   73188   73187   73189   73190   73191   73190   73192
   73193   73194   73193   73195   73196   73197   73196   73198
   73199   73200   73199   73201   73202   73203   73202   73204
   73205   73206   73205   73207   73208   73209   73208   73210
   73211   73212   73211   73213   73214   73215   73214   73216
   73217   73218   73217   73219   73220   73221   73220   73222
   73223   73224   73223   73225   73226   73227   73226   73228
   73229   73230   73229   73231   73232   73233   73232   73234
   73235   73236   73235   73237   73238   73239   73238   73240
   73241   73242   73241   73243   73244   73245   73244   73246
   73247   73248   73247   73249   73250   73251   73250   73252
   73253   73254   73253   73255   73256   73257   73256   73258
   73259   73260   73259   73261   73262   73263   73262   73264
   73265   73266   73265   73267   73268   73269   73268   73270
   73271   73272   73271   73273   73274   73275   73274   73276
   73277   73278   73277   73279   73280   73281   73280   73282
   73283   73284   73283   73285   73286   73287   73286   73288
   73289   73290   73289   73291   73292   73293   73292   73294
   73295   73296   73295   73297   73298   73299   73298   73300
   73301   73302   73301   73303   73304   73305   73304   73306
   73307   73308   73307   73309   73310   73311   73310   73312
   73313   73314   73313   73315   73316   73317   73316   73318
   73319   73320   73319   73321   73322   73323   73322   73324
   73325   73326   73325   73327   73328   73329   73328   73330
   73331   73332   73331   73333   73334   73335   73334   73336
   73337   73338   73337   73339   73340   73341   73340   73342
   73343   73344   73343   73345   73346   73347   73346   73348
   73349   73350   73349   73351   73352   73353   73352   73354
   73355   73356   73355   73357   73358   73359   73358   73360
   73361   73362   73361   73363   73364   73365   73364   73366
   73367   73368   73367   73369   73370   73371   73370   73372
   73373   73374   73373   73375   73376   73377   73376   73378
   73379   73380   73379   73381   73382   73383   73382   73384
   73385   73386   73385   73387   73388   73389   73388   73390
   73391   73392   73391   73393   73394   73395   73394   73396
   73397   73398   73397   73399   73400   73401   73400   73402
   73403   73404   73403   73405   73406   73407   73406   73408
   73409   73410   73409   73411   73412   73413   73412   73414
   73415   73416   73415   73417   73418   73419   73418   73420
   73421   73422   73421   73423   73424   73425   73424   73426
   73427   73428   73427   73429   73430   73431   73430   73432
   73433   73434   73433   73435   73436   73437   73436   73438
   73439   73440   73439   73441   73442   73443   73442   73444
   73445   73446   73445   73447   73448   73449   73448   73450
   73451   73452   73451   73453   73454   73455   73454   73456
   73457   73458   73457   73459   73460   73461   73460   73462
   73463   73464   73463   73465   73466   73467   73466   73468
   73469   73470   73469   73471   73472   73473   73472   73474
   73475   73476   73475   73477   73478   73479   73478   73480
   73481   73482   73481   73483   73484   73485   73484   73486
   73487   73488   73487   73489   73490   73491   73490   73492
   73493   73494   73493   73495   73496   73497   73496   73498
   73499   73500   73499   73501   73502   73503   73502   73504
   73505   73506   73505   73507   73508   73509   73508   73510
   73511   73512   73511   73513   73514   73515   73514   73516
   73517   73518   73517   73519   73520   73521   73520   73522
   73523   73524   73523   73525   73526   73527   73526   73528
   73529   73530   73529   73531   73532   73533   73532   73534
   73535   73536   73535   73537   73538   73539   73538   73540
   73541   73542   73541   73543   73544   73545   73544   73546
   73547   73548   73547   73549   73550   73551   73550   73552
   73553   73554   73553   73555   73556   73557   73556   73558
   73559   73560   73559   73561   73562   73563   73562   73564
   73565   73566   73565   73567   73568   73569   73568   73570
   73571   73572   73571   73573   73574   73575   73574   73576
   73577   73578   73577   73579   73580   73581   73580   73582
   73583   73584   73583   73585   73586   73587   73586   73588
   73589   73590   73589   73591   73592   73593   73592   73594
   73595   73596   73595   73597   73598   73599   73598   73600
   73601   73602   73601   73603   73604   73605   73604   73606
   73607   73608   73607   73609   73610   73611   73610   73612
   73613   73614   73613   73615   73616   73617   73616   73618
   73619   73620   73619   73621   73622   73623   73622   73624
   73625   73626   73625   73627   73628   73629   73628   73630
   73631   73632   73631   73633   73634   73635   73634   73636
   73637   73638   73637   73639   73640   73641   73640   73642
   73643   73644   73643   73645   73646   73647   73646   73648
   73649   73650   73649   73651   73652   73653   73652   73654
   73655   73656   73655   73657   73658   73659   73658   73660
   73661   73662   73661   73663   73664   73665   73664   73666
   73667   73668   73667   73669   73670   73671   73670   73672
   73673   73674   73673   73675   73676   73677   73676   73678
   73679   73680   73679   73681   73682   73683   73682   73684
   73685   73686   73685   73687   73688   73689   73688   73690
   73691   73692   73691   73693   73694   73695   73694   73696
   73697   73698   73697   73699   73700   73701   73700   73702
   73703   73704   73703   73705   73706   73707   73706   73708
   73709   73710   73709   73711   73712   73713   73712   73714
   73715   73716   73715   73717   73718   73719   73718   73720
   73721   73722   73721   73723   73724   73725   73724   73726
   73727   73728   73727   73729   73730   73731   73730   73732
   73733   73734   73733   73735   73736   73737   73736   73738
   73739   73740   73739   73741   73742   73743   73742   73744
   73745   73746   73745   73747   73748   73749   73748   73750
   73751   73752   73751   73753   73754   73755   73754   73756
   73757   73758   73757   73759   73760   73761   73760   73762
   73763   73764   73763   73765   73766   73767   73766   73768
   73769   73770   73769   73771   73772   73773   73772   73774
   73775   73776   73775   73777   73778   73779   73778   73780
   73781   73782   73781   73783   73784   73785   73784   73786
   73787   73788   73787   73789   73790   73791   73790   73792
   73793   73794   73793   73795   73796   73797   73796   73798
   73799   73800   73799   73801   73802   73803   73802   73804
   73805   73806   73805   73807   73808   73809   73808   73810
   73811   73812   73811   73813   73814   73815   73814   73816
   73817   73818   73817   73819   73820   73821   73820   73822
   73823   73824   73823   73825   73826   73827   73826   73828
   73829   73830   73829   73831   73832   73833   73832   73834
   73835   73836   73835   73837   73838   73839   73838   73840
   73841   73842   73841   73843   73844   73845   73844   73846
   73847   73848   73847   73849   73850   73851   73850   73852
   73853   73854   73853   73855   73856   73857   73856   73858
   73859   73860   73859   73861   73862   73863   73862   73864
   73865   73866   73865   73867   73868   73869   73868   73870
   73871   73872   73871   73873   73874   73875   73874   73876
   73877   73878   73877   73879   73880   73881   73880   73882
   73883   73884   73883   73885   73886   73887   73886   73888
   73889   73890   73889   73891   73892   73893   73892   73894
   73895   73896   73895   73897   73898   73899   73898   73900
   73901   73902   73901   73903   73904   73905   73904   73906
   73907   73908   73907   73909   73910   73911   73910   73912
   73913   73914   73913   73915   73916   73917   73916   73918
   73919   73920   73919   73921   73922   73923   73922   73924
   73925   73926   73925   73927   73928   73929   73928   73930
   73931   73932   73931   73933   73934   73935   73934   73936
   73937   73938   73937   73939   73940   73941   73940   73942
   73943   73944   73943   73945   73946   73947   73946   73948
   73949   73950   73949   73951   73952   73953   73952   73954
   73955   73956   73955   73957   73958   73959   73958   73960
   73961   73962   73961   73963   73964   73965   73964   73966
   73967   73968   73967   73969   73970   73971   73970   73972
   73973   73974   73973   73975   73976   73977   73976   73978
   73979   73980   73979   73981   73982   73983   73982   73984
   73985   73986   73985   73987   73988   73989   73988   73990
   73991   73992   73991   73993   73994   73995   73994   73996
   73997   73998   73997   73999   74000   74001   74000   74002
   74003   74004   74003   74005   74006   74007   74006   74008
   74009   74010   74009   74011   74012   74013   74012   74014
   74015   74016   74015   74017   74018   74019   74018   74020
   74021   74022   74021   74023   74024   74025   74024   74026
   74027   74028   74027   74029   74030   74031   74030   74032
   74033   74034   74033   74035   74036   74037   74036   74038
   74039   74040   74039   74041   74042   74043   74042   74044
   74045   74046   74045   74047   74048   74049   74048   74050
   74051   74052   74051   74053   74054   74055   74054   74056
   74057   74058   74057   74059   74060   74061   74060   74062
   74063   74064   74063   74065   74066   74067   74066   74068
   74069   74070   74069   74071   74072   74073   74072   74074
   74075   74076   74075   74077   74078   74079   74078   74080
   74081   74082   74081   74083   74084   74085   74084   74086
   74087   74088   74087   74089   74090   74091   74090   74092
   74093   74094   74093   74095   74096   74097   74096   74098
   74099   74100   74099   74101   74102   74103   74102   74104
   74105   74106   74105   74107   74108   74109   74108   74110
   74111   74112   74111   74113   74114   74115   74114   74116
   74117   74118   74117   74119   74120   74121   74120   74122
   74123   74124   74123   74125   74126   74127   74126   74128
   74129   74130   74129   74131   74132   74133   74132   74134
   74135   74136   74135   74137   74138   74139   74138   74140
   74141   74142   74141   74143   74144   74145   74144   74146
   74147   74148   74147   74149   74150   74151   74150   74152
   74153   74154   74153   74155   74156   74157   74156   74158
   74159   74160   74159   74161   74162   74163   74162   74164
   74165   74166   74165   74167   74168   74169   74168   74170
   74171   74172   74171   74173   74174   74175   74174   74176
   74177   74178   74177   74179   74180   74181   74180   74182
   74183   74184   74183   74185   74186   74187   74186   74188
   74189   74190   74189   74191   74192   74193   74192   74194
   74195   74196   74195   74197   74198   74199   74198   74200
   74201   74202   74201   74203   74204   74205   74204   74206
   74207   74208   74207   74209   74210   74211   74210   74212
   74213   74214   74213   74215   74216   74217   74216   74218
   74219   74220   74219   74221   74222   74223   74222   74224
   74225   74226   74225   74227   74228   74229   74228   74230
   74231   74232   74231   74233   74234   74235   74234   74236
   74237   74238   74237   74239   74240   74241   74240   74242
   74243   74244   74243   74245   74246   74247   74246   74248
   74249   74250   74249   74251   74252   74253   74252   74254
   74255   74256   74255   74257   74258   74259   74258   74260
   74261   74262   74261   74263   74264   74265   74264   74266
   74267   74268   74267   74269   74270   74271   74270   74272
   74273   74274   74273   74275   74276   74277   74276   74278
   74279   74280   74279   74281   74282   74283   74282   74284
   74285   74286   74285   74287   74288   74289   74288   74290
   74291   74292   74291   74293   74294   74295   74294   74296
   74297   74298   74297   74299   74300   74301   74300   74302
   74303   74304   74303   74305   74306   74307   74306   74308
   74309   74310   74309   74311   74312   74313   74312   74314
   74315   74316   74315   74317   74318   74319   74318   74320
   74321   74322   74321   74323   74324   74325   74324   74326
   74327   74328   74327   74329   74330   74331   74330   74332
   74333   74334   74333   74335   74336   74337   74336   74338
   74339   74340   74339   74341   74342   74343   74342   74344
   74345   74346   74345   74347   74348   74349   74348   74350
   74351   74352   74351   74353   74354   74355   74354   74356
   74357   74358   74357   74359   74360   74361   74360   74362
   74363   74364   74363   74365   74366   74367   74366   74368
   74369   74370   74369   74371   74372   74373   74372   74374
   74375   74376   74375   74377   74378   74379   74378   74380
   74381   74382   74381   74383   74384   74385   74384   74386
   74387   74388   74387   74389   74390   74391   74390   74392
   74393   74394   74393   74395   74396   74397   74396   74398
   74399   74400   74399   74401   74402   74403   74402   74404
   74405   74406   74405   74407   74408   74409   74408   74410
   74411   74412   74411   74413   74414   74415   74414   74416
   74417   74418   74417   74419   74420   74421   74420   74422
   74423   74424   74423   74425   74426   74427   74426   74428
   74429   74430   74429   74431   74432   74433   74432   74434
   74435   74436   74435   74437   74438   74439   74438   74440
   74441   74442   74441   74443   74444   74445   74444   74446
   74447   74448   74447   74449   74450   74451   74450   74452
   74453   74454   74453   74455   74456   74457   74456   74458
   74459   74460   74459   74461   74462   74463   74462   74464
   74465   74466   74465   74467   74468   74469   74468   74470
   74471   74472   74471   74473   74474   74475   74474   74476
   74477   74478   74477   74479   74480   74481   74480   74482
   74483   74484   74483   74485   74486   74487   74486   74488
   74489   74490   74489   74491   74492   74493   74492   74494
   74495   74496   74495   74497   74498   74499   74498   74500
   74501   74502   74501   74503   74504   74505   74504   74506
   74507   74508   74507   74509   74510   74511   74510   74512
   74513   74514   74513   74515   74516   74517   74516   74518
   74519   74520   74519   74521   74522   74523   74522   74524
   74525   74526   74525   74527   74528   74529   74528   74530
   74531   74532   74531   74533   74534   74535   74534   74536
   74537   74538   74537   74539   74540   74541   74540   74542
   74543   74544   74543   74545   74546   74547   74546   74548
   74549   74550   74549   74551   74552   74553   74552   74554
   74555   74556   74555   74557   74558   74559   74558   74560
   74561   74562   74561   74563   74564   74565   74564   74566
   74567   74568   74567   74569   74570   74571   74570   74572
   74573   74574   74573   74575   74576   74577   74576   74578
   74579   74580   74579   74581   74582   74583   74582   74584
   74585   74586   74585   74587   74588   74589   74588   74590
   74591   74592   74591   74593   74594   74595   74594   74596
   74597   74598   74597   74599   74600   74601   74600   74602
   74603   74604   74603   74605   74606   74607   74606   74608
   74609   74610   74609   74611   74612   74613   74612   74614
   74615   74616   74615   74617   74618   74619   74618   74620
   74621   74622   74621   74623   74624   74625   74624   74626
   74627   74628   74627   74629   74630   74631   74630   74632
   74633   74634   74633   74635   74636   74637   74636   74638
   74639   74640   74639   74641   74642   74643   74642   74644
   74645   74646   74645   74647   74648   74649   74648   74650
   74651   74652   74651   74653   74654   74655   74654   74656
   74657   74658   74657   74659   74660   74661   74660   74662
   74663   74664   74663   74665   74666   74667   74666   74668
   74669   74670   74669   74671   74672   74673   74672   74674
   74675   74676   74675   74677   74678   74679   74678   74680
   74681   74682   74681   74683   74684   74685   74684   74686
   74687   74688   74687   74689   74690   74691   74690   74692
   74693   74694   74693   74695   74696   74697   74696   74698
   74699   74700   74699   74701   74702   74703   74702   74704
   74705   74706   74705   74707   74708   74709   74708   74710
   74711   74712   74711   74713   74714   74715   74714   74716
   74717   74718   74717   74719   74720   74721   74720   74722
   74723   74724   74723   74725   74726   74727   74726   74728
   74729   74730   74729   74731   74732   74733   74732   74734
   74735   74736   74735   74737   74738   74739   74738   74740
   74741   74742   74741   74743   74744   74745   74744   74746
   74747   74748   74747   74749   74750   74751   74750   74752
   74753   74754   74753   74755   74756   74757   74756   74758
   74759   74760   74759   74761   74762   74763   74762   74764
   74765   74766   74765   74767   74768   74769   74768   74770
   74771   74772   74771   74773   74774   74775   74774   74776
   74777   74778   74777   74779   74780   74781   74780   74782
   74783   74784   74783   74785   74786   74787   74786   74788
   74789   74790   74789   74791   74792   74793   74792   74794
   74795   74796   74795   74797   74798   74799   74798   74800
   74801   74802   74801   74803   74804   74805   74804   74806
   74807   74808   74807   74809   74810   74811   74810   74812
   74813   74814   74813   74815   74816   74817   74816   74818
   74819   74820   74819   74821   74822   74823   74822   74824
   74825   74826   74825   74827   74828   74829   74828   74830
   74831   74832   74831   74833   74834   74835   74834   74836
   74837   74838   74837   74839   74840   74841   74840   74842
   74843   74844   74843   74845   74846   74847   74846   74848
   74849   74850   74849   74851   74852   74853   74852   74854
   74855   74856   74855   74857   74858   74859   74858   74860
   74861   74862   74861   74863   74864   74865   74864   74866
   74867   74868   74867   74869   74870   74871   74870   74872
   74873   74874   74873   74875   74876   74877   74876   74878
   74879   74880   74879   74881   74882   74883   74882   74884
   74885   74886   74885   74887   74888   74889   74888   74890
   74891   74892   74891   74893   74894   74895   74894   74896
   74897   74898   74897   74899   74900   74901   74900   74902
   74903   74904   74903   74905   74906   74907   74906   74908
   74909   74910   74909   74911   74912   74913   74912   74914
   74915   74916   74915   74917   74918   74919   74918   74920
   74921   74922   74921   74923   74924   74925   74924   74926
   74927   74928   74927   74929   74930   74931   74930   74932
   74933   74934   74933   74935   74936   74937   74936   74938
   74939   74940   74939   74941   74942   74943   74942   74944
   74945   74946   74945   74947   74948   74949   74948   74950
   74951   74952   74951   74953   74954   74955   74954   74956
   74957   74958   74957   74959   74960   74961   74960   74962
   74963   74964   74963   74965   74966   74967   74966   74968
   74969   74970   74969   74971   74972   74973   74972   74974
   74975   74976   74975   74977   74978   74979   74978   74980
   74981   74982   74981   74983   74984   74985   74984   74986
   74987   74988   74987   74989   74990   74991   74990   74992
   74993   74994   74993   74995   74996   74997   74996   74998
   74999   75000   74999   75001   75002   75003   75002   75004
   75005   75006   75005   75007   75008   75009   75008   75010
   75011   75012   75011   75013   75014   75015   75014   75016
   75017   75018   75017   75019   75020   75021   75020   75022
   75023   75024   75023   75025   75026   75027   75026   75028
   75029   75030   75029   75031   75032   75033   75032   75034
   75035   75036   75035   75037   75038   75039   75038   75040
   75041   75042   75041   75043   75044   75045   75044   75046
   75047   75048   75047   75049   75050   75051   75050   75052
   75053   75054   75053   75055   75056   75057   75056   75058
   75059   75060   75059   75061   75062   75063   75062   75064
   75065   75066   75065   75067   75068   75069   75068   75070
   75071   75072   75071   75073   75074   75075   75074   75076
   75077   75078   75077   75079   75080   75081   75080   75082
   75083   75084   75083   75085   75086   75087   75086   75088
   75089   75090   75089   75091   75092   75093   75092   75094
   75095   75096   75095   75097   75098   75099   75098   75100
   75101   75102   75101   75103   75104   75105   75104   75106
   75107   75108   75107   75109   75110   75111   75110   75112
   75113   75114   75113   75115   75116   75117   75116   75118
   75119   75120   75119   75121   75122   75123   75122   75124
   75125   75126   75125   75127   75128   75129   75128   75130
   75131   75132   75131   75133   75134   75135   75134   75136
   75137   75138   75137   75139   75140   75141   75140   75142
   75143   75144   75143   75145   75146   75147   75146   75148
   75149   75150   75149   75151   75152   75153   75152   75154
   75155   75156   75155   75157   75158   75159   75158   75160
   75161   75162   75161   75163   75164   75165   75164   75166
   75167   75168   75167   75169   75170   75171   75170   75172
   75173   75174   75173   75175   75176   75177   75176   75178
   75179   75180   75179   75181   75182   75183   75182   75184
   75185   75186   75185   75187   75188   75189   75188   75190
   75191   75192   75191   75193   75194   75195   75194   75196
   75197   75198   75197   75199   75200   75201   75200   75202
   75203   75204   75203   75205   75206   75207   75206   75208
   75209   75210   75209   75211   75212   75213   75212   75214
   75215   75216   75215   75217   75218   75219   75218   75220
   75221   75222   75221   75223   75224   75225   75224   75226
   75227   75228   75227   75229   75230   75231   75230   75232
   75233   75234   75233   75235   75236   75237   75236   75238
   75239   75240   75239   75241   75242   75243   75242   75244
   75245   75246   75245   75247   75248   75249   75248   75250
   75251   75252   75251   75253   75254   75255   75254   75256
   75257   75258   75257   75259   75260   75261   75260   75262
   75263   75264   75263   75265   75266   75267   75266   75268
   75269   75270   75269   75271   75272   75273   75272   75274
   75275   75276   75275   75277   75278   75279   75278   75280
   75281   75282   75281   75283   75284   75285   75284   75286
   75287   75288   75287   75289   75290   75291   75290   75292
   75293   75294   75293   75295   75296   75297   75296   75298
   75299   75300   75299   75301   75302   75303   75302   75304
   75305   75306   75305   75307   75308   75309   75308   75310
   75311   75312   75311   75313   75314   75315   75314   75316
   75317   75318   75317   75319   75320   75321   75320   75322
   75323   75324   75323   75325   75326   75327   75326   75328
   75329   75330   75329   75331   75332   75333   75332   75334
   75335   75336   75335   75337   75338   75339   75338   75340
   75341   75342   75341   75343   75344   75345   75344   75346
   75347   75348   75347   75349   75350   75351   75350   75352
   75353   75354   75353   75355   75356   75357   75356   75358
   75359   75360   75359   75361   75362   75363   75362   75364
   75365   75366   75365   75367   75368   75369   75368   75370
   75371   75372   75371   75373   75374   75375   75374   75376
   75377   75378   75377   75379   75380   75381   75380   75382
   75383   75384   75383   75385   75386   75387   75386   75388
   75389   75390   75389   75391   75392   75393   75392   75394
   75395   75396   75395   75397   75398   75399   75398   75400
   75401   75402   75401   75403   75404   75405   75404   75406
   75407   75408   75407   75409   75410   75411   75410   75412
   75413   75414   75413   75415   75416   75417   75416   75418
   75419   75420   75419   75421   75422   75423   75422   75424
   75425   75426   75425   75427   75428   75429   75428   75430
   75431   75432   75431   75433   75434   75435   75434   75436
   75437   75438   75437   75439   75440   75441   75440   75442
   75443   75444   75443   75445   75446   75447   75446   75448
   75449   75450   75449   75451   75452   75453   75452   75454
   75455   75456   75455   75457   75458   75459   75458   75460
   75461   75462   75461   75463   75464   75465   75464   75466
   75467   75468   75467   75469   75470   75471   75470   75472
   75473   75474   75473   75475   75476   75477   75476   75478
   75479   75480   75479   75481   75482   75483   75482   75484
   75485   75486   75485   75487   75488   75489   75488   75490
   75491   75492   75491   75493   75494   75495   75494   75496
   75497   75498   75497   75499   75500   75501   75500   75502
   75503   75504   75503   75505   75506   75507   75506   75508
   75509   75510   75509   75511   75512   75513   75512   75514
   75515   75516   75515   75517   75518   75519   75518   75520
   75521   75522   75521   75523   75524   75525   75524   75526
   75527   75528   75527   75529   75530   75531   75530   75532
   75533   75534   75533   75535   75536   75537   75536   75538
   75539   75540   75539   75541   75542   75543   75542   75544
   75545   75546   75545   75547   75548   75549   75548   75550
   75551   75552   75551   75553   75554   75555   75554   75556
   75557   75558   75557   75559   75560   75561   75560   75562
   75563   75564   75563   75565   75566   75567   75566   75568
   75569   75570   75569   75571   75572   75573   75572   75574
   75575   75576   75575   75577   75578   75579   75578   75580
   75581   75582   75581   75583   75584   75585   75584   75586
   75587   75588   75587   75589   75590   75591   75590   75592
   75593   75594   75593   75595   75596   75597   75596   75598
   75599   75600   75599   75601   75602   75603   75602   75604
   75605   75606   75605   75607   75608   75609   75608   75610
   75611   75612   75611   75613   75614   75615   75614   75616
   75617   75618   75617   75619   75620   75621   75620   75622
   75623   75624   75623   75625   75626   75627   75626   75628
   75629   75630   75629   75631   75632   75633   75632   75634
   75635   75636   75635   75637   75638   75639   75638   75640
   75641   75642   75641   75643   75644   75645   75644   75646
   75647   75648   75647   75649   75650   75651   75650   75652
   75653   75654   75653   75655   75656   75657   75656   75658
   75659   75660   75659   75661   75662   75663   75662   75664
   75665   75666   75665   75667   75668   75669   75668   75670
   75671   75672   75671   75673   75674   75675   75674   75676
   75677   75678   75677   75679   75680   75681   75680   75682
   75683   75684   75683   75685   75686   75687   75686   75688
   75689   75690   75689   75691   75692   75693   75692   75694
   75695   75696   75695   75697   75698   75699   75698   75700
   75701   75702   75701   75703   75704   75705   75704   75706
   75707   75708   75707   75709   75710   75711   75710   75712
   75713   75714   75713   75715   75716   75717   75716   75718
   75719   75720   75719   75721   75722   75723   75722   75724
   75725   75726   75725   75727   75728   75729   75728   75730
   75731   75732   75731   75733   75734   75735   75734   75736
   75737   75738   75737   75739   75740   75741   75740   75742
   75743   75744   75743   75745   75746   75747   75746   75748
   75749   75750   75749   75751   75752   75753   75752   75754
   75755   75756   75755   75757   75758   75759   75758   75760
   75761   75762   75761   75763   75764   75765   75764   75766
   75767   75768   75767   75769   75770   75771   75770   75772
   75773   75774   75773   75775   75776   75777   75776   75778
   75779   75780   75779   75781   75782   75783   75782   75784
   75785   75786   75785   75787   75788   75789   75788   75790
   75791   75792   75791   75793   75794   75795   75794   75796
   75797   75798   75797   75799   75800   75801   75800   75802
   75803   75804   75803   75805   75806   75807   75806   75808
   75809   75810   75809   75811   75812   75813   75812   75814
   75815   75816   75815   75817   75818   75819   75818   75820
   75821   75822   75821   75823   75824   75825   75824   75826
   75827   75828   75827   75829   75830   75831   75830   75832
   75833   75834   75833   75835   75836   75837   75836   75838
   75839   75840   75839   75841   75842   75843   75842   75844
   75845   75846   75845   75847   75848   75849   75848   75850
   75851   75852   75851   75853   75854   75855   75854   75856
   75857   75858   75857   75859   75860   75861   75860   75862
   75863   75864   75863   75865   75866   75867   75866   75868
   75869   75870   75869   75871   75872   75873   75872   75874
   75875   75876   75875   75877   75878   75879   75878   75880
   75881   75882   75881   75883   75884   75885   75884   75886
   75887   75888   75887   75889   75890   75891   75890   75892
   75893   75894   75893   75895   75896   75897   75896   75898
   75899   75900   75899   75901   75902   75903   75902   75904
   75905   75906   75905   75907   75908   75909   75908   75910
   75911   75912   75911   75913   75914   75915   75914   75916
   75917   75918   75917   75919   75920   75921   75920   75922
   75923   75924   75923   75925   75926   75927   75926   75928
   75929   75930   75929   75931   75932   75933   75932   75934
   75935   75936   75935   75937   75938   75939   75938   75940
   75941   75942   75941   75943   75944   75945   75944   75946
   75947   75948   75947   75949   75950   75951   75950   75952
   75953   75954   75953   75955   75956   75957   75956   75958
   75959   75960   75959   75961   75962   75963   75962   75964
   75965   75966   75965   75967   75968   75969   75968   75970
   75971   75972   75971   75973   75974   75975   75974   75976
   75977   75978   75977   75979   75980   75981   75980   75982
   75983   75984   75983   75985   75986   75987   75986   75988
   75989   75990   75989   75991   75992   75993   75992   75994
   75995   75996   75995   75997   75998   75999   75998   76000
   76001   76002   76001   76003   76004   76005   76004   76006
   76007   76008   76007   76009   76010   76011   76010   76012
   76013   76014   76013   76015   76016   76017   76016   76018
   76019   76020   76019   76021   76022   76023   76022   76024
   76025   76026   76025   76027   76028   76029   76028   76030
   76031   76032   76031   76033   76034   76035   76034   76036
   76037   76038   76037   76039   76040   76041   76040   76042
   76043   76044   76043   76045   76046   76047   76046   76048
   76049   76050   76049   76051   76052   76053   76052   76054
   76055   76056   76055   76057   76058   76059   76058   76060
   76061   76062   76061   76063   76064   76065   76064   76066
   76067   76068   76067   76069   76070   76071   76070   76072
   76073   76074   76073   76075   76076   76077   76076   76078
   76079   76080   76079   76081   76082   76083   76082   76084
   76085   76086   76085   76087   76088   76089   76088   76090
   76091   76092   76091   76093   76094   76095   76094   76096
   76097   76098   76097   76099   76100   76101   76100   76102
   76103   76104   76103   76105   76106   76107   76106   76108
   76109   76110   76109   76111   76112   76113   76112   76114
   76115   76116   76115   76117   76118   76119   76118   76120
   76121   76122   76121   76123   76124   76125   76124   76126
   76127   76128   76127   76129   76130   76131   76130   76132
   76133   76134   76133   76135   76136   76137   76136   76138
   76139   76140   76139   76141   76142   76143   76142   76144
   76145   76146   76145   76147   76148   76149   76148   76150
   76151   76152   76151   76153   76154   76155   76154   76156
   76157   76158   76157   76159   76160   76161   76160   76162
   76163   76164   76163   76165   76166   76167   76166   76168
   76169   76170   76169   76171   76172   76173   76172   76174
   76175   76176   76175   76177   76178   76179   76178   76180
   76181   76182   76181   76183   76184   76185   76184   76186
   76187   76188   76187   76189   76190   76191   76190   76192
   76193   76194   76193   76195   76196   76197   76196   76198
   76199   76200   76199   76201   76202   76203   76202   76204
   76205   76206   76205   76207   76208   76209   76208   76210
   76211   76212   76211   76213   76214   76215   76214   76216
   76217   76218   76217   76219   76220   76221   76220   76222
   76223   76224   76223   76225   76226   76227   76226   76228
   76229   76230   76229   76231   76232   76233   76232   76234
   76235   76236   76235   76237   76238   76239   76238   76240
   76241   76242   76241   76243   76244   76245   76244   76246
   76247   76248   76247   76249   76250   76251   76250   76252
   76253   76254   76253   76255   76256   76257   76256   76258
   76259   76260   76259   76261   76262   76263   76262   76264
   76265   76266   76265   76267   76268   76269   76268   76270
   76271   76272   76271   76273   76274   76275   76274   76276
   76277   76278   76277   76279   76280   76281   76280   76282
   76283   76284   76283   76285   76286   76287   76286   76288
   76289   76290   76289   76291   76292   76293   76292   76294
   76295   76296   76295   76297   76298   76299   76298   76300
   76301   76302   76301   76303   76304   76305   76304   76306
   76307   76308   76307   76309   76310   76311   76310   76312
   76313   76314   76313   76315   76316   76317   76316   76318
   76319   76320   76319   76321   76322   76323   76322   76324
   76325   76326   76325   76327   76328   76329   76328   76330
   76331   76332   76331   76333   76334   76335   76334   76336
   76337   76338   76337   76339   76340   76341   76340   76342
   76343   76344   76343   76345   76346   76347   76346   76348
   76349   76350   76349   76351   76352   76353   76352   76354
   76355   76356   76355   76357   76358   76359   76358   76360
   76361   76362   76361   76363   76364   76365   76364   76366
   76367   76368   76367   76369   76370   76371   76370   76372
   76373   76374   76373   76375   76376   76377   76376   76378
   76379   76380   76379   76381   76382   76383   76382   76384
   76385   76386   76385   76387   76388   76389   76388   76390
   76391   76392   76391   76393   76394   76395   76394   76396
   76397   76398   76397   76399   76400   76401   76400   76402
   76403   76404   76403   76405   76406   76407   76406   76408
   76409   76410   76409   76411   76412   76413   76412   76414
   76415   76416   76415   76417   76418   76419   76418   76420
   76421   76422   76421   76423   76424   76425   76424   76426
   76427   76428   76427   76429   76430   76431   76430   76432
   76433   76434   76433   76435   76436   76437   76436   76438
   76439   76440   76439   76441   76442   76443   76442   76444
   76445   76446   76445   76447   76448   76449   76448   76450
   76451   76452   76451   76453   76454   76455   76454   76456
   76457   76458   76457   76459   76460   76461   76460   76462
   76463   76464   76463   76465   76466   76467   76466   76468
   76469   76470   76469   76471   76472   76473   76472   76474
   76475   76476   76475   76477   76478   76479   76478   76480
   76481   76482   76481   76483   76484   76485   76484   76486
   76487   76488   76487   76489   76490   76491   76490   76492
   76493   76494   76493   76495   76496   76497   76496   76498
   76499   76500   76499   76501   76502   76503   76502   76504
   76505   76506   76505   76507   76508   76509   76508   76510
   76511   76512   76511   76513   76514   76515   76514   76516
   76517   76518   76517   76519   76520   76521   76520   76522
   76523   76524   76523   76525   76526   76527   76526   76528
   76529   76530   76529   76531   76532   76533   76532   76534
   76535   76536   76535   76537   76538   76539   76538   76540
   76541   76542   76541   76543   76544   76545   76544   76546
   76547   76548   76547   76549   76550   76551   76550   76552
   76553   76554   76553   76555   76556   76557   76556   76558
   76559   76560   76559   76561   76562   76563   76562   76564
   76565   76566   76565   76567   76568   76569   76568   76570
   76571   76572   76571   76573   76574   76575   76574   76576
   76577   76578   76577   76579   76580   76581   76580   76582
   76583   76584   76583   76585   76586   76587   76586   76588
   76589   76590   76589   76591   76592   76593   76592   76594
   76595   76596   76595   76597   76598   76599   76598   76600
   76601   76602   76601   76603   76604   76605   76604   76606
   76607   76608   76607   76609   76610   76611   76610   76612
   76613   76614   76613   76615   76616   76617   76616   76618
   76619   76620   76619   76621   76622   76623   76622   76624
   76625   76626   76625   76627   76628   76629   76628   76630
   76631   76632   76631   76633   76634   76635   76634   76636
   76637   76638   76637   76639   76640   76641   76640   76642
   76643   76644   76643   76645   76646   76647   76646   76648
   76649   76650   76649   76651   76652   76653   76652   76654
   76655   76656   76655   76657   76658   76659   76658   76660
   76661   76662   76661   76663   76664   76665   76664   76666
   76667   76668   76667   76669   76670   76671   76670   76672
   76673   76674   76673   76675   76676   76677   76676   76678
   76679   76680   76679   76681   76682   76683   76682   76684
   76685   76686   76685   76687   76688   76689   76688   76690
   76691   76692   76691   76693   76694   76695   76694   76696
   76697   76698   76697   76699   76700   76701   76700   76702
   76703   76704   76703   76705   76706   76707   76706   76708
   76709   76710   76709   76711   76712   76713   76712   76714
   76715   76716   76715   76717   76718   76719   76718   76720
   76721   76722   76721   76723   76724   76725   76724   76726
   76727   76728   76727   76729   76730   76731   76730   76732
   76733   76734   76733   76735   76736   76737   76736   76738
   76739   76740   76739   76741   76742   76743   76742   76744
   76745   76746   76745   76747   76748   76749   76748   76750
   76751   76752   76751   76753   76754   76755   76754   76756
   76757   76758   76757   76759   76760   76761   76760   76762
   76763   76764   76763   76765   76766   76767   76766   76768
   76769   76770   76769   76771   76772   76773   76772   76774
   76775   76776   76775   76777   76778   76779   76778   76780
   76781   76782   76781   76783   76784   76785   76784   76786
   76787   76788   76787   76789   76790   76791   76790   76792
   76793   76794   76793   76795   76796   76797   76796   76798
   76799   76800   76799   76801   76802   76803   76802   76804
   76805   76806   76805   76807   76808   76809   76808   76810
   76811   76812   76811   76813   76814   76815   76814   76816
   76817   76818   76817   76819   76820   76821   76820   76822
   76823   76824   76823   76825   76826   76827   76826   76828
   76829   76830   76829   76831   76832   76833   76832   76834
   76835   76836   76835   76837   76838   76839   76838   76840
   76841   76842   76841   76843   76844   76845   76844   76846
   76847   76848   76847   76849   76850   76851   76850   76852
   76853   76854   76853   76855   76856   76857   76856   76858
   76859   76860   76859   76861   76862   76863   76862   76864
   76865   76866   76865   76867   76868   76869   76868   76870
   76871   76872   76871   76873   76874   76875   76874   76876
   76877   76878   76877   76879   76880   76881   76880   76882
   76883   76884   76883   76885   76886   76887   76886   76888
   76889   76890   76889   76891   76892   76893   76892   76894
   76895   76896   76895   76897   76898   76899   76898   76900
   76901   76902   76901   76903   76904   76905   76904   76906
   76907   76908   76907   76909   76910   76911   76910   76912
   76913   76914   76913   76915   76916   76917   76916   76918
   76919   76920   76919   76921   76922   76923   76922   76924
   76925   76926   76925   76927   76928   76929   76928   76930
   76931   76932   76931   76933   76934   76935   76934   76936
   76937   76938   76937   76939   76940   76941   76940   76942
   76943   76944   76943   76945   76946   76947   76946   76948
   76949   76950   76949   76951   76952   76953   76952   76954
   76955   76956   76955   76957   76958   76959   76958   76960
   76961   76962   76961   76963   76964   76965   76964   76966
   76967   76968   76967   76969   76970   76971   76970   76972
   76973   76974   76973   76975   76976   76977   76976   76978
   76979   76980   76979   76981   76982   76983   76982   76984
   76985   76986   76985   76987   76988   76989   76988   76990
   76991   76992   76991   76993   76994   76995   76994   76996
   76997   76998   76997   76999   77000   77001   77000   77002
   77003   77004   77003   77005   77006   77007   77006   77008
   77009   77010   77009   77011   77012   77013   77012   77014
   77015   77016   77015   77017   77018   77019   77018   77020
   77021   77022   77021   77023   77024   77025   77024   77026
   77027   77028   77027   77029   77030   77031   77030   77032
   77033   77034   77033   77035   77036   77037   77036   77038
   77039   77040   77039   77041   77042   77043   77042   77044
   77045   77046   77045   77047   77048   77049   77048   77050
   77051   77052   77051   77053   77054   77055   77054   77056
   77057   77058   77057   77059   77060   77061   77060   77062
   77063   77064   77063   77065   77066   77067   77066   77068
   77069   77070   77069   77071   77072   77073   77072   77074
   77075   77076   77075   77077   77078   77079   77078   77080
   77081   77082   77081   77083   77084   77085   77084   77086
   77087   77088   77087   77089   77090   77091   77090   77092
   77093   77094   77093   77095   77096   77097   77096   77098
   77099   77100   77099   77101   77102   77103   77102   77104
   77105   77106   77105   77107   77108   77109   77108   77110
   77111   77112   77111   77113   77114   77115   77114   77116
   77117   77118   77117   77119   77120   77121   77120   77122
   77123   77124   77123   77125   77126   77127   77126   77128
   77129   77130   77129   77131   77132   77133   77132   77134
   77135   77136   77135   77137   77138   77139   77138   77140
   77141   77142   77141   77143   77144   77145   77144   77146
   77147   77148   77147   77149   77150   77151   77150   77152
   77153   77154   77153   77155   77156   77157   77156   77158
   77159   77160   77159   77161   77162   77163   77162   77164
   77165   77166   77165   77167   77168   77169   77168   77170
   77171   77172   77171   77173   77174   77175   77174   77176
   77177   77178   77177   77179   77180   77181   77180   77182
   77183   77184   77183   77185   77186   77187   77186   77188
   77189   77190   77189   77191   77192   77193   77192   77194
   77195   77196   77195   77197   77198   77199   77198   77200
   77201   77202   77201   77203   77204   77205   77204   77206
   77207   77208   77207   77209   77210   77211   77210   77212
   77213   77214   77213   77215   77216   77217   77216   77218
   77219   77220   77219   77221   77222   77223   77222   77224
   77225   77226   77225   77227   77228   77229   77228   77230
   77231   77232   77231   77233   77234   77235   77234   77236
   77237   77238   77237   77239   77240   77241   77240   77242
   77243   77244   77243   77245   77246   77247   77246   77248
   77249   77250   77249   77251   77252   77253   77252   77254
   77255   77256   77255   77257   77258   77259   77258   77260
   77261   77262   77261   77263   77264   77265   77264   77266
   77267   77268   77267   77269   77270   77271   77270   77272
   77273   77274   77273   77275   77276   77277   77276   77278
   77279   77280   77279   77281   77282   77283   77282   77284
   77285   77286   77285   77287   77288   77289   77288   77290
   77291   77292   77291   77293   77294   77295   77294   77296
   77297   77298   77297   77299   77300   77301   77300   77302
   77303   77304   77303   77305   77306   77307   77306   77308
   77309   77310   77309   77311   77312   77313   77312   77314
   77315   77316   77315   77317   77318   77319   77318   77320
   77321   77322   77321   77323   77324   77325   77324   77326
   77327   77328   77327   77329   77330   77331   77330   77332
   77333   77334   77333   77335   77336   77337   77336   77338
   77339   77340   77339   77341   77342   77343   77342   77344
   77345   77346   77345   77347   77348   77349   77348   77350
   77351   77352   77351   77353   77354   77355   77354   77356
   77357   77358   77357   77359   77360   77361   77360   77362
   77363   77364   77363   77365   77366   77367   77366   77368
   77369   77370   77369   77371   77372   77373   77372   77374
   77375   77376   77375   77377   77378   77379   77378   77380
   77381   77382   77381   77383   77384   77385   77384   77386
   77387   77388   77387   77389   77390   77391   77390   77392
   77393   77394   77393   77395   77396   77397   77396   77398
   77399   77400   77399   77401   77402   77403   77402   77404
   77405   77406   77405   77407   77408   77409   77408   77410
   77411   77412   77411   77413   77414   77415   77414   77416
   77417   77418   77417   77419   77420   77421   77420   77422
   77423   77424   77423   77425   77426   77427   77426   77428
   77429   77430   77429   77431   77432   77433   77432   77434
   77435   77436   77435   77437   77438   77439   77438   77440
   77441   77442   77441   77443   77444   77445   77444   77446
   77447   77448   77447   77449   77450   77451   77450   77452
   77453   77454   77453   77455   77456   77457   77456   77458
   77459   77460   77459   77461   77462   77463   77462   77464
   77465   77466   77465   77467   77468   77469   77468   77470
   77471   77472   77471   77473   77474   77475   77474   77476
   77477   77478   77477   77479   77480   77481   77480   77482
   77483   77484   77483   77485   77486   77487   77486   77488
   77489   77490   77489   77491   77492   77493   77492   77494
   77495   77496   77495   77497   77498   77499   77498   77500
   77501   77502   77501   77503   77504   77505   77504   77506
   77507   77508   77507   77509   77510   77511   77510   77512
   77513   77514   77513   77515   77516   77517   77516   77518
   77519   77520   77519   77521   77522   77523   77522   77524
   77525   77526   77525   77527   77528   77529   77528   77530
   77531   77532   77531   77533   77534   77535   77534   77536
   77537   77538   77537   77539   77540   77541   77540   77542
   77543   77544   77543   77545   77546   77547   77546   77548
   77549   77550   77549   77551   77552   77553   77552   77554
   77555   77556   77555   77557   77558   77559   77558   77560
   77561   77562   77561   77563   77564   77565   77564   77566
   77567   77568   77567   77569   77570   77571   77570   77572
   77573   77574   77573   77575   77576   77577   77576   77578
   77579   77580   77579   77581   77582   77583   77582   77584
   77585   77586   77585   77587   77588   77589   77588   77590
   77591   77592   77591   77593   77594   77595   77594   77596
   77597   77598   77597   77599   77600   77601   77600   77602
   77603   77604   77603   77605   77606   77607   77606   77608
   77609   77610   77609   77611   77612   77613   77612   77614
   77615   77616   77615   77617   77618   77619   77618   77620
   77621   77622   77621   77623   77624   77625   77624   77626
   77627   77628   77627   77629   77630   77631   77630   77632
   77633   77634   77633   77635   77636   77637   77636   77638
   77639   77640   77639   77641   77642   77643   77642   77644
   77645   77646   77645   77647   77648   77649   77648   77650
   77651   77652   77651   77653   77654   77655   77654   77656
   77657   77658   77657   77659   77660   77661   77660   77662
   77663   77664   77663   77665   77666   77667   77666   77668
   77669   77670   77669   77671   77672   77673   77672   77674
   77675   77676   77675   77677   77678   77679   77678   77680
   77681   77682   77681   77683   77684   77685   77684   77686
   77687   77688   77687   77689   77690   77691   77690   77692
   77693   77694   77693   77695   77696   77697   77696   77698
   77699   77700   77699   77701   77702   77703   77702   77704
   77705   77706   77705   77707   77708   77709   77708   77710
   77711   77712   77711   77713   77714   77715   77714   77716
   77717   77718   77717   77719   77720   77721   77720   77722
   77723   77724   77723   77725   77726   77727   77726   77728
   77729   77730   77729   77731   77732   77733   77732   77734
   77735   77736   77735   77737   77738   77739   77738   77740
   77741   77742   77741   77743   77744   77745   77744   77746
   77747   77748   77747   77749   77750   77751   77750   77752
   77753   77754   77753   77755   77756   77757   77756   77758
   77759   77760   77759   77761   77762   77763   77762   77764
   77765   77766   77765   77767   77768   77769   77768   77770
   77771   77772   77771   77773   77774   77775   77774   77776
   77777   77778   77777   77779   77780   77781   77780   77782
   77783   77784   77783   77785   77786   77787   77786   77788
   77789   77790   77789   77791   77792   77793   77792   77794
   77795   77796   77795   77797   77798   77799   77798   77800
   77801   77802   77801   77803   77804   77805   77804   77806
   77807   77808   77807   77809   77810   77811   77810   77812
   77813   77814   77813   77815   77816   77817   77816   77818
   77819   77820   77819   77821   77822   77823   77822   77824
   77825   77826   77825   77827   77828   77829   77828   77830
   77831   77832   77831   77833   77834   77835   77834   77836
   77837   77838   77837   77839   77840   77841   77840   77842
   77843   77844   77843   77845   77846   77847   77846   77848
   77849   77850   77849   77851   77852   77853   77852   77854
   77855   77856   77855   77857   77858   77859   77858   77860
   77861   77862   77861   77863   77864   77865   77864   77866
   77867   77868   77867   77869   77870   77871   77870   77872
   77873   77874   77873   77875   77876   77877   77876   77878
   77879   77880   77879   77881   77882   77883   77882   77884
   77885   77886   77885   77887   77888   77889   77888   77890
   77891   77892   77891   77893   77894   77895   77894   77896
   77897   77898   77897   77899   77900   77901   77900   77902
   77903   77904   77903   77905   77906   77907   77906   77908
   77909   77910   77909   77911   77912   77913   77912   77914
   77915   77916   77915   77917   77918   77919   77918   77920
   77921   77922   77921   77923   77924   77925   77924   77926
   77927   77928   77927   77929   77930   77931   77930   77932
   77933   77934   77933   77935   77936   77937   77936   77938
   77939   77940   77939   77941   77942   77943   77942   77944
   77945   77946   77945   77947   77948   77949   77948   77950
   77951   77952   77951   77953   77954   77955   77954   77956
   77957   77958   77957   77959   77960   77961   77960   77962
   77963   77964   77963   77965   77966   77967   77966   77968
   77969   77970   77969   77971   77972   77973   77972   77974
   77975   77976   77975   77977   77978   77979   77978   77980
   77981   77982   77981   77983   77984   77985   77984   77986
   77987   77988   77987   77989   77990   77991   77990   77992
   77993   77994   77993   77995   77996   77997   77996   77998
   77999   78000   77999   78001   78002   78003   78002   78004
   78005   78006   78005   78007

   28090 !NTHETA: angles
       1       2       3       2       3       5       2       3       4
       2       3       6       3       6       7       3       6      28
       3       6       8       4       3       5       6      28      29
       6      28      30       6      28      25       6       8       9
       6       3       5       6       3       4       8       9      10
       8       9      25       8       9      11       8       6       7
       8       6      28       9      25      26       9      25      28
       9      11      12       9      11      14      11      14      15
      11      14      16      11      12      20      11      12      13
      11       9      10      11       9      25      13      12      20
      14      16      18      14      16      17      14      11      12
      16      18      19      16      18      20      16      14      15
      17      16      18      18      20      12      18      20      21
      20      21      24      20      21      23      20      21      22
      20      18      19      21      20      12      22      21      24
      22      21      23      23      21      24      25      28      29
      25      28      30      25       9      10      27      25      26
      27      25      28      27      25       9      28      30      31
      28      25      26      28       6       7      30      28      29
      31      34      35      32      31      30      32      31      34
      32      31      33      33      31      30      33      31      34
      34      35      37      34      35      36      34      35      38
      34      31      30      35      38      39      35      38      60
      35      38      40      36      35      37      38      60      61
      38      60      62      38      60      57      38      40      41
      38      35      37      38      35      36      40      41      42
      40      41      57      40      41      43      40      38      39
      40      38      60      41      57      58      41      57      60
      41      43      44      41      43      46      43      46      47
      43      46      48      43      44      52      43      44      45
      43      41      42      43      41      57      45      44      52
      46      48      50      46      48      49      46      43      44
      48      50      51      48      50      52      48      46      47
      49      48      50      50      52      44      50      52      53
      52      53      56      52      53      55      52      53      54
      52      50      51      53      52      44      54      53      56
      54      53      55      55      53      56      57      60      61
      57      60      62      57      41      42      59      57      58
      59      57      60      59      57      41      60      62      63
      60      57      58      60      38      39      62      60      61
      63      66      67      64      63      62      64      63      66
      64      63      65      65      63      62      65      63      66
      66      67      69      66      67      68      66      67      70
      66      63      62      67      70      71      67      70      92
      67      70      72      68      67      69      70      92      93
      70      92      94      70      92      89      70      72      73
      70      67      69      70      67      68      72      73      74
      72      73      89      72      73      75      72      70      71
      72      70      92      73      89      90      73      89      92
      73      75      76      73      75      78      75      78      79
      75      78      80      75      76      84      75      76      77
      75      73      74      75      73      89      77      76      84
      78      80      82      78      80      81      78      75      76
      80      82      83      80      82      84      80      78      79
      81      80      82      82      84      76      82      84      85
      84      85      88      84      85      87      84      85      86
      84      82      83      85      84      76      86      85      88
      86      85      87      87      85      88      89      92      93
      89      92      94      89      73      74      91      89      90
      91      89      92      91      89      73      92      94      95
      92      89      90      92      70      71      94      92      93
      95      98      99      96      95      94      96      95      98
      96      95      97      97      95      94      97      95      98
      98      99     101      98      99     100      98      99     102
      98      95      94      99     102     103      99     102     124
      99     102     104     100      99     101     102     124     125
     102     124     126     102     124     121     102     104     105
     102      99     101     102      99     100     104     105     106
     104     105     121     104     105     107     104     102     103
     104     102     124     105     121     122     105     121     124
     105     107     108     105     107     110     107     110     111
     107     110     112     107     108     116     107     108     109
     107     105     106     107     105     121     109     108     116
     110     112     114     110     112     113     110     107     108
     112     114     115     112     114     116     112     110     111
     113     112     114     114     116     108     114     116     117
     116     117     120     116     117     119     116     117     118
     116     114     115     117     116     108     118     117     120
     118     117     119     119     117     120     121     124     125
     121     124     126     121     105     106     123     121     122
     123     121     124     123     121     105     124     126     127
     124     121     122     124     102     103     126     124     125
     127     130     131     128     127     126     128     127     130
     128     127     129     129     127     126     129     127     130
     130     131     133     130     131     132     130     131     134
     130     127     126     131     134     135     131     134     156
     131     134     136     132     131     133     134     156     157
     134     156     158     134     156     153     134     136     137
     134     131     133     134     131     132     136     137     138
     136     137     153     136     137     139     136     134     135
     136     134     156     137     153     154     137     153     156
     137     139     140     137     139     142     139     142     143
     139     142     144     139     140     148     139     140     141
     139     137     138     139     137     153     141     140     148
     142     144     146     142     144     145     142     139     140
     144     146     147     144     146     148     144     142     143
     145     144     146     146     148     140     146     148     149
     148     149     152     148     149     151     148     149     150
     148     146     147     149     148     140     150     149     152
     150     149     151     151     149     152     153     156     157
     153     156     158     153     137     138     155     153     154
     155     153     156     155     153     137     156     158     159
     156     153     154     156     134     135     158     156     157
     159     162     163     160     159     158     160     159     162
     160     159     161     161     159     158     161     159     162
     162     163     165     162     163     164     162     163     166
     162     159     158     163     166     167     163     166     188
     163     166     168     164     163     165     166     188     189
     166     188     190     166     188     185     166     168     169
     166     163     165     166     163     164     168     169     170
     168     169     185     168     169     171     168     166     167
     168     166     188     169     185     186     169     185     188
     169     171     172     169     171     174     171     174     175
     171     174     176     171     172     180     171     172     173
     171     169     170     171     169     185     173     172     180
     174     176     178     174     176     177     174     171     172
     176     178     179     176     178     180     176     174     175
     177     176     178     178     180     172     178     180     181
     180     181     184     180     181     183     180     181     182
     180     178     179     181     180     172     182     181     184
     182     181     183     183     181     184     185     188     189
     185     188     190     185     169     170     187     185     186
     187     185     188     187     185     169     188     190     191
     188     185     186     188     166     167     190     188     189
     191     194     195     192     191     190     192     191     194
     192     191     193     193     191     190     193     191     194
     194     195     197     194     195     196     194     195     198
     194     191     190     195     198     199     195     198     220
     195     198     200     196     195     197     198     220     221
     198     220     222     198     220     217     198     200     201
     198     195     197     198     195     196     200     201     202
     200     201     217     200     201     203     200     198     199
     200     198     220     201     217     218     201     217     220
     201     203     204     201     203     206     203     206     207
     203     206     208     203     204     212     203     204     205
     203     201     202     203     201     217     205     204     212
     206     208     210     206     208     209     206     203     204
     208     210     211     208     210     212     208     206     207
     209     208     210     210     212     204     210     212     213
     212     213     216     212     213     215     212     213     214
     212     210     211     213     212     204     214     213     216
     214     213     215     215     213     216     217     220     221
     217     220     222     217     201     202     219     217     218
     219     217     220     219     217     201     220     222     223
     220     217     218     220     198     199     222     220     221
     223     226     227     224     223     222     224     223     226
     224     223     225     225     223     222     225     223     226
     226     227     229     226     227     228     226     227     230
     226     223     222     227     230     231     227     230     252
     227     230     232     228     227     229     230     252     253
     230     252     254     230     252     249     230     232     233
     230     227     229     230     227     228     232     233     234
     232     233     249     232     233     235     232     230     231
     232     230     252     233     249     250     233     249     252
     233     235     236     233     235     238     235     238     239
     235     238     240     235     236     244     235     236     237
     235     233     234     235     233     249     237     236     244
     238     240     242     238     240     241     238     235     236
     240     242     243     240     242     244     240     238     239
     241     240     242     242     244     236     242     244     245
     244     245     248     244     245     247     244     245     246
     244     242     243     245     244     236     246     245     248
     246     245     247     247     245     248     249     252     253
     249     252     254     249     233     234     251     249     250
     251     249     252     251     249     233     252     254     255
     252     249     250     252     230     231     254     252     253
     255     258     259     256     255     254     256     255     258
     256     255     257     257     255     254     257     255     258
     258     259     261     258     259     260     258     259     262
     258     255     254     259     262     263     259     262     284
     259     262     264     260     259     261     262     284     285
     262     284     286     262     284     281     262     264     265
     262     259     261     262     259     260     264     265     266
     264     265     281     264     265     267     264     262     263
     264     262     284     265     281     282     265     281     284
     265     267     268     265     267     270     267     270     271
     267     270     272     267     268     276     267     268     269
     267     265     266     267     265     281     269     268     276
     270     272     274     270     272     273     270     267     268
     272     274     275     272     274     276     272     270     271
     273     272     274     274     276     268     274     276     277
     276     277     280     276     277     279     276     277     278
     276     274     275     277     276     268     278     277     280
     278     277     279     279     277     280     281     284     285
     281     284     286     281     265     266     283     281     282
     283     281     284     283     281     265     284     286     287
     284     281     282     284     262     263     286     284     285
     287     290     291     288     287     286     288     287     290
     288     287     289     289     287     286     289     287     290
     290     291     293     290     291     292     290     291     294
     290     287     286     291     294     295     291     294     316
     291     294     296     292     291     293     294     316     317
     294     316     318     294     316     313     294     296     297
     294     291     293     294     291     292     296     297     298
     296     297     313     296     297     299     296     294     295
     296     294     316     297     313     314     297     313     316
     297     299     300     297     299     302     299     302     303
     299     302     304     299     300     308     299     300     301
     299     297     298     299     297     313     301     300     308
     302     304     306     302     304     305     302     299     300
     304     306     307     304     306     308     304     302     303
     305     304     306     306     308     300     306     308     309
     308     309     312     308     309     311     308     309     310
     308     306     307     309     308     300     310     309     312
     310     309     311     311     309     312     313     316     317
     313     316     318     313     297     298     315     313     314
     315     313     316     315     313     297     316     318     319
     316     313     314     316     294     295     318     316     317
     319     322     323     320     319     318     320     319     322
     320     319     321     321     319     318     321     319     322
     322     323     325     322     323     324     322     323     326
     322     319     318     323     326     327     323     326     348
     323     326     328     324     323     325     326     348     349
     326     348     350     326     348     345     326     328     329
     326     323     325     326     323     324     328     329     330
     328     329     345     328     329     331     328     326     327
     328     326     348     329     345     346     329     345     348
     329     331     332     329     331     334     331     334     335
     331     334     336     331     332     340     331     332     333
     331     329     330     331     329     345     333     332     340
     334     336     338     334     336     337     334     331     332
     336     338     339     336     338     340     336     334     335
     337     336     338     338     340     332     338     340     341
     340     341     344     340     341     343     340     341     342
     340     338     339     341     340     332     342     341     344
     342     341     343     343     341     344     345     348     349
     345     348     350     345     329     330     347     345     346
     347     345     348     347     345     329     348     350     351
     348     345     346     348     326     327     350     348     349
     351     354     355     352     351     350     352     351     354
     352     351     353     353     351     350     353     351     354
     354     355     357     354     355     356     354     355     358
     354     351     350     355     358     359     355     358     380
     355     358     360     356     355     357     358     380     381
     358     380     382     358     380     377     358     360     361
     358     355     357     358     355     356     360     361     362
     360     361     377     360     361     363     360     358     359
     360     358     380     361     377     378     361     377     380
     361     363     364     361     363     366     363     366     367
     363     366     368     363     364     372     363     364     365
     363     361     362     363     361     377     365     364     372
     366     368     370     366     368     369     366     363     364
     368     370     371     368     370     372     368     366     367
     369     368     370     370     372     364     370     372     373
     372     373     376     372     373     375     372     373     374
     372     370     371     373     372     364     374     373     376
     374     373     375     375     373     376     377     380     381
     377     380     382     377     361     362     379     377     378
     379     377     380     379     377     361     380     382     383
     380     377     378     380     358     359     382     380     381
     383     386     387     384     383     382     384     383     386
     384     383     385     385     383     382     385     383     386
     386     387     389     386     387     388     386     387     390
     386     383     382     387     390     391     387     390     412
     387     390     392     388     387     389     390     412     413
     390     412     414     390     412     409     390     392     393
     390     387     389     390     387     388     392     393     394
     392     393     409     392     393     395     392     390     391
     392     390     412     393     409     410     393     409     412
     393     395     396     393     395     398     395     398     399
     395     398     400     395     396     404     395     396     397
     395     393     394     395     393     409     397     396     404
     398     400     402     398     400     401     398     395     396
     400     402     403     400     402     404     400     398     399
     401     400     402     402     404     396     402     404     405
     404     405     408     404     405     407     404     405     406
     404     402     403     405     404     396     406     405     408
     406     405     407     407     405     408     409     412     413
     409     412     414     409     393     394     411     409     410
     411     409     412     411     409     393     412     414     415
     412     409     410     412     390     391     414     412     413
     415     418     419     416     415     414     416     415     418
     416     415     417     417     415     414     417     415     418
     418     419     421     418     419     420     418     419     422
     418     415     414     419     422     423     419     422     444
     419     422     424     420     419     421     422     444     445
     422     444     446     422     444     441     422     424     425
     422     419     421     422     419     420     424     425     426
     424     425     441     424     425     427     424     422     423
     424     422     444     425     441     442     425     441     444
     425     427     428     425     427     430     427     430     431
     427     430     432     427     428     436     427     428     429
     427     425     426     427     425     441     429     428     436
     430     432     434     430     432     433     430     427     428
     432     434     435     432     434     436     432     430     431
     433     432     434     434     436     428     434     436     437
     436     437     440     436     437     439     436     437     438
     436     434     435     437     436     428     438     437     440
     438     437     439     439     437     440     441     444     445
     441     444     446     441     425     426     443     441     442
     443     441     444     443     441     425     444     446     447
     444     441     442     444     422     423     446     444     445
     447     450     451     448     447     446     448     447     450
     448     447     449     449     447     446     449     447     450
     450     451     453     450     451     452     450     451     454
     450     447     446     451     454     455     451     454     476
     451     454     456     452     451     453     454     476     477
     454     476     478     454     476     473     454     456     457
     454     451     453     454     451     452     456     457     458
     456     457     473     456     457     459     456     454     455
     456     454     476     457     473     474     457     473     476
     457     459     460     457     459     462     459     462     463
     459     462     464     459     460     468     459     460     461
     459     457     458     459     457     473     461     460     468
     462     464     466     462     464     465     462     459     460
     464     466     467     464     466     468     464     462     463
     465     464     466     466     468     460     466     468     469
     468     469     472     468     469     471     468     469     470
     468     466     467     469     468     460     470     469     472
     470     469     471     471     469     472     473     476     477
     473     476     478     473     457     458     475     473     474
     475     473     476     475     473     457     476     478     479
     476     473     474     476     454     455     478     476     477
     479     482     483     480     479     478     480     479     482
     480     479     481     481     479     478     481     479     482
     482     483     485     482     483     484     482     483     486
     482     479     478     483     486     487     483     486     508
     483     486     488     484     483     485     486     508     509
     486     508     510     486     508     505     486     488     489
     486     483     485     486     483     484     488     489     490
     488     489     505     488     489     491     488     486     487
     488     486     508     489     505     506     489     505     508
     489     491     492     489     491     494     491     494     495
     491     494     496     491     492     500     491     492     493
     491     489     490     491     489     505     493     492     500
     494     496     498     494     496     497     494     491     492
     496     498     499     496     498     500     496     494     495
     497     496     498     498     500     492     498     500     501
     500     501     504     500     501     503     500     501     502
     500     498     499     501     500     492     502     501     504
     502     501     503     503     501     504     505     508     509
     505     508     510     505     489     490     507     505     506
     507     505     508     507     505     489     508     510     511
     508     505     506     508     486     487     510     508     509
     511     514     515     512     511     510     512     511     514
     512     511     513     513     511     510     513     511     514
     514     515     517     514     515     516     514     515     518
     514     511     510     515     518     519     515     518     540
     515     518     520     516     515     517     518     540     541
     518     540     542     518     540     537     518     520     521
     518     515     517     518     515     516     520     521     522
     520     521     537     520     521     523     520     518     519
     520     518     540     521     537     538     521     537     540
     521     523     524     521     523     526     523     526     527
     523     526     528     523     524     532     523     524     525
     523     521     522     523     521     537     525     524     532
     526     528     530     526     528     529     526     523     524
     528     530     531     528     530     532     528     526     527
     529     528     530     530     532     524     530     532     533
     532     533     536     532     533     535     532     533     534
     532     530     531     533     532     524     534     533     536
     534     533     535     535     533     536     537     540     541
     537     540     542     537     521     522     539     537     538
     539     537     540     539     537     521     540     542     543
     540     537     538     540     518     519     542     540     541
     543     546     547     544     543     542     544     543     546
     544     543     545     545     543     542     545     543     546
     546     547     549     546     547     548     546     547     550
     546     543     542     547     550     551     547     550     572
     547     550     552     548     547     549     550     572     573
     550     572     574     550     572     569     550     552     553
     550     547     549     550     547     548     552     553     554
     552     553     569     552     553     555     552     550     551
     552     550     572     553     569     570     553     569     572
     553     555     556     553     555     558     555     558     559
     555     558     560     555     556     564     555     556     557
     555     553     554     555     553     569     557     556     564
     558     560     562     558     560     561     558     555     556
     560     562     563     560     562     564     560     558     559
     561     560     562     562     564     556     562     564     565
     564     565     568     564     565     567     564     565     566
     564     562     563     565     564     556     566     565     568
     566     565     567     567     565     568     569     572     573
     569     572     574     569     553     554     571     569     570
     571     569     572     571     569     553     572     574     575
     572     569     570     572     550     551     574     572     573
     575     578     579     576     575     574     576     575     578
     576     575     577     577     575     574     577     575     578
     578     579     581     578     579     580     578     579     582
     578     575     574     579     582     583     579     582     604
     579     582     584     580     579     581     582     604     605
     582     604     606     582     604     601     582     584     585
     582     579     581     582     579     580     584     585     586
     584     585     601     584     585     587     584     582     583
     584     582     604     585     601     602     585     601     604
     585     587     588     585     587     590     587     590     591
     587     590     592     587     588     596     587     588     589
     587     585     586     587     585     601     589     588     596
     590     592     594     590     592     593     590     587     588
     592     594     595     592     594     596     592     590     591
     593     592     594     594     596     588     594     596     597
     596     597     600     596     597     599     596     597     598
     596     594     595     597     596     588     598     597     600
     598     597     599     599     597     600     601     604     605
     601     604     606     601     585     586     603     601     602
     603     601     604     603     601     585     604     606     607
     604     601     602     604     582     583     606     604     605
     607     610     611     608     607     606     608     607     610
     608     607     609     609     607     606     609     607     610
     610     611     613     610     611     612     610     611     614
     610     607     606     611     614     615     611     614     636
     611     614     616     612     611     613     614     636     637
     614     636     638     614     636     633     614     616     617
     614     611     613     614     611     612     616     617     618
     616     617     633     616     617     619     616     614     615
     616     614     636     617     633     634     617     633     636
     617     619     620     617     619     622     619     622     623
     619     622     624     619     620     628     619     620     621
     619     617     618     619     617     633     621     620     628
     622     624     626     622     624     625     622     619     620
     624     626     627     624     626     628     624     622     623
     625     624     626     626     628     620     626     628     629
     628     629     632     628     629     631     628     629     630
     628     626     627     629     628     620     630     629     632
     630     629     631     631     629     632     633     636     637
     633     636     638     633     617     618     635     633     634
     635     633     636     635     633     617     636     638     639
     636     633     634     636     614     615     638     636     637
     639     642     643     640     639     638     640     639     642
     640     639     641     641     639     638     641     639     642
     642     643     645     642     643     644     642     643     646
     642     639     638     643     646     647     643     646     668
     643     646     648     644     643     645     646     668     669
     646     668     670     646     668     665     646     648     649
     646     643     645     646     643     644     648     649     650
     648     649     665     648     649     651     648     646     647
     648     646     668     649     665     666     649     665     668
     649     651     652     649     651     654     651     654     655
     651     654     656     651     652     660     651     652     653
     651     649     650     651     649     665     653     652     660
     654     656     658     654     656     657     654     651     652
     656     658     659     656     658     660     656     654     655
     657     656     658     658     660     652     658     660     661
     660     661     664     660     661     663     660     661     662
     660     658     659     661     660     652     662     661     664
     662     661     663     663     661     664     665     668     669
     665     668     670     665     649     650     667     665     666
     667     665     668     667     665     649     668     670     671
     668     665     666     668     646     647     670     668     669
     671     674     675     672     671     670     672     671     674
     672     671     673     673     671     670     673     671     674
     674     675     677     674     675     676     674     675     678
     674     671     670     675     678     679     675     678     700
     675     678     680     676     675     677     678     700     701
     678     700     702     678     700     697     678     680     681
     678     675     677     678     675     676     680     681     682
     680     681     697     680     681     683     680     678     679
     680     678     700     681     697     698     681     697     700
     681     683     684     681     683     686     683     686     687
     683     686     688     683     684     692     683     684     685
     683     681     682     683     681     697     685     684     692
     686     688     690     686     688     689     686     683     684
     688     690     691     688     690     692     688     686     687
     689     688     690     690     692     684     690     692     693
     692     693     696     692     693     695     692     693     694
     692     690     691     693     692     684     694     693     696
     694     693     695     695     693     696     697     700     701
     697     700     702     697     681     682     699     697     698
     699     697     700     699     697     681     700     702     703
     700     697     698     700     678     679     702     700     701
     703     706     707     704     703     702     704     703     706
     704     703     705     705     703     702     705     703     706
     706     707     709     706     707     708     706     707     710
     706     703     702     707     710     711     707     710     732
     707     710     712     708     707     709     710     732     733
     710     732     734     710     732     729     710     712     713
     710     707     709     710     707     708     712     713     714
     712     713     729     712     713     715     712     710     711
     712     710     732     713     729     730     713     729     732
     713     715     716     713     715     718     715     718     719
     715     718     720     715     716     724     715     716     717
     715     713     714     715     713     729     717     716     724
     718     720     722     718     720     721     718     715     716
     720     722     723     720     722     724     720     718     719
     721     720     722     722     724     716     722     724     725
     724     725     728     724     725     727     724     725     726
     724     722     723     725     724     716     726     725     728
     726     725     727     727     725     728     729     732     733
     729     732     734     729     713     714     731     729     730
     731     729     732     731     729     713     732     734     735
     732     729     730     732     710     711     734     732     733
     735     738     739     736     735     734     736     735     738
     736     735     737     737     735     734     737     735     738
     738     739     741     738     739     740     738     739     742
     738     735     734     739     742     743     739     742     764
     739     742     744     740     739     741     742     764     765
     742     764     766     742     764     761     742     744     745
     742     739     741     742     739     740     744     745     746
     744     745     761     744     745     747     744     742     743
     744     742     764     745     761     762     745     761     764
     745     747     748     745     747     750     747     750     751
     747     750     752     747     748     756     747     748     749
     747     745     746     747     745     761     749     748     756
     750     752     754     750     752     753     750     747     748
     752     754     755     752     754     756     752     750     751
     753     752     754     754     756     748     754     756     757
     756     757     760     756     757     759     756     757     758
     756     754     755     757     756     748     758     757     760
     758     757     759     759     757     760     761     764     765
     761     764     766     761     745     746     763     761     762
     763     761     764     763     761     745     764     766     767
     764     761     762     764     742     743     766     764     765
     767     770     771     768     767     766     768     767     770
     768     767     769     769     767     766     769     767     770
     770     771     773     770     771     772     770     771     774
     770     767     766     771     774     775     771     774     796
     771     774     776     772     771     773     774     796     797
     774     796     798     774     796     793     774     776     777
     774     771     773     774     771     772     776     777     778
     776     777     793     776     777     779     776     774     775
     776     774     796     777     793     794     777     793     796
     777     779     780     777     779     782     779     782     783
     779     782     784     779     780     788     779     780     781
     779     777     778     779     777     793     781     780     788
     782     784     786     782     784     785     782     779     780
     784     786     787     784     786     788     784     782     783
     785     784     786     786     788     780     786     788     789
     788     789     792     788     789     791     788     789     790
     788     786     787     789     788     780     790     789     792
     790     789     791     791     789     792     793     796     797
     793     796     798     793     777     778     795     793     794
     795     793     796     795     793     777     796     798     799
     796     793     794     796     774     775     798     796     797
     799     802     803     800     799     798     800     799     802
     800     799     801     801     799     798     801     799     802
     802     803     805     802     803     804     802     803     806
     802     799     798     803     806     807     803     806     828
     803     806     808     804     803     805     806     828     829
     806     828     830     806     828     825     806     808     809
     806     803     805     806     803     804     808     809     810
     808     809     825     808     809     811     808     806     807
     808     806     828     809     825     826     809     825     828
     809     811     812     809     811     814     811     814     815
     811     814     816     811     812     820     811     812     813
     811     809     810     811     809     825     813     812     820
     814     816     818     814     816     817     814     811     812
     816     818     819     816     818     820     816     814     815
     817     816     818     818     820     812     818     820     821
     820     821     824     820     821     823     820     821     822
     820     818     819     821     820     812     822     821     824
     822     821     823     823     821     824     825     828     829
     825     828     830     825     809     810     827     825     826
     827     825     828     827     825     809     828     830     831
     828     825     826     828     806     807     830     828     829
     831     834     835     832     831     830     832     831     834
     832     831     833     833     831     830     833     831     834
     834     835     837     834     835     836     834     835     838
     834     831     830     835     838     839     835     838     860
     835     838     840     836     835     837     838     860     861
     838     860     862     838     860     857     838     840     841
     838     835     837     838     835     836     840     841     842
     840     841     857     840     841     843     840     838     839
     840     838     860     841     857     858     841     857     860
     841     843     844     841     843     846     843     846     847
     843     846     848     843     844     852     843     844     845
     843     841     842     843     841     857     845     844     852
     846     848     850     846     848     849     846     843     844
     848     850     851     848     850     852     848     846     847
     849     848     850     850     852     844     850     852     853
     852     853     856     852     853     855     852     853     854
     852     850     851     853     852     844     854     853     856
     854     853     855     855     853     856     857     860     861
     857     860     862     857     841     842     859     857     858
     859     857     860     859     857     841     860     862     863
     860     857     858     860     838     839     862     860     861
     863     866     867     864     863     862     864     863     866
     864     863     865     865     863     862     865     863     866
     866     867     869     866     867     868     866     867     870
     866     863     862     867     870     871     867     870     892
     867     870     872     868     867     869     870     892     893
     870     892     894     870     892     889     870     872     873
     870     867     869     870     867     868     872     873     874
     872     873     889     872     873     875     872     870     871
     872     870     892     873     889     890     873     889     892
     873     875     876     873     875     878     875     878     879
     875     878     880     875     876     884     875     876     877
     875     873     874     875     873     889     877     876     884
     878     880     882     878     880     881     878     875     876
     880     882     883     880     882     884     880     878     879
     881     880     882     882     884     876     882     884     885
     884     885     888     884     885     887     884     885     886
     884     882     883     885     884     876     886     885     888
     886     885     887     887     885     888     889     892     893
     889     892     894     889     873     874     891     889     890
     891     889     892     891     889     873     892     894     895
     892     889     890     892     870     871     894     892     893
     895     898     899     896     895     894     896     895     898
     896     895     897     897     895     894     897     895     898
     898     899     901     898     899     900     898     899     902
     898     895     894     899     902     903     899     902     924
     899     902     904     900     899     901     902     924     925
     902     924     926     902     924     921     902     904     905
     902     899     901     902     899     900     904     905     906
     904     905     921     904     905     907     904     902     903
     904     902     924     905     921     922     905     921     924
     905     907     908     905     907     910     907     910     911
     907     910     912     907     908     916     907     908     909
     907     905     906     907     905     921     909     908     916
     910     912     914     910     912     913     910     907     908
     912     914     915     912     914     916     912     910     911
     913     912     914     914     916     908     914     916     917
     916     917     920     916     917     919     916     917     918
     916     914     915     917     916     908     918     917     920
     918     917     919     919     917     920     921     924     925
     921     924     926     921     905     906     923     921     922
     923     921     924     923     921     905     924     926     927
     924     921     922     924     902     903     926     924     925
     927     930     931     928     927     926     928     927     930
     928     927     929     929     927     926     929     927     930
     930     931     933     930     931     932     930     931     934
     930     927     926     931     934     935     931     934     956
     931     934     936     932     931     933     934     956     957
     934     956     958     934     956     953     934     936     937
     934     931     933     934     931     932     936     937     938
     936     937     953     936     937     939     936     934     935
     936     934     956     937     953     954     937     953     956
     937     939     940     937     939     942     939     942     943
     939     942     944     939     940     948     939     940     941
     939     937     938     939     937     953     941     940     948
     942     944     946     942     944     945     942     939     940
     944     946     947     944     946     948     944     942     943
     945     944     946     946     948     940     946     948     949
     948     949     952     948     949     951     948     949     950
     948     946     947     949     948     940     950     949     952
     950     949     951     951     949     952     953     956     957
     953     956     958     953     937     938     955     953     954
     955     953     956     955     953     937     956     958     959
     956     953     954     956     934     935     958     956     957
     959     962     963     960     959     958     960     959     962
     960     959     961     961     959     958     961     959     962
     962     963     965     962     963     964     962     963     966
     962     959     958     963     966     967     963     966     988
     963     966     968     964     963     965     966     988     989
     966     988     990     966     988     985     966     968     969
     966     963     965     966     963     964     968     969     970
     968     969     985     968     969     971     968     966     967
     968     966     988     969     985     986     969     985     988
     969     971     972     969     971     974     971     974     975
     971     974     976     971     972     980     971     972     973
     971     969     970     971     969     985     973     972     980
     974     976     978     974     976     977     974     971     972
     976     978     979     976     978     980     976     974     975
     977     976     978     978     980     972     978     980     981
     980     981     984     980     981     983     980     981     982
     980     978     979     981     980     972     982     981     984
     982     981     983     983     981     984     985     988     989
     985     988     990     985     969     970     987     985     986
     987     985     988     987     985     969     988     990     991
     988     985     986     988     966     967     990     988     989
     991     994     995     992     991     990     992     991     994
     992     991     993     993     991     990     993     991     994
     994     995     997     994     995     996     994     995     998
     994     991     990     995     998     999     995     998    1020
     995     998    1000     996     995     997     998    1020    1021
     998    1020    1022     998    1020    1017     998    1000    1001
     998     995     997     998     995     996    1000    1001    1002
    1000    1001    1017    1000    1001    1003    1000     998     999
    1000     998    1020    1001    1017    1018    1001    1017    1020
    1001    1003    1004    1001    1003    1006    1003    1006    1007
    1003    1006    1008    1003    1004    1012    1003    1004    1005
    1003    1001    1002    1003    1001    1017    1005    1004    1012
    1006    1008    1010    1006    1008    1009    1006    1003    1004
    1008    1010    1011    1008    1010    1012    1008    1006    1007
    1009    1008    1010    1010    1012    1004    1010    1012    1013
    1012    1013    1016    1012    1013    1015    1012    1013    1014
    1012    1010    1011    1013    1012    1004    1014    1013    1016
    1014    1013    1015    1015    1013    1016    1017    1020    1021
    1017    1020    1022    1017    1001    1002    1019    1017    1018
    1019    1017    1020    1019    1017    1001    1020    1022    1023
    1020    1017    1018    1020     998     999    1022    1020    1021
    1023    1026    1027    1024    1023    1022    1024    1023    1026
    1024    1023    1025    1025    1023    1022    1025    1023    1026
    1026    1027    1029    1026    1027    1028    1026    1027    1030
    1026    1023    1022    1027    1030    1031    1027    1030    1052
    1027    1030    1032    1028    1027    1029    1030    1052    1053
    1030    1052    1054    1030    1052    1049    1030    1032    1033
    1030    1027    1029    1030    1027    1028    1032    1033    1034
    1032    1033    1049    1032    1033    1035    1032    1030    1031
    1032    1030    1052    1033    1049    1050    1033    1049    1052
    1033    1035    1036    1033    1035    1038    1035    1038    1039
    1035    1038    1040    1035    1036    1044    1035    1036    1037
    1035    1033    1034    1035    1033    1049    1037    1036    1044
    1038    1040    1042    1038    1040    1041    1038    1035    1036
    1040    1042    1043    1040    1042    1044    1040    1038    1039
    1041    1040    1042    1042    1044    1036    1042    1044    1045
    1044    1045    1048    1044    1045    1047    1044    1045    1046
    1044    1042    1043    1045    1044    1036    1046    1045    1048
    1046    1045    1047    1047    1045    1048    1049    1052    1053
    1049    1052    1054    1049    1033    1034    1051    1049    1050
    1051    1049    1052    1051    1049    1033    1052    1054    1055
    1052    1049    1050    1052    1030    1031    1054    1052    1053
    1055    1058    1059    1056    1055    1054    1056    1055    1058
    1056    1055    1057    1057    1055    1054    1057    1055    1058
    1058    1059    1061    1058    1059    1060    1058    1059    1062
    1058    1055    1054    1059    1062    1063    1059    1062    1084
    1059    1062    1064    1060    1059    1061    1062    1084    1085
    1062    1084    1086    1062    1084    1081    1062    1064    1065
    1062    1059    1061    1062    1059    1060    1064    1065    1066
    1064    1065    1081    1064    1065    1067    1064    1062    1063
    1064    1062    1084    1065    1081    1082    1065    1081    1084
    1065    1067    1068    1065    1067    1070    1067    1070    1071
    1067    1070    1072    1067    1068    1076    1067    1068    1069
    1067    1065    1066    1067    1065    1081    1069    1068    1076
    1070    1072    1074    1070    1072    1073    1070    1067    1068
    1072    1074    1075    1072    1074    1076    1072    1070    1071
    1073    1072    1074    1074    1076    1068    1074    1076    1077
    1076    1077    1080    1076    1077    1079    1076    1077    1078
    1076    1074    1075    1077    1076    1068    1078    1077    1080
    1078    1077    1079    1079    1077    1080    1081    1084    1085
    1081    1084    1086    1081    1065    1066    1083    1081    1082
    1083    1081    1084    1083    1081    1065    1084    1086    1087
    1084    1081    1082    1084    1062    1063    1086    1084    1085
    1087    1090    1091    1088    1087    1086    1088    1087    1090
    1088    1087    1089    1089    1087    1086    1089    1087    1090
    1090    1091    1093    1090    1091    1092    1090    1091    1094
    1090    1087    1086    1091    1094    1095    1091    1094    1116
    1091    1094    1096    1092    1091    1093    1094    1116    1117
    1094    1116    1118    1094    1116    1113    1094    1096    1097
    1094    1091    1093    1094    1091    1092    1096    1097    1098
    1096    1097    1113    1096    1097    1099    1096    1094    1095
    1096    1094    1116    1097    1113    1114    1097    1113    1116
    1097    1099    1100    1097    1099    1102    1099    1102    1103
    1099    1102    1104    1099    1100    1108    1099    1100    1101
    1099    1097    1098    1099    1097    1113    1101    1100    1108
    1102    1104    1106    1102    1104    1105    1102    1099    1100
    1104    1106    1107    1104    1106    1108    1104    1102    1103
    1105    1104    1106    1106    1108    1100    1106    1108    1109
    1108    1109    1112    1108    1109    1111    1108    1109    1110
    1108    1106    1107    1109    1108    1100    1110    1109    1112
    1110    1109    1111    1111    1109    1112    1113    1116    1117
    1113    1116    1118    1113    1097    1098    1115    1113    1114
    1115    1113    1116    1115    1113    1097    1116    1118    1119
    1116    1113    1114    1116    1094    1095    1118    1116    1117
    1119    1122    1123    1120    1119    1118    1120    1119    1122
    1120    1119    1121    1121    1119    1118    1121    1119    1122
    1122    1123    1125    1122    1123    1124    1122    1123    1126
    1122    1119    1118    1123    1126    1127    1123    1126    1148
    1123    1126    1128    1124    1123    1125    1126    1148    1149
    1126    1148    1150    1126    1148    1145    1126    1128    1129
    1126    1123    1125    1126    1123    1124    1128    1129    1130
    1128    1129    1145    1128    1129    1131    1128    1126    1127
    1128    1126    1148    1129    1145    1146    1129    1145    1148
    1129    1131    1132    1129    1131    1134    1131    1134    1135
    1131    1134    1136    1131    1132    1140    1131    1132    1133
    1131    1129    1130    1131    1129    1145    1133    1132    1140
    1134    1136    1138    1134    1136    1137    1134    1131    1132
    1136    1138    1139    1136    1138    1140    1136    1134    1135
    1137    1136    1138    1138    1140    1132    1138    1140    1141
    1140    1141    1144    1140    1141    1143    1140    1141    1142
    1140    1138    1139    1141    1140    1132    1142    1141    1144
    1142    1141    1143    1143    1141    1144    1145    1148    1149
    1145    1148    1150    1145    1129    1130    1147    1145    1146
    1147    1145    1148    1147    1145    1129    1148    1150    1151
    1148    1145    1146    1148    1126    1127    1150    1148    1149
    1151    1154    1155    1152    1151    1150    1152    1151    1154
    1152    1151    1153    1153    1151    1150    1153    1151    1154
    1154    1155    1157    1154    1155    1156    1154    1155    1158
    1154    1151    1150    1155    1158    1159    1155    1158    1180
    1155    1158    1160    1156    1155    1157    1158    1180    1181
    1158    1180    1182    1158    1180    1177    1158    1160    1161
    1158    1155    1157    1158    1155    1156    1160    1161    1162
    1160    1161    1177    1160    1161    1163    1160    1158    1159
    1160    1158    1180    1161    1177    1178    1161    1177    1180
    1161    1163    1164    1161    1163    1166    1163    1166    1167
    1163    1166    1168    1163    1164    1172    1163    1164    1165
    1163    1161    1162    1163    1161    1177    1165    1164    1172
    1166    1168    1170    1166    1168    1169    1166    1163    1164
    1168    1170    1171    1168    1170    1172    1168    1166    1167
    1169    1168    1170    1170    1172    1164    1170    1172    1173
    1172    1173    1176    1172    1173    1175    1172    1173    1174
    1172    1170    1171    1173    1172    1164    1174    1173    1176
    1174    1173    1175    1175    1173    1176    1177    1180    1181
    1177    1180    1182    1177    1161    1162    1179    1177    1178
    1179    1177    1180    1179    1177    1161    1180    1182    1183
    1180    1177    1178    1180    1158    1159    1182    1180    1181
    1183    1186    1187    1184    1183    1182    1184    1183    1186
    1184    1183    1185    1185    1183    1182    1185    1183    1186
    1186    1187    1189    1186    1187    1188    1186    1187    1190
    1186    1183    1182    1187    1190    1191    1187    1190    1212
    1187    1190    1192    1188    1187    1189    1190    1212    1213
    1190    1212    1214    1190    1212    1209    1190    1192    1193
    1190    1187    1189    1190    1187    1188    1192    1193    1194
    1192    1193    1209    1192    1193    1195    1192    1190    1191
    1192    1190    1212    1193    1209    1210    1193    1209    1212
    1193    1195    1196    1193    1195    1198    1195    1198    1199
    1195    1198    1200    1195    1196    1204    1195    1196    1197
    1195    1193    1194    1195    1193    1209    1197    1196    1204
    1198    1200    1202    1198    1200    1201    1198    1195    1196
    1200    1202    1203    1200    1202    1204    1200    1198    1199
    1201    1200    1202    1202    1204    1196    1202    1204    1205
    1204    1205    1208    1204    1205    1207    1204    1205    1206
    1204    1202    1203    1205    1204    1196    1206    1205    1208
    1206    1205    1207    1207    1205    1208    1209    1212    1213
    1209    1212    1214    1209    1193    1194    1211    1209    1210
    1211    1209    1212    1211    1209    1193    1212    1214    1215
    1212    1209    1210    1212    1190    1191    1214    1212    1213
    1215    1218    1219    1216    1215    1214    1216    1215    1218
    1216    1215    1217    1217    1215    1214    1217    1215    1218
    1218    1219    1221    1218    1219    1220    1218    1219    1222
    1218    1215    1214    1219    1222    1223    1219    1222    1244
    1219    1222    1224    1220    1219    1221    1222    1244    1245
    1222    1244    1246    1222    1244    1241    1222    1224    1225
    1222    1219    1221    1222    1219    1220    1224    1225    1226
    1224    1225    1241    1224    1225    1227    1224    1222    1223
    1224    1222    1244    1225    1241    1242    1225    1241    1244
    1225    1227    1228    1225    1227    1230    1227    1230    1231
    1227    1230    1232    1227    1228    1236    1227    1228    1229
    1227    1225    1226    1227    1225    1241    1229    1228    1236
    1230    1232    1234    1230    1232    1233    1230    1227    1228
    1232    1234    1235    1232    1234    1236    1232    1230    1231
    1233    1232    1234    1234    1236    1228    1234    1236    1237
    1236    1237    1240    1236    1237    1239    1236    1237    1238
    1236    1234    1235    1237    1236    1228    1238    1237    1240
    1238    1237    1239    1239    1237    1240    1241    1244    1245
    1241    1244    1246    1241    1225    1226    1243    1241    1242
    1243    1241    1244    1243    1241    1225    1244    1246    1247
    1244    1241    1242    1244    1222    1223    1246    1244    1245
    1247    1250    1251    1248    1247    1246    1248    1247    1250
    1248    1247    1249    1249    1247    1246    1249    1247    1250
    1250    1251    1253    1250    1251    1252    1250    1251    1254
    1250    1247    1246    1251    1254    1255    1251    1254    1276
    1251    1254    1256    1252    1251    1253    1254    1276    1277
    1254    1276    1278    1254    1276    1273    1254    1256    1257
    1254    1251    1253    1254    1251    1252    1256    1257    1258
    1256    1257    1273    1256    1257    1259    1256    1254    1255
    1256    1254    1276    1257    1273    1274    1257    1273    1276
    1257    1259    1260    1257    1259    1262    1259    1262    1263
    1259    1262    1264    1259    1260    1268    1259    1260    1261
    1259    1257    1258    1259    1257    1273    1261    1260    1268
    1262    1264    1266    1262    1264    1265    1262    1259    1260
    1264    1266    1267    1264    1266    1268    1264    1262    1263
    1265    1264    1266    1266    1268    1260    1266    1268    1269
    1268    1269    1272    1268    1269    1271    1268    1269    1270
    1268    1266    1267    1269    1268    1260    1270    1269    1272
    1270    1269    1271    1271    1269    1272    1273    1276    1277
    1273    1276    1278    1273    1257    1258    1275    1273    1274
    1275    1273    1276    1275    1273    1257    1276    1273    1274
    1276    1254    1255    1278    1276    1277    1279    1278    1276
    1281    1280    1282    1284    1283    1285    1287    1286    1288
    1290    1289    1291    1293    1292    1294    1296    1295    1297
    1299    1298    1300    1302    1301    1303    1305    1304    1306
    1308    1307    1309    1311    1310    1312    1314    1313    1315
    1317    1316    1318    1320    1319    1321    1323    1322    1324
    1326    1325    1327    1329    1328    1330    1332    1331    1333
    1335    1334    1336    1338    1337    1339    1341    1340    1342
    1344    1343    1345    1347    1346    1348    1350    1349    1351
    1353    1352    1354    1356    1355    1357    1359    1358    1360
    1362    1361    1363    1365    1364    1366    1368    1367    1369
    1371    1370    1372    1374    1373    1375    1377    1376    1378
    1380    1379    1381    1383    1382    1384    1386    1385    1387
    1389    1388    1390    1392    1391    1393    1395    1394    1396
    1398    1397    1399    1401    1400    1402    1404    1403    1405
    1407    1406    1408    1410    1409    1411    1413    1412    1414
    1416    1415    1417    1419    1418    1420    1422    1421    1423
    1425    1424    1426    1428    1427    1429    1431    1430    1432
    1434    1433    1435    1437    1436    1438    1440    1439    1441
    1443    1442    1444    1446    1445    1447    1449    1448    1450
    1452    1451    1453    1455    1454    1456    1458    1457    1459
    1461    1460    1462    1464    1463    1465    1467    1466    1468
    1470    1469    1471    1473    1472    1474    1476    1475    1477
    1479    1478    1480    1482    1481    1483    1485    1484    1486
    1488    1487    1489    1491    1490    1492    1494    1493    1495
    1497    1496    1498    1500    1499    1501    1503    1502    1504
    1506    1505    1507    1509    1508    1510    1512    1511    1513
    1515    1514    1516    1518    1517    1519    1521    1520    1522
    1524    1523    1525    1527    1526    1528    1530    1529    1531
    1533    1532    1534    1536    1535    1537    1539    1538    1540
    1542    1541    1543    1545    1544    1546    1548    1547    1549
    1551    1550    1552    1554    1553    1555    1557    1556    1558
    1560    1559    1561    1563    1562    1564    1566    1565    1567
    1569    1568    1570    1572    1571    1573    1575    1574    1576
    1578    1577    1579    1581    1580    1582    1584    1583    1585
    1587    1586    1588    1590    1589    1591    1593    1592    1594
    1596    1595    1597    1599    1598    1600    1602    1601    1603
    1605    1604    1606    1608    1607    1609    1611    1610    1612
    1614    1613    1615    1617    1616    1618    1620    1619    1621
    1623    1622    1624    1626    1625    1627    1629    1628    1630
    1632    1631    1633    1635    1634    1636    1638    1637    1639
    1641    1640    1642    1644    1643    1645    1647    1646    1648
    1650    1649    1651    1653    1652    1654    1656    1655    1657
    1659    1658    1660    1662    1661    1663    1665    1664    1666
    1668    1667    1669    1671    1670    1672    1674    1673    1675
    1677    1676    1678    1680    1679    1681    1683    1682    1684
    1686    1685    1687    1689    1688    1690    1692    1691    1693
    1695    1694    1696    1698    1697    1699    1701    1700    1702
    1704    1703    1705    1707    1706    1708    1710    1709    1711
    1713    1712    1714    1716    1715    1717    1719    1718    1720
    1722    1721    1723    1725    1724    1726    1728    1727    1729
    1731    1730    1732    1734    1733    1735    1737    1736    1738
    1740    1739    1741    1743    1742    1744    1746    1745    1747
    1749    1748    1750    1752    1751    1753    1755    1754    1756
    1758    1757    1759    1761    1760    1762    1764    1763    1765
    1767    1766    1768    1770    1769    1771    1773    1772    1774
    1776    1775    1777    1779    1778    1780    1782    1781    1783
    1785    1784    1786    1788    1787    1789    1791    1790    1792
    1794    1793    1795    1797    1796    1798    1800    1799    1801
    1803    1802    1804    1806    1805    1807    1809    1808    1810
    1812    1811    1813    1815    1814    1816    1818    1817    1819
    1821    1820    1822    1824    1823    1825    1827    1826    1828
    1830    1829    1831    1833    1832    1834    1836    1835    1837
    1839    1838    1840    1842    1841    1843    1845    1844    1846
    1848    1847    1849    1851    1850    1852    1854    1853    1855
    1857    1856    1858    1860    1859    1861    1863    1862    1864
    1866    1865    1867    1869    1868    1870    1872    1871    1873
    1875    1874    1876    1878    1877    1879    1881    1880    1882
    1884    1883    1885    1887    1886    1888    1890    1889    1891
    1893    1892    1894    1896    1895    1897    1899    1898    1900
    1902    1901    1903    1905    1904    1906    1908    1907    1909
    1911    1910    1912    1914    1913    1915    1917    1916    1918
    1920    1919    1921    1923    1922    1924    1926    1925    1927
    1929    1928    1930    1932    1931    1933    1935    1934    1936
    1938    1937    1939    1941    1940    1942    1944    1943    1945
    1947    1946    1948    1950    1949    1951    1953    1952    1954
    1956    1955    1957    1959    1958    1960    1962    1961    1963
    1965    1964    1966    1968    1967    1969    1971    1970    1972
    1974    1973    1975    1977    1976    1978    1980    1979    1981
    1983    1982    1984    1986    1985    1987    1989    1988    1990
    1992    1991    1993    1995    1994    1996    1998    1997    1999
    2001    2000    2002    2004    2003    2005    2007    2006    2008
    2010    2009    2011    2013    2012    2014    2016    2015    2017
    2019    2018    2020    2022    2021    2023    2025    2024    2026
    2028    2027    2029    2031    2030    2032    2034    2033    2035
    2037    2036    2038    2040    2039    2041    2043    2042    2044
    2046    2045    2047    2049    2048    2050    2052    2051    2053
    2055    2054    2056    2058    2057    2059    2061    2060    2062
    2064    2063    2065    2067    2066    2068    2070    2069    2071
    2073    2072    2074    2076    2075    2077    2079    2078    2080
    2082    2081    2083    2085    2084    2086    2088    2087    2089
    2091    2090    2092    2094    2093    2095    2097    2096    2098
    2100    2099    2101    2103    2102    2104    2106    2105    2107
    2109    2108    2110    2112    2111    2113    2115    2114    2116
    2118    2117    2119    2121    2120    2122    2124    2123    2125
    2127    2126    2128    2130    2129    2131    2133    2132    2134
    2136    2135    2137    2139    2138    2140    2142    2141    2143
    2145    2144    2146    2148    2147    2149    2151    2150    2152
    2154    2153    2155    2157    2156    2158    2160    2159    2161
    2163    2162    2164    2166    2165    2167    2169    2168    2170
    2172    2171    2173    2175    2174    2176    2178    2177    2179
    2181    2180    2182    2184    2183    2185    2187    2186    2188
    2190    2189    2191    2193    2192    2194    2196    2195    2197
    2199    2198    2200    2202    2201    2203    2205    2204    2206
    2208    2207    2209    2211    2210    2212    2214    2213    2215
    2217    2216    2218    2220    2219    2221    2223    2222    2224
    2226    2225    2227    2229    2228    2230    2232    2231    2233
    2235    2234    2236    2238    2237    2239    2241    2240    2242
    2244    2243    2245    2247    2246    2248    2250    2249    2251
    2253    2252    2254    2256    2255    2257    2259    2258    2260
    2262    2261    2263    2265    2264    2266    2268    2267    2269
    2271    2270    2272    2274    2273    2275    2277    2276    2278
    2280    2279    2281    2283    2282    2284    2286    2285    2287
    2289    2288    2290    2292    2291    2293    2295    2294    2296
    2298    2297    2299    2301    2300    2302    2304    2303    2305
    2307    2306    2308    2310    2309    2311    2313    2312    2314
    2316    2315    2317    2319    2318    2320    2322    2321    2323
    2325    2324    2326    2328    2327    2329    2331    2330    2332
    2334    2333    2335    2337    2336    2338    2340    2339    2341
    2343    2342    2344    2346    2345    2347    2349    2348    2350
    2352    2351    2353    2355    2354    2356    2358    2357    2359
    2361    2360    2362    2364    2363    2365    2367    2366    2368
    2370    2369    2371    2373    2372    2374    2376    2375    2377
    2379    2378    2380    2382    2381    2383    2385    2384    2386
    2388    2387    2389    2391    2390    2392    2394    2393    2395
    2397    2396    2398    2400    2399    2401    2403    2402    2404
    2406    2405    2407    2409    2408    2410    2412    2411    2413
    2415    2414    2416    2418    2417    2419    2421    2420    2422
    2424    2423    2425    2427    2426    2428    2430    2429    2431
    2433    2432    2434    2436    2435    2437    2439    2438    2440
    2442    2441    2443    2445    2444    2446    2448    2447    2449
    2451    2450    2452    2454    2453    2455    2457    2456    2458
    2460    2459    2461    2463    2462    2464    2466    2465    2467
    2469    2468    2470    2472    2471    2473    2475    2474    2476
    2478    2477    2479    2481    2480    2482    2484    2483    2485
    2487    2486    2488    2490    2489    2491    2493    2492    2494
    2496    2495    2497    2499    2498    2500    2502    2501    2503
    2505    2504    2506    2508    2507    2509    2511    2510    2512
    2514    2513    2515    2517    2516    2518    2520    2519    2521
    2523    2522    2524    2526    2525    2527    2529    2528    2530
    2532    2531    2533    2535    2534    2536    2538    2537    2539
    2541    2540    2542    2544    2543    2545    2547    2546    2548
    2550    2549    2551    2553    2552    2554    2556    2555    2557
    2559    2558    2560    2562    2561    2563    2565    2564    2566
    2568    2567    2569    2571    2570    2572    2574    2573    2575
    2577    2576    2578    2580    2579    2581    2583    2582    2584
    2586    2585    2587    2589    2588    2590    2592    2591    2593
    2595    2594    2596    2598    2597    2599    2601    2600    2602
    2604    2603    2605    2607    2606    2608    2610    2609    2611
    2613    2612    2614    2616    2615    2617    2619    2618    2620
    2622    2621    2623    2625    2624    2626    2628    2627    2629
    2631    2630    2632    2634    2633    2635    2637    2636    2638
    2640    2639    2641    2643    2642    2644    2646    2645    2647
    2649    2648    2650    2652    2651    2653    2655    2654    2656
    2658    2657    2659    2661    2660    2662    2664    2663    2665
    2667    2666    2668    2670    2669    2671    2673    2672    2674
    2676    2675    2677    2679    2678    2680    2682    2681    2683
    2685    2684    2686    2688    2687    2689    2691    2690    2692
    2694    2693    2695    2697    2696    2698    2700    2699    2701
    2703    2702    2704    2706    2705    2707    2709    2708    2710
    2712    2711    2713    2715    2714    2716    2718    2717    2719
    2721    2720    2722    2724    2723    2725    2727    2726    2728
    2730    2729    2731    2733    2732    2734    2736    2735    2737
    2739    2738    2740    2742    2741    2743    2745    2744    2746
    2748    2747    2749    2751    2750    2752    2754    2753    2755
    2757    2756    2758    2760    2759    2761    2763    2762    2764
    2766    2765    2767    2769    2768    2770    2772    2771    2773
    2775    2774    2776    2778    2777    2779    2781    2780    2782
    2784    2783    2785    2787    2786    2788    2790    2789    2791
    2793    2792    2794    2796    2795    2797    2799    2798    2800
    2802    2801    2803    2805    2804    2806    2808    2807    2809
    2811    2810    2812    2814    2813    2815    2817    2816    2818
    2820    2819    2821    2823    2822    2824    2826    2825    2827
    2829    2828    2830    2832    2831    2833    2835    2834    2836
    2838    2837    2839    2841    2840    2842    2844    2843    2845
    2847    2846    2848    2850    2849    2851    2853    2852    2854
    2856    2855    2857    2859    2858    2860    2862    2861    2863
    2865    2864    2866    2868    2867    2869    2871    2870    2872
    2874    2873    2875    2877    2876    2878    2880    2879    2881
    2883    2882    2884    2886    2885    2887    2889    2888    2890
    2892    2891    2893    2895    2894    2896    2898    2897    2899
    2901    2900    2902    2904    2903    2905    2907    2906    2908
    2910    2909    2911    2913    2912    2914    2916    2915    2917
    2919    2918    2920    2922    2921    2923    2925    2924    2926
    2928    2927    2929    2931    2930    2932    2934    2933    2935
    2937    2936    2938    2940    2939    2941    2943    2942    2944
    2946    2945    2947    2949    2948    2950    2952    2951    2953
    2955    2954    2956    2958    2957    2959    2961    2960    2962
    2964    2963    2965    2967    2966    2968    2970    2969    2971
    2973    2972    2974    2976    2975    2977    2979    2978    2980
    2982    2981    2983    2985    2984    2986    2988    2987    2989
    2991    2990    2992    2994    2993    2995    2997    2996    2998
    3000    2999    3001    3003    3002    3004    3006    3005    3007
    3009    3008    3010    3012    3011    3013    3015    3014    3016
    3018    3017    3019    3021    3020    3022    3024    3023    3025
    3027    3026    3028    3030    3029    3031    3033    3032    3034
    3036    3035    3037    3039    3038    3040    3042    3041    3043
    3045    3044    3046    3048    3047    3049    3051    3050    3052
    3054    3053    3055    3057    3056    3058    3060    3059    3061
    3063    3062    3064    3066    3065    3067    3069    3068    3070
    3072    3071    3073    3075    3074    3076    3078    3077    3079
    3081    3080    3082    3084    3083    3085    3087    3086    3088
    3090    3089    3091    3093    3092    3094    3096    3095    3097
    3099    3098    3100    3102    3101    3103    3105    3104    3106
    3108    3107    3109    3111    3110    3112    3114    3113    3115
    3117    3116    3118    3120    3119    3121    3123    3122    3124
    3126    3125    3127    3129    3128    3130    3132    3131    3133
    3135    3134    3136    3138    3137    3139    3141    3140    3142
    3144    3143    3145    3147    3146    3148    3150    3149    3151
    3153    3152    3154    3156    3155    3157    3159    3158    3160
    3162    3161    3163    3165    3164    3166    3168    3167    3169
    3171    3170    3172    3174    3173    3175    3177    3176    3178
    3180    3179    3181    3183    3182    3184    3186    3185    3187
    3189    3188    3190    3192    3191    3193    3195    3194    3196
    3198    3197    3199    3201    3200    3202    3204    3203    3205
    3207    3206    3208    3210    3209    3211    3213    3212    3214
    3216    3215    3217    3219    3218    3220    3222    3221    3223
    3225    3224    3226    3228    3227    3229    3231    3230    3232
    3234    3233    3235    3237    3236    3238    3240    3239    3241
    3243    3242    3244    3246    3245    3247    3249    3248    3250
    3252    3251    3253    3255    3254    3256    3258    3257    3259
    3261    3260    3262    3264    3263    3265    3267    3266    3268
    3270    3269    3271    3273    3272    3274    3276    3275    3277
    3279    3278    3280    3282    3281    3283    3285    3284    3286
    3288    3287    3289    3291    3290    3292    3294    3293    3295
    3297    3296    3298    3300    3299    3301    3303    3302    3304
    3306    3305    3307    3309    3308    3310    3312    3311    3313
    3315    3314    3316    3318    3317    3319    3321    3320    3322
    3324    3323    3325    3327    3326    3328    3330    3329    3331
    3333    3332    3334    3336    3335    3337    3339    3338    3340
    3342    3341    3343    3345    3344    3346    3348    3347    3349
    3351    3350    3352    3354    3353    3355    3357    3356    3358
    3360    3359    3361    3363    3362    3364    3366    3365    3367
    3369    3368    3370    3372    3371    3373    3375    3374    3376
    3378    3377    3379    3381    3380    3382    3384    3383    3385
    3387    3386    3388    3390    3389    3391    3393    3392    3394
    3396    3395    3397    3399    3398    3400    3402    3401    3403
    3405    3404    3406    3408    3407    3409    3411    3410    3412
    3414    3413    3415    3417    3416    3418    3420    3419    3421
    3423    3422    3424    3426    3425    3427    3429    3428    3430
    3432    3431    3433    3435    3434    3436    3438    3437    3439
    3441    3440    3442    3444    3443    3445    3447    3446    3448
    3450    3449    3451    3453    3452    3454    3456    3455    3457
    3459    3458    3460    3462    3461    3463    3465    3464    3466
    3468    3467    3469    3471    3470    3472    3474    3473    3475
    3477    3476    3478    3480    3479    3481    3483    3482    3484
    3486    3485    3487    3489    3488    3490    3492    3491    3493
    3495    3494    3496    3498    3497    3499    3501    3500    3502
    3504    3503    3505    3507    3506    3508    3510    3509    3511
    3513    3512    3514    3516    3515    3517    3519    3518    3520
    3522    3521    3523    3525    3524    3526    3528    3527    3529
    3531    3530    3532    3534    3533    3535    3537    3536    3538
    3540    3539    3541    3543    3542    3544    3546    3545    3547
    3549    3548    3550    3552    3551    3553    3555    3554    3556
    3558    3557    3559    3561    3560    3562    3564    3563    3565
    3567    3566    3568    3570    3569    3571    3573    3572    3574
    3576    3575    3577    3579    3578    3580    3582    3581    3583
    3585    3584    3586    3588    3587    3589    3591    3590    3592
    3594    3593    3595    3597    3596    3598    3600    3599    3601
    3603    3602    3604    3606    3605    3607    3609    3608    3610
    3612    3611    3613    3615    3614    3616    3618    3617    3619
    3621    3620    3622    3624    3623    3625    3627    3626    3628
    3630    3629    3631    3633    3632    3634    3636    3635    3637
    3639    3638    3640    3642    3641    3643    3645    3644    3646
    3648    3647    3649    3651    3650    3652    3654    3653    3655
    3657    3656    3658    3660    3659    3661    3663    3662    3664
    3666    3665    3667    3669    3668    3670    3672    3671    3673
    3675    3674    3676    3678    3677    3679    3681    3680    3682
    3684    3683    3685    3687    3686    3688    3690    3689    3691
    3693    3692    3694    3696    3695    3697    3699    3698    3700
    3702    3701    3703    3705    3704    3706    3708    3707    3709
    3711    3710    3712    3714    3713    3715    3717    3716    3718
    3720    3719    3721    3723    3722    3724    3726    3725    3727
    3729    3728    3730    3732    3731    3733    3735    3734    3736
    3738    3737    3739    3741    3740    3742    3744    3743    3745
    3747    3746    3748    3750    3749    3751    3753    3752    3754
    3756    3755    3757    3759    3758    3760    3762    3761    3763
    3765    3764    3766    3768    3767    3769    3771    3770    3772
    3774    3773    3775    3777    3776    3778    3780    3779    3781
    3783    3782    3784    3786    3785    3787    3789    3788    3790
    3792    3791    3793    3795    3794    3796    3798    3797    3799
    3801    3800    3802    3804    3803    3805    3807    3806    3808
    3810    3809    3811    3813    3812    3814    3816    3815    3817
    3819    3818    3820    3822    3821    3823    3825    3824    3826
    3828    3827    3829    3831    3830    3832    3834    3833    3835
    3837    3836    3838    3840    3839    3841    3843    3842    3844
    3846    3845    3847    3849    3848    3850    3852    3851    3853
    3855    3854    3856    3858    3857    3859    3861    3860    3862
    3864    3863    3865    3867    3866    3868    3870    3869    3871
    3873    3872    3874    3876    3875    3877    3879    3878    3880
    3882    3881    3883    3885    3884    3886    3888    3887    3889
    3891    3890    3892    3894    3893    3895    3897    3896    3898
    3900    3899    3901    3903    3902    3904    3906    3905    3907
    3909    3908    3910    3912    3911    3913    3915    3914    3916
    3918    3917    3919    3921    3920    3922    3924    3923    3925
    3927    3926    3928    3930    3929    3931    3933    3932    3934
    3936    3935    3937    3939    3938    3940    3942    3941    3943
    3945    3944    3946    3948    3947    3949    3951    3950    3952
    3954    3953    3955    3957    3956    3958    3960    3959    3961
    3963    3962    3964    3966    3965    3967    3969    3968    3970
    3972    3971    3973    3975    3974    3976    3978    3977    3979
    3981    3980    3982    3984    3983    3985    3987    3986    3988
    3990    3989    3991    3993    3992    3994    3996    3995    3997
    3999    3998    4000    4002    4001    4003    4005    4004    4006
    4008    4007    4009    4011    4010    4012    4014    4013    4015
    4017    4016    4018    4020    4019    4021    4023    4022    4024
    4026    4025    4027    4029    4028    4030    4032    4031    4033
    4035    4034    4036    4038    4037    4039    4041    4040    4042
    4044    4043    4045    4047    4046    4048    4050    4049    4051
    4053    4052    4054    4056    4055    4057    4059    4058    4060
    4062    4061    4063    4065    4064    4066    4068    4067    4069
    4071    4070    4072    4074    4073    4075    4077    4076    4078
    4080    4079    4081    4083    4082    4084    4086    4085    4087
    4089    4088    4090    4092    4091    4093    4095    4094    4096
    4098    4097    4099    4101    4100    4102    4104    4103    4105
    4107    4106    4108    4110    4109    4111    4113    4112    4114
    4116    4115    4117    4119    4118    4120    4122    4121    4123
    4125    4124    4126    4128    4127    4129    4131    4130    4132
    4134    4133    4135    4137    4136    4138    4140    4139    4141
    4143    4142    4144    4146    4145    4147    4149    4148    4150
    4152    4151    4153    4155    4154    4156    4158    4157    4159
    4161    4160    4162    4164    4163    4165    4167    4166    4168
    4170    4169    4171    4173    4172    4174    4176    4175    4177
    4179    4178    4180    4182    4181    4183    4185    4184    4186
    4188    4187    4189    4191    4190    4192    4194    4193    4195
    4197    4196    4198    4200    4199    4201    4203    4202    4204
    4206    4205    4207    4209    4208    4210    4212    4211    4213
    4215    4214    4216    4218    4217    4219    4221    4220    4222
    4224    4223    4225    4227    4226    4228    4230    4229    4231
    4233    4232    4234    4236    4235    4237    4239    4238    4240
    4242    4241    4243    4245    4244    4246    4248    4247    4249
    4251    4250    4252    4254    4253    4255    4257    4256    4258
    4260    4259    4261    4263    4262    4264    4266    4265    4267
    4269    4268    4270    4272    4271    4273    4275    4274    4276
    4278    4277    4279    4281    4280    4282    4284    4283    4285
    4287    4286    4288    4290    4289    4291    4293    4292    4294
    4296    4295    4297    4299    4298    4300    4302    4301    4303
    4305    4304    4306    4308    4307    4309    4311    4310    4312
    4314    4313    4315    4317    4316    4318    4320    4319    4321
    4323    4322    4324    4326    4325    4327    4329    4328    4330
    4332    4331    4333    4335    4334    4336    4338    4337    4339
    4341    4340    4342    4344    4343    4345    4347    4346    4348
    4350    4349    4351    4353    4352    4354    4356    4355    4357
    4359    4358    4360    4362    4361    4363    4365    4364    4366
    4368    4367    4369    4371    4370    4372    4374    4373    4375
    4377    4376    4378    4380    4379    4381    4383    4382    4384
    4386    4385    4387    4389    4388    4390    4392    4391    4393
    4395    4394    4396    4398    4397    4399    4401    4400    4402
    4404    4403    4405    4407    4406    4408    4410    4409    4411
    4413    4412    4414    4416    4415    4417    4419    4418    4420
    4422    4421    4423    4425    4424    4426    4428    4427    4429
    4431    4430    4432    4434    4433    4435    4437    4436    4438
    4440    4439    4441    4443    4442    4444    4446    4445    4447
    4449    4448    4450    4452    4451    4453    4455    4454    4456
    4458    4457    4459    4461    4460    4462    4464    4463    4465
    4467    4466    4468    4470    4469    4471    4473    4472    4474
    4476    4475    4477    4479    4478    4480    4482    4481    4483
    4485    4484    4486    4488    4487    4489    4491    4490    4492
    4494    4493    4495    4497    4496    4498    4500    4499    4501
    4503    4502    4504    4506    4505    4507    4509    4508    4510
    4512    4511    4513    4515    4514    4516    4518    4517    4519
    4521    4520    4522    4524    4523    4525    4527    4526    4528
    4530    4529    4531    4533    4532    4534    4536    4535    4537
    4539    4538    4540    4542    4541    4543    4545    4544    4546
    4548    4547    4549    4551    4550    4552    4554    4553    4555
    4557    4556    4558    4560    4559    4561    4563    4562    4564
    4566    4565    4567    4569    4568    4570    4572    4571    4573
    4575    4574    4576    4578    4577    4579    4581    4580    4582
    4584    4583    4585    4587    4586    4588    4590    4589    4591
    4593    4592    4594    4596    4595    4597    4599    4598    4600
    4602    4601    4603    4605    4604    4606    4608    4607    4609
    4611    4610    4612    4614    4613    4615    4617    4616    4618
    4620    4619    4621    4623    4622    4624    4626    4625    4627
    4629    4628    4630    4632    4631    4633    4635    4634    4636
    4638    4637    4639    4641    4640    4642    4644    4643    4645
    4647    4646    4648    4650    4649    4651    4653    4652    4654
    4656    4655    4657    4659    4658    4660    4662    4661    4663
    4665    4664    4666    4668    4667    4669    4671    4670    4672
    4674    4673    4675    4677    4676    4678    4680    4679    4681
    4683    4682    4684    4686    4685    4687    4689    4688    4690
    4692    4691    4693    4695    4694    4696    4698    4697    4699
    4701    4700    4702    4704    4703    4705    4707    4706    4708
    4710    4709    4711    4713    4712    4714    4716    4715    4717
    4719    4718    4720    4722    4721    4723    4725    4724    4726
    4728    4727    4729    4731    4730    4732    4734    4733    4735
    4737    4736    4738    4740    4739    4741    4743    4742    4744
    4746    4745    4747    4749    4748    4750    4752    4751    4753
    4755    4754    4756    4758    4757    4759    4761    4760    4762
    4764    4763    4765    4767    4766    4768    4770    4769    4771
    4773    4772    4774    4776    4775    4777    4779    4778    4780
    4782    4781    4783    4785    4784    4786    4788    4787    4789
    4791    4790    4792    4794    4793    4795    4797    4796    4798
    4800    4799    4801    4803    4802    4804    4806    4805    4807
    4809    4808    4810    4812    4811    4813    4815    4814    4816
    4818    4817    4819    4821    4820    4822    4824    4823    4825
    4827    4826    4828    4830    4829    4831    4833    4832    4834
    4836    4835    4837    4839    4838    4840    4842    4841    4843
    4845    4844    4846    4848    4847    4849    4851    4850    4852
    4854    4853    4855    4857    4856    4858    4860    4859    4861
    4863    4862    4864    4866    4865    4867    4869    4868    4870
    4872    4871    4873    4875    4874    4876    4878    4877    4879
    4881    4880    4882    4884    4883    4885    4887    4886    4888
    4890    4889    4891    4893    4892    4894    4896    4895    4897
    4899    4898    4900    4902    4901    4903    4905    4904    4906
    4908    4907    4909    4911    4910    4912    4914    4913    4915
    4917    4916    4918    4920    4919    4921    4923    4922    4924
    4926    4925    4927    4929    4928    4930    4932    4931    4933
    4935    4934    4936    4938    4937    4939    4941    4940    4942
    4944    4943    4945    4947    4946    4948    4950    4949    4951
    4953    4952    4954    4956    4955    4957    4959    4958    4960
    4962    4961    4963    4965    4964    4966    4968    4967    4969
    4971    4970    4972    4974    4973    4975    4977    4976    4978
    4980    4979    4981    4983    4982    4984    4986    4985    4987
    4989    4988    4990    4992    4991    4993    4995    4994    4996
    4998    4997    4999    5001    5000    5002    5004    5003    5005
    5007    5006    5008    5010    5009    5011    5013    5012    5014
    5016    5015    5017    5019    5018    5020    5022    5021    5023
    5025    5024    5026    5028    5027    5029    5031    5030    5032
    5034    5033    5035    5037    5036    5038    5040    5039    5041
    5043    5042    5044    5046    5045    5047    5049    5048    5050
    5052    5051    5053    5055    5054    5056    5058    5057    5059
    5061    5060    5062    5064    5063    5065    5067    5066    5068
    5070    5069    5071    5073    5072    5074    5076    5075    5077
    5079    5078    5080    5082    5081    5083    5085    5084    5086
    5088    5087    5089    5091    5090    5092    5094    5093    5095
    5097    5096    5098    5100    5099    5101    5103    5102    5104
    5106    5105    5107    5109    5108    5110    5112    5111    5113
    5115    5114    5116    5118    5117    5119    5121    5120    5122
    5124    5123    5125    5127    5126    5128    5130    5129    5131
    5133    5132    5134    5136    5135    5137    5139    5138    5140
    5142    5141    5143    5145    5144    5146    5148    5147    5149
    5151    5150    5152    5154    5153    5155    5157    5156    5158
    5160    5159    5161    5163    5162    5164    5166    5165    5167
    5169    5168    5170    5172    5171    5173    5175    5174    5176
    5178    5177    5179    5181    5180    5182    5184    5183    5185
    5187    5186    5188    5190    5189    5191    5193    5192    5194
    5196    5195    5197    5199    5198    5200    5202    5201    5203
    5205    5204    5206    5208    5207    5209    5211    5210    5212
    5214    5213    5215    5217    5216    5218    5220    5219    5221
    5223    5222    5224    5226    5225    5227    5229    5228    5230
    5232    5231    5233    5235    5234    5236    5238    5237    5239
    5241    5240    5242    5244    5243    5245    5247    5246    5248
    5250    5249    5251    5253    5252    5254    5256    5255    5257
    5259    5258    5260    5262    5261    5263    5265    5264    5266
    5268    5267    5269    5271    5270    5272    5274    5273    5275
    5277    5276    5278    5280    5279    5281    5283    5282    5284
    5286    5285    5287    5289    5288    5290    5292    5291    5293
    5295    5294    5296    5298    5297    5299    5301    5300    5302
    5304    5303    5305    5307    5306    5308    5310    5309    5311
    5313    5312    5314    5316    5315    5317    5319    5318    5320
    5322    5321    5323    5325    5324    5326    5328    5327    5329
    5331    5330    5332    5334    5333    5335    5337    5336    5338
    5340    5339    5341    5343    5342    5344    5346    5345    5347
    5349    5348    5350    5352    5351    5353    5355    5354    5356
    5358    5357    5359    5361    5360    5362    5364    5363    5365
    5367    5366    5368    5370    5369    5371    5373    5372    5374
    5376    5375    5377    5379    5378    5380    5382    5381    5383
    5385    5384    5386    5388    5387    5389    5391    5390    5392
    5394    5393    5395    5397    5396    5398    5400    5399    5401
    5403    5402    5404    5406    5405    5407    5409    5408    5410
    5412    5411    5413    5415    5414    5416    5418    5417    5419
    5421    5420    5422    5424    5423    5425    5427    5426    5428
    5430    5429    5431    5433    5432    5434    5436    5435    5437
    5439    5438    5440    5442    5441    5443    5445    5444    5446
    5448    5447    5449    5451    5450    5452    5454    5453    5455
    5457    5456    5458    5460    5459    5461    5463    5462    5464
    5466    5465    5467    5469    5468    5470    5472    5471    5473
    5475    5474    5476    5478    5477    5479    5481    5480    5482
    5484    5483    5485    5487    5486    5488    5490    5489    5491
    5493    5492    5494    5496    5495    5497    5499    5498    5500
    5502    5501    5503    5505    5504    5506    5508    5507    5509
    5511    5510    5512    5514    5513    5515    5517    5516    5518
    5520    5519    5521    5523    5522    5524    5526    5525    5527
    5529    5528    5530    5532    5531    5533    5535    5534    5536
    5538    5537    5539    5541    5540    5542    5544    5543    5545
    5547    5546    5548    5550    5549    5551    5553    5552    5554
    5556    5555    5557    5559    5558    5560    5562    5561    5563
    5565    5564    5566    5568    5567    5569    5571    5570    5572
    5574    5573    5575    5577    5576    5578    5580    5579    5581
    5583    5582    5584    5586    5585    5587    5589    5588    5590
    5592    5591    5593    5595    5594    5596    5598    5597    5599
    5601    5600    5602    5604    5603    5605    5607    5606    5608
    5610    5609    5611    5613    5612    5614    5616    5615    5617
    5619    5618    5620    5622    5621    5623    5625    5624    5626
    5628    5627    5629    5631    5630    5632    5634    5633    5635
    5637    5636    5638    5640    5639    5641    5643    5642    5644
    5646    5645    5647    5649    5648    5650    5652    5651    5653
    5655    5654    5656    5658    5657    5659    5661    5660    5662
    5664    5663    5665    5667    5666    5668    5670    5669    5671
    5673    5672    5674    5676    5675    5677    5679    5678    5680
    5682    5681    5683    5685    5684    5686    5688    5687    5689
    5691    5690    5692    5694    5693    5695    5697    5696    5698
    5700    5699    5701    5703    5702    5704    5706    5705    5707
    5709    5708    5710    5712    5711    5713    5715    5714    5716
    5718    5717    5719    5721    5720    5722    5724    5723    5725
    5727    5726    5728    5730    5729    5731    5733    5732    5734
    5736    5735    5737    5739    5738    5740    5742    5741    5743
    5745    5744    5746    5748    5747    5749    5751    5750    5752
    5754    5753    5755    5757    5756    5758    5760    5759    5761
    5763    5762    5764    5766    5765    5767    5769    5768    5770
    5772    5771    5773    5775    5774    5776    5778    5777    5779
    5781    5780    5782    5784    5783    5785    5787    5786    5788
    5790    5789    5791    5793    5792    5794    5796    5795    5797
    5799    5798    5800    5802    5801    5803    5805    5804    5806
    5808    5807    5809    5811    5810    5812    5814    5813    5815
    5817    5816    5818    5820    5819    5821    5823    5822    5824
    5826    5825    5827    5829    5828    5830    5832    5831    5833
    5835    5834    5836    5838    5837    5839    5841    5840    5842
    5844    5843    5845    5847    5846    5848    5850    5849    5851
    5853    5852    5854    5856    5855    5857    5859    5858    5860
    5862    5861    5863    5865    5864    5866    5868    5867    5869
    5871    5870    5872    5874    5873    5875    5877    5876    5878
    5880    5879    5881    5883    5882    5884    5886    5885    5887
    5889    5888    5890    5892    5891    5893    5895    5894    5896
    5898    5897    5899    5901    5900    5902    5904    5903    5905
    5907    5906    5908    5910    5909    5911    5913    5912    5914
    5916    5915    5917    5919    5918    5920    5922    5921    5923
    5925    5924    5926    5928    5927    5929    5931    5930    5932
    5934    5933    5935    5937    5936    5938    5940    5939    5941
    5943    5942    5944    5946    5945    5947    5949    5948    5950
    5952    5951    5953    5955    5954    5956    5958    5957    5959
    5961    5960    5962    5964    5963    5965    5967    5966    5968
    5970    5969    5971    5973    5972    5974    5976    5975    5977
    5979    5978    5980    5982    5981    5983    5985    5984    5986
    5988    5987    5989    5991    5990    5992    5994    5993    5995
    5997    5996    5998    6000    5999    6001    6003    6002    6004
    6006    6005    6007    6009    6008    6010    6012    6011    6013
    6015    6014    6016    6018    6017    6019    6021    6020    6022
    6024    6023    6025    6027    6026    6028    6030    6029    6031
    6033    6032    6034    6036    6035    6037    6039    6038    6040
    6042    6041    6043    6045    6044    6046    6048    6047    6049
    6051    6050    6052    6054    6053    6055    6057    6056    6058
    6060    6059    6061    6063    6062    6064    6066    6065    6067
    6069    6068    6070    6072    6071    6073    6075    6074    6076
    6078    6077    6079    6081    6080    6082    6084    6083    6085
    6087    6086    6088    6090    6089    6091    6093    6092    6094
    6096    6095    6097    6099    6098    6100    6102    6101    6103
    6105    6104    6106    6108    6107    6109    6111    6110    6112
    6114    6113    6115    6117    6116    6118    6120    6119    6121
    6123    6122    6124    6126    6125    6127    6129    6128    6130
    6132    6131    6133    6135    6134    6136    6138    6137    6139
    6141    6140    6142    6144    6143    6145    6147    6146    6148
    6150    6149    6151    6153    6152    6154    6156    6155    6157
    6159    6158    6160    6162    6161    6163    6165    6164    6166
    6168    6167    6169    6171    6170    6172    6174    6173    6175
    6177    6176    6178    6180    6179    6181    6183    6182    6184
    6186    6185    6187    6189    6188    6190    6192    6191    6193
    6195    6194    6196    6198    6197    6199    6201    6200    6202
    6204    6203    6205    6207    6206    6208    6210    6209    6211
    6213    6212    6214    6216    6215    6217    6219    6218    6220
    6222    6221    6223    6225    6224    6226    6228    6227    6229
    6231    6230    6232    6234    6233    6235    6237    6236    6238
    6240    6239    6241    6243    6242    6244    6246    6245    6247
    6249    6248    6250    6252    6251    6253    6255    6254    6256
    6258    6257    6259    6261    6260    6262    6264    6263    6265
    6267    6266    6268    6270    6269    6271    6273    6272    6274
    6276    6275    6277    6279    6278    6280    6282    6281    6283
    6285    6284    6286    6288    6287    6289    6291    6290    6292
    6294    6293    6295    6297    6296    6298    6300    6299    6301
    6303    6302    6304    6306    6305    6307    6309    6308    6310
    6312    6311    6313    6315    6314    6316    6318    6317    6319
    6321    6320    6322    6324    6323    6325    6327    6326    6328
    6330    6329    6331    6333    6332    6334    6336    6335    6337
    6339    6338    6340    6342    6341    6343    6345    6344    6346
    6348    6347    6349    6351    6350    6352    6354    6353    6355
    6357    6356    6358    6360    6359    6361    6363    6362    6364
    6366    6365    6367    6369    6368    6370    6372    6371    6373
    6375    6374    6376    6378    6377    6379    6381    6380    6382
    6384    6383    6385    6387    6386    6388    6390    6389    6391
    6393    6392    6394    6396    6395    6397    6399    6398    6400
    6402    6401    6403    6405    6404    6406    6408    6407    6409
    6411    6410    6412    6414    6413    6415    6417    6416    6418
    6420    6419    6421    6423    6422    6424    6426    6425    6427
    6429    6428    6430    6432    6431    6433    6435    6434    6436
    6438    6437    6439    6441    6440    6442    6444    6443    6445
    6447    6446    6448    6450    6449    6451    6453    6452    6454
    6456    6455    6457    6459    6458    6460    6462    6461    6463
    6465    6464    6466    6468    6467    6469    6471    6470    6472
    6474    6473    6475    6477    6476    6478    6480    6479    6481
    6483    6482    6484    6486    6485    6487    6489    6488    6490
    6492    6491    6493    6495    6494    6496    6498    6497    6499
    6501    6500    6502    6504    6503    6505    6507    6506    6508
    6510    6509    6511    6513    6512    6514    6516    6515    6517
    6519    6518    6520    6522    6521    6523    6525    6524    6526
    6528    6527    6529    6531    6530    6532    6534    6533    6535
    6537    6536    6538    6540    6539    6541    6543    6542    6544
    6546    6545    6547    6549    6548    6550    6552    6551    6553
    6555    6554    6556    6558    6557    6559    6561    6560    6562
    6564    6563    6565    6567    6566    6568    6570    6569    6571
    6573    6572    6574    6576    6575    6577    6579    6578    6580
    6582    6581    6583    6585    6584    6586    6588    6587    6589
    6591    6590    6592    6594    6593    6595    6597    6596    6598
    6600    6599    6601    6603    6602    6604    6606    6605    6607
    6609    6608    6610    6612    6611    6613    6615    6614    6616
    6618    6617    6619    6621    6620    6622    6624    6623    6625
    6627    6626    6628    6630    6629    6631    6633    6632    6634
    6636    6635    6637    6639    6638    6640    6642    6641    6643
    6645    6644    6646    6648    6647    6649    6651    6650    6652
    6654    6653    6655    6657    6656    6658    6660    6659    6661
    6663    6662    6664    6666    6665    6667    6669    6668    6670
    6672    6671    6673    6675    6674    6676    6678    6677    6679
    6681    6680    6682    6684    6683    6685    6687    6686    6688
    6690    6689    6691    6693    6692    6694    6696    6695    6697
    6699    6698    6700    6702    6701    6703    6705    6704    6706
    6708    6707    6709    6711    6710    6712    6714    6713    6715
    6717    6716    6718    6720    6719    6721    6723    6722    6724
    6726    6725    6727    6729    6728    6730    6732    6731    6733
    6735    6734    6736    6738    6737    6739    6741    6740    6742
    6744    6743    6745    6747    6746    6748    6750    6749    6751
    6753    6752    6754    6756    6755    6757    6759    6758    6760
    6762    6761    6763    6765    6764    6766    6768    6767    6769
    6771    6770    6772    6774    6773    6775    6777    6776    6778
    6780    6779    6781    6783    6782    6784    6786    6785    6787
    6789    6788    6790    6792    6791    6793    6795    6794    6796
    6798    6797    6799    6801    6800    6802    6804    6803    6805
    6807    6806    6808    6810    6809    6811    6813    6812    6814
    6816    6815    6817    6819    6818    6820    6822    6821    6823
    6825    6824    6826    6828    6827    6829    6831    6830    6832
    6834    6833    6835    6837    6836    6838    6840    6839    6841
    6843    6842    6844    6846    6845    6847    6849    6848    6850
    6852    6851    6853    6855    6854    6856    6858    6857    6859
    6861    6860    6862    6864    6863    6865    6867    6866    6868
    6870    6869    6871    6873    6872    6874    6876    6875    6877
    6879    6878    6880    6882    6881    6883    6885    6884    6886
    6888    6887    6889    6891    6890    6892    6894    6893    6895
    6897    6896    6898    6900    6899    6901    6903    6902    6904
    6906    6905    6907    6909    6908    6910    6912    6911    6913
    6915    6914    6916    6918    6917    6919    6921    6920    6922
    6924    6923    6925    6927    6926    6928    6930    6929    6931
    6933    6932    6934    6936    6935    6937    6939    6938    6940
    6942    6941    6943    6945    6944    6946    6948    6947    6949
    6951    6950    6952    6954    6953    6955    6957    6956    6958
    6960    6959    6961    6963    6962    6964    6966    6965    6967
    6969    6968    6970    6972    6971    6973    6975    6974    6976
    6978    6977    6979    6981    6980    6982    6984    6983    6985
    6987    6986    6988    6990    6989    6991    6993    6992    6994
    6996    6995    6997    6999    6998    7000    7002    7001    7003
    7005    7004    7006    7008    7007    7009    7011    7010    7012
    7014    7013    7015    7017    7016    7018    7020    7019    7021
    7023    7022    7024    7026    7025    7027    7029    7028    7030
    7032    7031    7033    7035    7034    7036    7038    7037    7039
    7041    7040    7042    7044    7043    7045    7047    7046    7048
    7050    7049    7051    7053    7052    7054    7056    7055    7057
    7059    7058    7060    7062    7061    7063    7065    7064    7066
    7068    7067    7069    7071    7070    7072    7074    7073    7075
    7077    7076    7078    7080    7079    7081    7083    7082    7084
    7086    7085    7087    7089    7088    7090    7092    7091    7093
    7095    7094    7096    7098    7097    7099    7101    7100    7102
    7104    7103    7105    7107    7106    7108    7110    7109    7111
    7113    7112    7114    7116    7115    7117    7119    7118    7120
    7122    7121    7123    7125    7124    7126    7128    7127    7129
    7131    7130    7132    7134    7133    7135    7137    7136    7138
    7140    7139    7141    7143    7142    7144    7146    7145    7147
    7149    7148    7150    7152    7151    7153    7155    7154    7156
    7158    7157    7159    7161    7160    7162    7164    7163    7165
    7167    7166    7168    7170    7169    7171    7173    7172    7174
    7176    7175    7177    7179    7178    7180    7182    7181    7183
    7185    7184    7186    7188    7187    7189    7191    7190    7192
    7194    7193    7195    7197    7196    7198    7200    7199    7201
    7203    7202    7204    7206    7205    7207    7209    7208    7210
    7212    7211    7213    7215    7214    7216    7218    7217    7219
    7221    7220    7222    7224    7223    7225    7227    7226    7228
    7230    7229    7231    7233    7232    7234    7236    7235    7237
    7239    7238    7240    7242    7241    7243    7245    7244    7246
    7248    7247    7249    7251    7250    7252    7254    7253    7255
    7257    7256    7258    7260    7259    7261    7263    7262    7264
    7266    7265    7267    7269    7268    7270    7272    7271    7273
    7275    7274    7276    7278    7277    7279    7281    7280    7282
    7284    7283    7285    7287    7286    7288    7290    7289    7291
    7293    7292    7294    7296    7295    7297    7299    7298    7300
    7302    7301    7303    7305    7304    7306    7308    7307    7309
    7311    7310    7312    7314    7313    7315    7317    7316    7318
    7320    7319    7321    7323    7322    7324    7326    7325    7327
    7329    7328    7330    7332    7331    7333    7335    7334    7336
    7338    7337    7339    7341    7340    7342    7344    7343    7345
    7347    7346    7348    7350    7349    7351    7353    7352    7354
    7356    7355    7357    7359    7358    7360    7362    7361    7363
    7365    7364    7366    7368    7367    7369    7371    7370    7372
    7374    7373    7375    7377    7376    7378    7380    7379    7381
    7383    7382    7384    7386    7385    7387    7389    7388    7390
    7392    7391    7393    7395    7394    7396    7398    7397    7399
    7401    7400    7402    7404    7403    7405    7407    7406    7408
    7410    7409    7411    7413    7412    7414    7416    7415    7417
    7419    7418    7420    7422    7421    7423    7425    7424    7426
    7428    7427    7429    7431    7430    7432    7434    7433    7435
    7437    7436    7438    7440    7439    7441    7443    7442    7444
    7446    7445    7447    7449    7448    7450    7452    7451    7453
    7455    7454    7456    7458    7457    7459    7461    7460    7462
    7464    7463    7465    7467    7466    7468    7470    7469    7471
    7473    7472    7474    7476    7475    7477    7479    7478    7480
    7482    7481    7483    7485    7484    7486    7488    7487    7489
    7491    7490    7492    7494    7493    7495    7497    7496    7498
    7500    7499    7501    7503    7502    7504    7506    7505    7507
    7509    7508    7510    7512    7511    7513    7515    7514    7516
    7518    7517    7519    7521    7520    7522    7524    7523    7525
    7527    7526    7528    7530    7529    7531    7533    7532    7534
    7536    7535    7537    7539    7538    7540    7542    7541    7543
    7545    7544    7546    7548    7547    7549    7551    7550    7552
    7554    7553    7555    7557    7556    7558    7560    7559    7561
    7563    7562    7564    7566    7565    7567    7569    7568    7570
    7572    7571    7573    7575    7574    7576    7578    7577    7579
    7581    7580    7582    7584    7583    7585    7587    7586    7588
    7590    7589    7591    7593    7592    7594    7596    7595    7597
    7599    7598    7600    7602    7601    7603    7605    7604    7606
    7608    7607    7609    7611    7610    7612    7614    7613    7615
    7617    7616    7618    7620    7619    7621    7623    7622    7624
    7626    7625    7627    7629    7628    7630    7632    7631    7633
    7635    7634    7636    7638    7637    7639    7641    7640    7642
    7644    7643    7645    7647    7646    7648    7650    7649    7651
    7653    7652    7654    7656    7655    7657    7659    7658    7660
    7662    7661    7663    7665    7664    7666    7668    7667    7669
    7671    7670    7672    7674    7673    7675    7677    7676    7678
    7680    7679    7681    7683    7682    7684    7686    7685    7687
    7689    7688    7690    7692    7691    7693    7695    7694    7696
    7698    7697    7699    7701    7700    7702    7704    7703    7705
    7707    7706    7708    7710    7709    7711    7713    7712    7714
    7716    7715    7717    7719    7718    7720    7722    7721    7723
    7725    7724    7726    7728    7727    7729    7731    7730    7732
    7734    7733    7735    7737    7736    7738    7740    7739    7741
    7743    7742    7744    7746    7745    7747    7749    7748    7750
    7752    7751    7753    7755    7754    7756    7758    7757    7759
    7761    7760    7762    7764    7763    7765    7767    7766    7768
    7770    7769    7771    7773    7772    7774    7776    7775    7777
    7779    7778    7780    7782    7781    7783    7785    7784    7786
    7788    7787    7789    7791    7790    7792    7794    7793    7795
    7797    7796    7798    7800    7799    7801    7803    7802    7804
    7806    7805    7807    7809    7808    7810    7812    7811    7813
    7815    7814    7816    7818    7817    7819    7821    7820    7822
    7824    7823    7825    7827    7826    7828    7830    7829    7831
    7833    7832    7834    7836    7835    7837    7839    7838    7840
    7842    7841    7843    7845    7844    7846    7848    7847    7849
    7851    7850    7852    7854    7853    7855    7857    7856    7858
    7860    7859    7861    7863    7862    7864    7866    7865    7867
    7869    7868    7870    7872    7871    7873    7875    7874    7876
    7878    7877    7879    7881    7880    7882    7884    7883    7885
    7887    7886    7888    7890    7889    7891    7893    7892    7894
    7896    7895    7897    7899    7898    7900    7902    7901    7903
    7905    7904    7906    7908    7907    7909    7911    7910    7912
    7914    7913    7915    7917    7916    7918    7920    7919    7921
    7923    7922    7924    7926    7925    7927    7929    7928    7930
    7932    7931    7933    7935    7934    7936    7938    7937    7939
    7941    7940    7942    7944    7943    7945    7947    7946    7948
    7950    7949    7951    7953    7952    7954    7956    7955    7957
    7959    7958    7960    7962    7961    7963    7965    7964    7966
    7968    7967    7969    7971    7970    7972    7974    7973    7975
    7977    7976    7978    7980    7979    7981    7983    7982    7984
    7986    7985    7987    7989    7988    7990    7992    7991    7993
    7995    7994    7996    7998    7997    7999    8001    8000    8002
    8004    8003    8005    8007    8006    8008    8010    8009    8011
    8013    8012    8014    8016    8015    8017    8019    8018    8020
    8022    8021    8023    8025    8024    8026    8028    8027    8029
    8031    8030    8032    8034    8033    8035    8037    8036    8038
    8040    8039    8041    8043    8042    8044    8046    8045    8047
    8049    8048    8050    8052    8051    8053    8055    8054    8056
    8058    8057    8059    8061    8060    8062    8064    8063    8065
    8067    8066    8068    8070    8069    8071    8073    8072    8074
    8076    8075    8077    8079    8078    8080    8082    8081    8083
    8085    8084    8086    8088    8087    8089    8091    8090    8092
    8094    8093    8095    8097    8096    8098    8100    8099    8101
    8103    8102    8104    8106    8105    8107    8109    8108    8110
    8112    8111    8113    8115    8114    8116    8118    8117    8119
    8121    8120    8122    8124    8123    8125    8127    8126    8128
    8130    8129    8131    8133    8132    8134    8136    8135    8137
    8139    8138    8140    8142    8141    8143    8145    8144    8146
    8148    8147    8149    8151    8150    8152    8154    8153    8155
    8157    8156    8158    8160    8159    8161    8163    8162    8164
    8166    8165    8167    8169    8168    8170    8172    8171    8173
    8175    8174    8176    8178    8177    8179    8181    8180    8182
    8184    8183    8185    8187    8186    8188    8190    8189    8191
    8193    8192    8194    8196    8195    8197    8199    8198    8200
    8202    8201    8203    8205    8204    8206    8208    8207    8209
    8211    8210    8212    8214    8213    8215    8217    8216    8218
    8220    8219    8221    8223    8222    8224    8226    8225    8227
    8229    8228    8230    8232    8231    8233    8235    8234    8236
    8238    8237    8239    8241    8240    8242    8244    8243    8245
    8247    8246    8248    8250    8249    8251    8253    8252    8254
    8256    8255    8257    8259    8258    8260    8262    8261    8263
    8265    8264    8266    8268    8267    8269    8271    8270    8272
    8274    8273    8275    8277    8276    8278    8280    8279    8281
    8283    8282    8284    8286    8285    8287    8289    8288    8290
    8292    8291    8293    8295    8294    8296    8298    8297    8299
    8301    8300    8302    8304    8303    8305    8307    8306    8308
    8310    8309    8311    8313    8312    8314    8316    8315    8317
    8319    8318    8320    8322    8321    8323    8325    8324    8326
    8328    8327    8329    8331    8330    8332    8334    8333    8335
    8337    8336    8338    8340    8339    8341    8343    8342    8344
    8346    8345    8347    8349    8348    8350    8352    8351    8353
    8355    8354    8356    8358    8357    8359    8361    8360    8362
    8364    8363    8365    8367    8366    8368    8370    8369    8371
    8373    8372    8374    8376    8375    8377    8379    8378    8380
    8382    8381    8383    8385    8384    8386    8388    8387    8389
    8391    8390    8392    8394    8393    8395    8397    8396    8398
    8400    8399    8401    8403    8402    8404    8406    8405    8407
    8409    8408    8410    8412    8411    8413    8415    8414    8416
    8418    8417    8419    8421    8420    8422    8424    8423    8425
    8427    8426    8428    8430    8429    8431    8433    8432    8434
    8436    8435    8437    8439    8438    8440    8442    8441    8443
    8445    8444    8446    8448    8447    8449    8451    8450    8452
    8454    8453    8455    8457    8456    8458    8460    8459    8461
    8463    8462    8464    8466    8465    8467    8469    8468    8470
    8472    8471    8473    8475    8474    8476    8478    8477    8479
    8481    8480    8482    8484    8483    8485    8487    8486    8488
    8490    8489    8491    8493    8492    8494    8496    8495    8497
    8499    8498    8500    8502    8501    8503    8505    8504    8506
    8508    8507    8509    8511    8510    8512    8514    8513    8515
    8517    8516    8518    8520    8519    8521    8523    8522    8524
    8526    8525    8527    8529    8528    8530    8532    8531    8533
    8535    8534    8536    8538    8537    8539    8541    8540    8542
    8544    8543    8545    8547    8546    8548    8550    8549    8551
    8553    8552    8554    8556    8555    8557    8559    8558    8560
    8562    8561    8563    8565    8564    8566    8568    8567    8569
    8571    8570    8572    8574    8573    8575    8577    8576    8578
    8580    8579    8581    8583    8582    8584    8586    8585    8587
    8589    8588    8590    8592    8591    8593    8595    8594    8596
    8598    8597    8599    8601    8600    8602    8604    8603    8605
    8607    8606    8608    8610    8609    8611    8613    8612    8614
    8616    8615    8617    8619    8618    8620    8622    8621    8623
    8625    8624    8626    8628    8627    8629    8631    8630    8632
    8634    8633    8635    8637    8636    8638    8640    8639    8641
    8643    8642    8644    8646    8645    8647    8649    8648    8650
    8652    8651    8653    8655    8654    8656    8658    8657    8659
    8661    8660    8662    8664    8663    8665    8667    8666    8668
    8670    8669    8671    8673    8672    8674    8676    8675    8677
    8679    8678    8680    8682    8681    8683    8685    8684    8686
    8688    8687    8689    8691    8690    8692    8694    8693    8695
    8697    8696    8698    8700    8699    8701    8703    8702    8704
    8706    8705    8707    8709    8708    8710    8712    8711    8713
    8715    8714    8716    8718    8717    8719    8721    8720    8722
    8724    8723    8725    8727    8726    8728    8730    8729    8731
    8733    8732    8734    8736    8735    8737    8739    8738    8740
    8742    8741    8743    8745    8744    8746    8748    8747    8749
    8751    8750    8752    8754    8753    8755    8757    8756    8758
    8760    8759    8761    8763    8762    8764    8766    8765    8767
    8769    8768    8770    8772    8771    8773    8775    8774    8776
    8778    8777    8779    8781    8780    8782    8784    8783    8785
    8787    8786    8788    8790    8789    8791    8793    8792    8794
    8796    8795    8797    8799    8798    8800    8802    8801    8803
    8805    8804    8806    8808    8807    8809    8811    8810    8812
    8814    8813    8815    8817    8816    8818    8820    8819    8821
    8823    8822    8824    8826    8825    8827    8829    8828    8830
    8832    8831    8833    8835    8834    8836    8838    8837    8839
    8841    8840    8842    8844    8843    8845    8847    8846    8848
    8850    8849    8851    8853    8852    8854    8856    8855    8857
    8859    8858    8860    8862    8861    8863    8865    8864    8866
    8868    8867    8869    8871    8870    8872    8874    8873    8875
    8877    8876    8878    8880    8879    8881    8883    8882    8884
    8886    8885    8887    8889    8888    8890    8892    8891    8893
    8895    8894    8896    8898    8897    8899    8901    8900    8902
    8904    8903    8905    8907    8906    8908    8910    8909    8911
    8913    8912    8914    8916    8915    8917    8919    8918    8920
    8922    8921    8923    8925    8924    8926    8928    8927    8929
    8931    8930    8932    8934    8933    8935    8937    8936    8938
    8940    8939    8941    8943    8942    8944    8946    8945    8947
    8949    8948    8950    8952    8951    8953    8955    8954    8956
    8958    8957    8959    8961    8960    8962    8964    8963    8965
    8967    8966    8968    8970    8969    8971    8973    8972    8974
    8976    8975    8977    8979    8978    8980    8982    8981    8983
    8985    8984    8986    8988    8987    8989    8991    8990    8992
    8994    8993    8995    8997    8996    8998    9000    8999    9001
    9003    9002    9004    9006    9005    9007    9009    9008    9010
    9012    9011    9013    9015    9014    9016    9018    9017    9019
    9021    9020    9022    9024    9023    9025    9027    9026    9028
    9030    9029    9031    9033    9032    9034    9036    9035    9037
    9039    9038    9040    9042    9041    9043    9045    9044    9046
    9048    9047    9049    9051    9050    9052    9054    9053    9055
    9057    9056    9058    9060    9059    9061    9063    9062    9064
    9066    9065    9067    9069    9068    9070    9072    9071    9073
    9075    9074    9076    9078    9077    9079    9081    9080    9082
    9084    9083    9085    9087    9086    9088    9090    9089    9091
    9093    9092    9094    9096    9095    9097    9099    9098    9100
    9102    9101    9103    9105    9104    9106    9108    9107    9109
    9111    9110    9112    9114    9113    9115    9117    9116    9118
    9120    9119    9121    9123    9122    9124    9126    9125    9127
    9129    9128    9130    9132    9131    9133    9135    9134    9136
    9138    9137    9139    9141    9140    9142    9144    9143    9145
    9147    9146    9148    9150    9149    9151    9153    9152    9154
    9156    9155    9157    9159    9158    9160    9162    9161    9163
    9165    9164    9166    9168    9167    9169    9171    9170    9172
    9174    9173    9175    9177    9176    9178    9180    9179    9181
    9183    9182    9184    9186    9185    9187    9189    9188    9190
    9192    9191    9193    9195    9194    9196    9198    9197    9199
    9201    9200    9202    9204    9203    9205    9207    9206    9208
    9210    9209    9211    9213    9212    9214    9216    9215    9217
    9219    9218    9220    9222    9221    9223    9225    9224    9226
    9228    9227    9229    9231    9230    9232    9234    9233    9235
    9237    9236    9238    9240    9239    9241    9243    9242    9244
    9246    9245    9247    9249    9248    9250    9252    9251    9253
    9255    9254    9256    9258    9257    9259    9261    9260    9262
    9264    9263    9265    9267    9266    9268    9270    9269    9271
    9273    9272    9274    9276    9275    9277    9279    9278    9280
    9282    9281    9283    9285    9284    9286    9288    9287    9289
    9291    9290    9292    9294    9293    9295    9297    9296    9298
    9300    9299    9301    9303    9302    9304    9306    9305    9307
    9309    9308    9310    9312    9311    9313    9315    9314    9316
    9318    9317    9319    9321    9320    9322    9324    9323    9325
    9327    9326    9328    9330    9329    9331    9333    9332    9334
    9336    9335    9337    9339    9338    9340    9342    9341    9343
    9345    9344    9346    9348    9347    9349    9351    9350    9352
    9354    9353    9355    9357    9356    9358    9360    9359    9361
    9363    9362    9364    9366    9365    9367    9369    9368    9370
    9372    9371    9373    9375    9374    9376    9378    9377    9379
    9381    9380    9382    9384    9383    9385    9387    9386    9388
    9390    9389    9391    9393    9392    9394    9396    9395    9397
    9399    9398    9400    9402    9401    9403    9405    9404    9406
    9408    9407    9409    9411    9410    9412    9414    9413    9415
    9417    9416    9418    9420    9419    9421    9423    9422    9424
    9426    9425    9427    9429    9428    9430    9432    9431    9433
    9435    9434    9436    9438    9437    9439    9441    9440    9442
    9444    9443    9445    9447    9446    9448    9450    9449    9451
    9453    9452    9454    9456    9455    9457    9459    9458    9460
    9462    9461    9463    9465    9464    9466    9468    9467    9469
    9471    9470    9472    9474    9473    9475    9477    9476    9478
    9480    9479    9481    9483    9482    9484    9486    9485    9487
    9489    9488    9490    9492    9491    9493    9495    9494    9496
    9498    9497    9499    9501    9500    9502    9504    9503    9505
    9507    9506    9508    9510    9509    9511    9513    9512    9514
    9516    9515    9517    9519    9518    9520    9522    9521    9523
    9525    9524    9526    9528    9527    9529    9531    9530    9532
    9534    9533    9535    9537    9536    9538    9540    9539    9541
    9543    9542    9544    9546    9545    9547    9549    9548    9550
    9552    9551    9553    9555    9554    9556    9558    9557    9559
    9561    9560    9562    9564    9563    9565    9567    9566    9568
    9570    9569    9571    9573    9572    9574    9576    9575    9577
    9579    9578    9580    9582    9581    9583    9585    9584    9586
    9588    9587    9589    9591    9590    9592    9594    9593    9595
    9597    9596    9598    9600    9599    9601    9603    9602    9604
    9606    9605    9607    9609    9608    9610    9612    9611    9613
    9615    9614    9616    9618    9617    9619    9621    9620    9622
    9624    9623    9625    9627    9626    9628    9630    9629    9631
    9633    9632    9634    9636    9635    9637    9639    9638    9640
    9642    9641    9643    9645    9644    9646    9648    9647    9649
    9651    9650    9652    9654    9653    9655    9657    9656    9658
    9660    9659    9661    9663    9662    9664    9666    9665    9667
    9669    9668    9670    9672    9671    9673    9675    9674    9676
    9678    9677    9679    9681    9680    9682    9684    9683    9685
    9687    9686    9688    9690    9689    9691    9693    9692    9694
    9696    9695    9697    9699    9698    9700    9702    9701    9703
    9705    9704    9706    9708    9707    9709    9711    9710    9712
    9714    9713    9715    9717    9716    9718    9720    9719    9721
    9723    9722    9724    9726    9725    9727    9729    9728    9730
    9732    9731    9733    9735    9734    9736    9738    9737    9739
    9741    9740    9742    9744    9743    9745    9747    9746    9748
    9750    9749    9751    9753    9752    9754    9756    9755    9757
    9759    9758    9760    9762    9761    9763    9765    9764    9766
    9768    9767    9769    9771    9770    9772    9774    9773    9775
    9777    9776    9778    9780    9779    9781    9783    9782    9784
    9786    9785    9787    9789    9788    9790    9792    9791    9793
    9795    9794    9796    9798    9797    9799    9801    9800    9802
    9804    9803    9805    9807    9806    9808    9810    9809    9811
    9813    9812    9814    9816    9815    9817    9819    9818    9820
    9822    9821    9823    9825    9824    9826    9828    9827    9829
    9831    9830    9832    9834    9833    9835    9837    9836    9838
    9840    9839    9841    9843    9842    9844    9846    9845    9847
    9849    9848    9850    9852    9851    9853    9855    9854    9856
    9858    9857    9859    9861    9860    9862    9864    9863    9865
    9867    9866    9868    9870    9869    9871    9873    9872    9874
    9876    9875    9877    9879    9878    9880    9882    9881    9883
    9885    9884    9886    9888    9887    9889    9891    9890    9892
    9894    9893    9895    9897    9896    9898    9900    9899    9901
    9903    9902    9904    9906    9905    9907    9909    9908    9910
    9912    9911    9913    9915    9914    9916    9918    9917    9919
    9921    9920    9922    9924    9923    9925    9927    9926    9928
    9930    9929    9931    9933    9932    9934    9936    9935    9937
    9939    9938    9940    9942    9941    9943    9945    9944    9946
    9948    9947    9949    9951    9950    9952    9954    9953    9955
    9957    9956    9958    9960    9959    9961    9963    9962    9964
    9966    9965    9967    9969    9968    9970    9972    9971    9973
    9975    9974    9976    9978    9977    9979    9981    9980    9982
    9984    9983    9985    9987    9986    9988    9990    9989    9991
    9993    9992    9994    9996    9995    9997    9999    9998   10000
   10002   10001   10003   10005   10004   10006   10008   10007   10009
   10011   10010   10012   10014   10013   10015   10017   10016   10018
   10020   10019   10021   10023   10022   10024   10026   10025   10027
   10029   10028   10030   10032   10031   10033   10035   10034   10036
   10038   10037   10039   10041   10040   10042   10044   10043   10045
   10047   10046   10048   10050   10049   10051   10053   10052   10054
   10056   10055   10057   10059   10058   10060   10062   10061   10063
   10065   10064   10066   10068   10067   10069   10071   10070   10072
   10074   10073   10075   10077   10076   10078   10080   10079   10081
   10083   10082   10084   10086   10085   10087   10089   10088   10090
   10092   10091   10093   10095   10094   10096   10098   10097   10099
   10101   10100   10102   10104   10103   10105   10107   10106   10108
   10110   10109   10111   10113   10112   10114   10116   10115   10117
   10119   10118   10120   10122   10121   10123   10125   10124   10126
   10128   10127   10129   10131   10130   10132   10134   10133   10135
   10137   10136   10138   10140   10139   10141   10143   10142   10144
   10146   10145   10147   10149   10148   10150   10152   10151   10153
   10155   10154   10156   10158   10157   10159   10161   10160   10162
   10164   10163   10165   10167   10166   10168   10170   10169   10171
   10173   10172   10174   10176   10175   10177   10179   10178   10180
   10182   10181   10183   10185   10184   10186   10188   10187   10189
   10191   10190   10192   10194   10193   10195   10197   10196   10198
   10200   10199   10201   10203   10202   10204   10206   10205   10207
   10209   10208   10210   10212   10211   10213   10215   10214   10216
   10218   10217   10219   10221   10220   10222   10224   10223   10225
   10227   10226   10228   10230   10229   10231   10233   10232   10234
   10236   10235   10237   10239   10238   10240   10242   10241   10243
   10245   10244   10246   10248   10247   10249   10251   10250   10252
   10254   10253   10255   10257   10256   10258   10260   10259   10261
   10263   10262   10264   10266   10265   10267   10269   10268   10270
   10272   10271   10273   10275   10274   10276   10278   10277   10279
   10281   10280   10282   10284   10283   10285   10287   10286   10288
   10290   10289   10291   10293   10292   10294   10296   10295   10297
   10299   10298   10300   10302   10301   10303   10305   10304   10306
   10308   10307   10309   10311   10310   10312   10314   10313   10315
   10317   10316   10318   10320   10319   10321   10323   10322   10324
   10326   10325   10327   10329   10328   10330   10332   10331   10333
   10335   10334   10336   10338   10337   10339   10341   10340   10342
   10344   10343   10345   10347   10346   10348   10350   10349   10351
   10353   10352   10354   10356   10355   10357   10359   10358   10360
   10362   10361   10363   10365   10364   10366   10368   10367   10369
   10371   10370   10372   10374   10373   10375   10377   10376   10378
   10380   10379   10381   10383   10382   10384   10386   10385   10387
   10389   10388   10390   10392   10391   10393   10395   10394   10396
   10398   10397   10399   10401   10400   10402   10404   10403   10405
   10407   10406   10408   10410   10409   10411   10413   10412   10414
   10416   10415   10417   10419   10418   10420   10422   10421   10423
   10425   10424   10426   10428   10427   10429   10431   10430   10432
   10434   10433   10435   10437   10436   10438   10440   10439   10441
   10443   10442   10444   10446   10445   10447   10449   10448   10450
   10452   10451   10453   10455   10454   10456   10458   10457   10459
   10461   10460   10462   10464   10463   10465   10467   10466   10468
   10470   10469   10471   10473   10472   10474   10476   10475   10477
   10479   10478   10480   10482   10481   10483   10485   10484   10486
   10488   10487   10489   10491   10490   10492   10494   10493   10495
   10497   10496   10498   10500   10499   10501   10503   10502   10504
   10506   10505   10507   10509   10508   10510   10512   10511   10513
   10515   10514   10516   10518   10517   10519   10521   10520   10522
   10524   10523   10525   10527   10526   10528   10530   10529   10531
   10533   10532   10534   10536   10535   10537   10539   10538   10540
   10542   10541   10543   10545   10544   10546   10548   10547   10549
   10551   10550   10552   10554   10553   10555   10557   10556   10558
   10560   10559   10561   10563   10562   10564   10566   10565   10567
   10569   10568   10570   10572   10571   10573   10575   10574   10576
   10578   10577   10579   10581   10580   10582   10584   10583   10585
   10587   10586   10588   10590   10589   10591   10593   10592   10594
   10596   10595   10597   10599   10598   10600   10602   10601   10603
   10605   10604   10606   10608   10607   10609   10611   10610   10612
   10614   10613   10615   10617   10616   10618   10620   10619   10621
   10623   10622   10624   10626   10625   10627   10629   10628   10630
   10632   10631   10633   10635   10634   10636   10638   10637   10639
   10641   10640   10642   10644   10643   10645   10647   10646   10648
   10650   10649   10651   10653   10652   10654   10656   10655   10657
   10659   10658   10660   10662   10661   10663   10665   10664   10666
   10668   10667   10669   10671   10670   10672   10674   10673   10675
   10677   10676   10678   10680   10679   10681   10683   10682   10684
   10686   10685   10687   10689   10688   10690   10692   10691   10693
   10695   10694   10696   10698   10697   10699   10701   10700   10702
   10704   10703   10705   10707   10706   10708   10710   10709   10711
   10713   10712   10714   10716   10715   10717   10719   10718   10720
   10722   10721   10723   10725   10724   10726   10728   10727   10729
   10731   10730   10732   10734   10733   10735   10737   10736   10738
   10740   10739   10741   10743   10742   10744   10746   10745   10747
   10749   10748   10750   10752   10751   10753   10755   10754   10756
   10758   10757   10759   10761   10760   10762   10764   10763   10765
   10767   10766   10768   10770   10769   10771   10773   10772   10774
   10776   10775   10777   10779   10778   10780   10782   10781   10783
   10785   10784   10786   10788   10787   10789   10791   10790   10792
   10794   10793   10795   10797   10796   10798   10800   10799   10801
   10803   10802   10804   10806   10805   10807   10809   10808   10810
   10812   10811   10813   10815   10814   10816   10818   10817   10819
   10821   10820   10822   10824   10823   10825   10827   10826   10828
   10830   10829   10831   10833   10832   10834   10836   10835   10837
   10839   10838   10840   10842   10841   10843   10845   10844   10846
   10848   10847   10849   10851   10850   10852   10854   10853   10855
   10857   10856   10858   10860   10859   10861   10863   10862   10864
   10866   10865   10867   10869   10868   10870   10872   10871   10873
   10875   10874   10876   10878   10877   10879   10881   10880   10882
   10884   10883   10885   10887   10886   10888   10890   10889   10891
   10893   10892   10894   10896   10895   10897   10899   10898   10900
   10902   10901   10903   10905   10904   10906   10908   10907   10909
   10911   10910   10912   10914   10913   10915   10917   10916   10918
   10920   10919   10921   10923   10922   10924   10926   10925   10927
   10929   10928   10930   10932   10931   10933   10935   10934   10936
   10938   10937   10939   10941   10940   10942   10944   10943   10945
   10947   10946   10948   10950   10949   10951   10953   10952   10954
   10956   10955   10957   10959   10958   10960   10962   10961   10963
   10965   10964   10966   10968   10967   10969   10971   10970   10972
   10974   10973   10975   10977   10976   10978   10980   10979   10981
   10983   10982   10984   10986   10985   10987   10989   10988   10990
   10992   10991   10993   10995   10994   10996   10998   10997   10999
   11001   11000   11002   11004   11003   11005   11007   11006   11008
   11010   11009   11011   11013   11012   11014   11016   11015   11017
   11019   11018   11020   11022   11021   11023   11025   11024   11026
   11028   11027   11029   11031   11030   11032   11034   11033   11035
   11037   11036   11038   11040   11039   11041   11043   11042   11044
   11046   11045   11047   11049   11048   11050   11052   11051   11053
   11055   11054   11056   11058   11057   11059   11061   11060   11062
   11064   11063   11065   11067   11066   11068   11070   11069   11071
   11073   11072   11074   11076   11075   11077   11079   11078   11080
   11082   11081   11083   11085   11084   11086   11088   11087   11089
   11091   11090   11092   11094   11093   11095   11097   11096   11098
   11100   11099   11101   11103   11102   11104   11106   11105   11107
   11109   11108   11110   11112   11111   11113   11115   11114   11116
   11118   11117   11119   11121   11120   11122   11124   11123   11125
   11127   11126   11128   11130   11129   11131   11133   11132   11134
   11136   11135   11137   11139   11138   11140   11142   11141   11143
   11145   11144   11146   11148   11147   11149   11151   11150   11152
   11154   11153   11155   11157   11156   11158   11160   11159   11161
   11163   11162   11164   11166   11165   11167   11169   11168   11170
   11172   11171   11173   11175   11174   11176   11178   11177   11179
   11181   11180   11182   11184   11183   11185   11187   11186   11188
   11190   11189   11191   11193   11192   11194   11196   11195   11197
   11199   11198   11200   11202   11201   11203   11205   11204   11206
   11208   11207   11209   11211   11210   11212   11214   11213   11215
   11217   11216   11218   11220   11219   11221   11223   11222   11224
   11226   11225   11227   11229   11228   11230   11232   11231   11233
   11235   11234   11236   11238   11237   11239   11241   11240   11242
   11244   11243   11245   11247   11246   11248   11250   11249   11251
   11253   11252   11254   11256   11255   11257   11259   11258   11260
   11262   11261   11263   11265   11264   11266   11268   11267   11269
   11271   11270   11272   11274   11273   11275   11277   11276   11278
   11280   11279   11281   11283   11282   11284   11286   11285   11287
   11289   11288   11290   11292   11291   11293   11295   11294   11296
   11298   11297   11299   11301   11300   11302   11304   11303   11305
   11307   11306   11308   11310   11309   11311   11313   11312   11314
   11316   11315   11317   11319   11318   11320   11322   11321   11323
   11325   11324   11326   11328   11327   11329   11331   11330   11332
   11334   11333   11335   11337   11336   11338   11340   11339   11341
   11343   11342   11344   11346   11345   11347   11349   11348   11350
   11352   11351   11353   11355   11354   11356   11358   11357   11359
   11361   11360   11362   11364   11363   11365   11367   11366   11368
   11370   11369   11371   11373   11372   11374   11376   11375   11377
   11379   11378   11380   11382   11381   11383   11385   11384   11386
   11388   11387   11389   11391   11390   11392   11394   11393   11395
   11397   11396   11398   11400   11399   11401   11403   11402   11404
   11406   11405   11407   11409   11408   11410   11412   11411   11413
   11415   11414   11416   11418   11417   11419   11421   11420   11422
   11424   11423   11425   11427   11426   11428   11430   11429   11431
   11433   11432   11434   11436   11435   11437   11439   11438   11440
   11442   11441   11443   11445   11444   11446   11448   11447   11449
   11451   11450   11452   11454   11453   11455   11457   11456   11458
   11460   11459   11461   11463   11462   11464   11466   11465   11467
   11469   11468   11470   11472   11471   11473   11475   11474   11476
   11478   11477   11479   11481   11480   11482   11484   11483   11485
   11487   11486   11488   11490   11489   11491   11493   11492   11494
   11496   11495   11497   11499   11498   11500   11502   11501   11503
   11505   11504   11506   11508   11507   11509   11511   11510   11512
   11514   11513   11515   11517   11516   11518   11520   11519   11521
   11523   11522   11524   11526   11525   11527   11529   11528   11530
   11532   11531   11533   11535   11534   11536   11538   11537   11539
   11541   11540   11542   11544   11543   11545   11547   11546   11548
   11550   11549   11551   11553   11552   11554   11556   11555   11557
   11559   11558   11560   11562   11561   11563   11565   11564   11566
   11568   11567   11569   11571   11570   11572   11574   11573   11575
   11577   11576   11578   11580   11579   11581   11583   11582   11584
   11586   11585   11587   11589   11588   11590   11592   11591   11593
   11595   11594   11596   11598   11597   11599   11601   11600   11602
   11604   11603   11605   11607   11606   11608   11610   11609   11611
   11613   11612   11614   11616   11615   11617   11619   11618   11620
   11622   11621   11623   11625   11624   11626   11628   11627   11629
   11631   11630   11632   11634   11633   11635   11637   11636   11638
   11640   11639   11641   11643   11642   11644   11646   11645   11647
   11649   11648   11650   11652   11651   11653   11655   11654   11656
   11658   11657   11659   11661   11660   11662   11664   11663   11665
   11667   11666   11668   11670   11669   11671   11673   11672   11674
   11676   11675   11677   11679   11678   11680   11682   11681   11683
   11685   11684   11686   11688   11687   11689   11691   11690   11692
   11694   11693   11695   11697   11696   11698   11700   11699   11701
   11703   11702   11704   11706   11705   11707   11709   11708   11710
   11712   11711   11713   11715   11714   11716   11718   11717   11719
   11721   11720   11722   11724   11723   11725   11727   11726   11728
   11730   11729   11731   11733   11732   11734   11736   11735   11737
   11739   11738   11740   11742   11741   11743   11745   11744   11746
   11748   11747   11749   11751   11750   11752   11754   11753   11755
   11757   11756   11758   11760   11759   11761   11763   11762   11764
   11766   11765   11767   11769   11768   11770   11772   11771   11773
   11775   11774   11776   11778   11777   11779   11781   11780   11782
   11784   11783   11785   11787   11786   11788   11790   11789   11791
   11793   11792   11794   11796   11795   11797   11799   11798   11800
   11802   11801   11803   11805   11804   11806   11808   11807   11809
   11811   11810   11812   11814   11813   11815   11817   11816   11818
   11820   11819   11821   11823   11822   11824   11826   11825   11827
   11829   11828   11830   11832   11831   11833   11835   11834   11836
   11838   11837   11839   11841   11840   11842   11844   11843   11845
   11847   11846   11848   11850   11849   11851   11853   11852   11854
   11856   11855   11857   11859   11858   11860   11862   11861   11863
   11865   11864   11866   11868   11867   11869   11871   11870   11872
   11874   11873   11875   11877   11876   11878   11880   11879   11881
   11883   11882   11884   11886   11885   11887   11889   11888   11890
   11892   11891   11893   11895   11894   11896   11898   11897   11899
   11901   11900   11902   11904   11903   11905   11907   11906   11908
   11910   11909   11911   11913   11912   11914   11916   11915   11917
   11919   11918   11920   11922   11921   11923   11925   11924   11926
   11928   11927   11929   11931   11930   11932   11934   11933   11935
   11937   11936   11938   11940   11939   11941   11943   11942   11944
   11946   11945   11947   11949   11948   11950   11952   11951   11953
   11955   11954   11956   11958   11957   11959   11961   11960   11962
   11964   11963   11965   11967   11966   11968   11970   11969   11971
   11973   11972   11974   11976   11975   11977   11979   11978   11980
   11982   11981   11983   11985   11984   11986   11988   11987   11989
   11991   11990   11992   11994   11993   11995   11997   11996   11998
   12000   11999   12001   12003   12002   12004   12006   12005   12007
   12009   12008   12010   12012   12011   12013   12015   12014   12016
   12018   12017   12019   12021   12020   12022   12024   12023   12025
   12027   12026   12028   12030   12029   12031   12033   12032   12034
   12036   12035   12037   12039   12038   12040   12042   12041   12043
   12045   12044   12046   12048   12047   12049   12051   12050   12052
   12054   12053   12055   12057   12056   12058   12060   12059   12061
   12063   12062   12064   12066   12065   12067   12069   12068   12070
   12072   12071   12073   12075   12074   12076   12078   12077   12079
   12081   12080   12082   12084   12083   12085   12087   12086   12088
   12090   12089   12091   12093   12092   12094   12096   12095   12097
   12099   12098   12100   12102   12101   12103   12105   12104   12106
   12108   12107   12109   12111   12110   12112   12114   12113   12115
   12117   12116   12118   12120   12119   12121   12123   12122   12124
   12126   12125   12127   12129   12128   12130   12132   12131   12133
   12135   12134   12136   12138   12137   12139   12141   12140   12142
   12144   12143   12145   12147   12146   12148   12150   12149   12151
   12153   12152   12154   12156   12155   12157   12159   12158   12160
   12162   12161   12163   12165   12164   12166   12168   12167   12169
   12171   12170   12172   12174   12173   12175   12177   12176   12178
   12180   12179   12181   12183   12182   12184   12186   12185   12187
   12189   12188   12190   12192   12191   12193   12195   12194   12196
   12198   12197   12199   12201   12200   12202   12204   12203   12205
   12207   12206   12208   12210   12209   12211   12213   12212   12214
   12216   12215   12217   12219   12218   12220   12222   12221   12223
   12225   12224   12226   12228   12227   12229   12231   12230   12232
   12234   12233   12235   12237   12236   12238   12240   12239   12241
   12243   12242   12244   12246   12245   12247   12249   12248   12250
   12252   12251   12253   12255   12254   12256   12258   12257   12259
   12261   12260   12262   12264   12263   12265   12267   12266   12268
   12270   12269   12271   12273   12272   12274   12276   12275   12277
   12279   12278   12280   12282   12281   12283   12285   12284   12286
   12288   12287   12289   12291   12290   12292   12294   12293   12295
   12297   12296   12298   12300   12299   12301   12303   12302   12304
   12306   12305   12307   12309   12308   12310   12312   12311   12313
   12315   12314   12316   12318   12317   12319   12321   12320   12322
   12324   12323   12325   12327   12326   12328   12330   12329   12331
   12333   12332   12334   12336   12335   12337   12339   12338   12340
   12342   12341   12343   12345   12344   12346   12348   12347   12349
   12351   12350   12352   12354   12353   12355   12357   12356   12358
   12360   12359   12361   12363   12362   12364   12366   12365   12367
   12369   12368   12370   12372   12371   12373   12375   12374   12376
   12378   12377   12379   12381   12380   12382   12384   12383   12385
   12387   12386   12388   12390   12389   12391   12393   12392   12394
   12396   12395   12397   12399   12398   12400   12402   12401   12403
   12405   12404   12406   12408   12407   12409   12411   12410   12412
   12414   12413   12415   12417   12416   12418   12420   12419   12421
   12423   12422   12424   12426   12425   12427   12429   12428   12430
   12432   12431   12433   12435   12434   12436   12438   12437   12439
   12441   12440   12442   12444   12443   12445   12447   12446   12448
   12450   12449   12451   12453   12452   12454   12456   12455   12457
   12459   12458   12460   12462   12461   12463   12465   12464   12466
   12468   12467   12469   12471   12470   12472   12474   12473   12475
   12477   12476   12478   12480   12479   12481   12483   12482   12484
   12486   12485   12487   12489   12488   12490   12492   12491   12493
   12495   12494   12496   12498   12497   12499   12501   12500   12502
   12504   12503   12505   12507   12506   12508   12510   12509   12511
   12513   12512   12514   12516   12515   12517   12519   12518   12520
   12522   12521   12523   12525   12524   12526   12528   12527   12529
   12531   12530   12532   12534   12533   12535   12537   12536   12538
   12540   12539   12541   12543   12542   12544   12546   12545   12547
   12549   12548   12550   12552   12551   12553   12555   12554   12556
   12558   12557   12559   12561   12560   12562   12564   12563   12565
   12567   12566   12568   12570   12569   12571   12573   12572   12574
   12576   12575   12577   12579   12578   12580   12582   12581   12583
   12585   12584   12586   12588   12587   12589   12591   12590   12592
   12594   12593   12595   12597   12596   12598   12600   12599   12601
   12603   12602   12604   12606   12605   12607   12609   12608   12610
   12612   12611   12613   12615   12614   12616   12618   12617   12619
   12621   12620   12622   12624   12623   12625   12627   12626   12628
   12630   12629   12631   12633   12632   12634   12636   12635   12637
   12639   12638   12640   12642   12641   12643   12645   12644   12646
   12648   12647   12649   12651   12650   12652   12654   12653   12655
   12657   12656   12658   12660   12659   12661   12663   12662   12664
   12666   12665   12667   12669   12668   12670   12672   12671   12673
   12675   12674   12676   12678   12677   12679   12681   12680   12682
   12684   12683   12685   12687   12686   12688   12690   12689   12691
   12693   12692   12694   12696   12695   12697   12699   12698   12700
   12702   12701   12703   12705   12704   12706   12708   12707   12709
   12711   12710   12712   12714   12713   12715   12717   12716   12718
   12720   12719   12721   12723   12722   12724   12726   12725   12727
   12729   12728   12730   12732   12731   12733   12735   12734   12736
   12738   12737   12739   12741   12740   12742   12744   12743   12745
   12747   12746   12748   12750   12749   12751   12753   12752   12754
   12756   12755   12757   12759   12758   12760   12762   12761   12763
   12765   12764   12766   12768   12767   12769   12771   12770   12772
   12774   12773   12775   12777   12776   12778   12780   12779   12781
   12783   12782   12784   12786   12785   12787   12789   12788   12790
   12792   12791   12793   12795   12794   12796   12798   12797   12799
   12801   12800   12802   12804   12803   12805   12807   12806   12808
   12810   12809   12811   12813   12812   12814   12816   12815   12817
   12819   12818   12820   12822   12821   12823   12825   12824   12826
   12828   12827   12829   12831   12830   12832   12834   12833   12835
   12837   12836   12838   12840   12839   12841   12843   12842   12844
   12846   12845   12847   12849   12848   12850   12852   12851   12853
   12855   12854   12856   12858   12857   12859   12861   12860   12862
   12864   12863   12865   12867   12866   12868   12870   12869   12871
   12873   12872   12874   12876   12875   12877   12879   12878   12880
   12882   12881   12883   12885   12884   12886   12888   12887   12889
   12891   12890   12892   12894   12893   12895   12897   12896   12898
   12900   12899   12901   12903   12902   12904   12906   12905   12907
   12909   12908   12910   12912   12911   12913   12915   12914   12916
   12918   12917   12919   12921   12920   12922   12924   12923   12925
   12927   12926   12928   12930   12929   12931   12933   12932   12934
   12936   12935   12937   12939   12938   12940   12942   12941   12943
   12945   12944   12946   12948   12947   12949   12951   12950   12952
   12954   12953   12955   12957   12956   12958   12960   12959   12961
   12963   12962   12964   12966   12965   12967   12969   12968   12970
   12972   12971   12973   12975   12974   12976   12978   12977   12979
   12981   12980   12982   12984   12983   12985   12987   12986   12988
   12990   12989   12991   12993   12992   12994   12996   12995   12997
   12999   12998   13000   13002   13001   13003   13005   13004   13006
   13008   13007   13009   13011   13010   13012   13014   13013   13015
   13017   13016   13018   13020   13019   13021   13023   13022   13024
   13026   13025   13027   13029   13028   13030   13032   13031   13033
   13035   13034   13036   13038   13037   13039   13041   13040   13042
   13044   13043   13045   13047   13046   13048   13050   13049   13051
   13053   13052   13054   13056   13055   13057   13059   13058   13060
   13062   13061   13063   13065   13064   13066   13068   13067   13069
   13071   13070   13072   13074   13073   13075   13077   13076   13078
   13080   13079   13081   13083   13082   13084   13086   13085   13087
   13089   13088   13090   13092   13091   13093   13095   13094   13096
   13098   13097   13099   13101   13100   13102   13104   13103   13105
   13107   13106   13108   13110   13109   13111   13113   13112   13114
   13116   13115   13117   13119   13118   13120   13122   13121   13123
   13125   13124   13126   13128   13127   13129   13131   13130   13132
   13134   13133   13135   13137   13136   13138   13140   13139   13141
   13143   13142   13144   13146   13145   13147   13149   13148   13150
   13152   13151   13153   13155   13154   13156   13158   13157   13159
   13161   13160   13162   13164   13163   13165   13167   13166   13168
   13170   13169   13171   13173   13172   13174   13176   13175   13177
   13179   13178   13180   13182   13181   13183   13185   13184   13186
   13188   13187   13189   13191   13190   13192   13194   13193   13195
   13197   13196   13198   13200   13199   13201   13203   13202   13204
   13206   13205   13207   13209   13208   13210   13212   13211   13213
   13215   13214   13216   13218   13217   13219   13221   13220   13222
   13224   13223   13225   13227   13226   13228   13230   13229   13231
   13233   13232   13234   13236   13235   13237   13239   13238   13240
   13242   13241   13243   13245   13244   13246   13248   13247   13249
   13251   13250   13252   13254   13253   13255   13257   13256   13258
   13260   13259   13261   13263   13262   13264   13266   13265   13267
   13269   13268   13270   13272   13271   13273   13275   13274   13276
   13278   13277   13279   13281   13280   13282   13284   13283   13285
   13287   13286   13288   13290   13289   13291   13293   13292   13294
   13296   13295   13297   13299   13298   13300   13302   13301   13303
   13305   13304   13306   13308   13307   13309   13311   13310   13312
   13314   13313   13315   13317   13316   13318   13320   13319   13321
   13323   13322   13324   13326   13325   13327   13329   13328   13330
   13332   13331   13333   13335   13334   13336   13338   13337   13339
   13341   13340   13342   13344   13343   13345   13347   13346   13348
   13350   13349   13351   13353   13352   13354   13356   13355   13357
   13359   13358   13360   13362   13361   13363   13365   13364   13366
   13368   13367   13369   13371   13370   13372   13374   13373   13375
   13377   13376   13378   13380   13379   13381   13383   13382   13384
   13386   13385   13387   13389   13388   13390   13392   13391   13393
   13395   13394   13396   13398   13397   13399   13401   13400   13402
   13404   13403   13405   13407   13406   13408   13410   13409   13411
   13413   13412   13414   13416   13415   13417   13419   13418   13420
   13422   13421   13423   13425   13424   13426   13428   13427   13429
   13431   13430   13432   13434   13433   13435   13437   13436   13438
   13440   13439   13441   13443   13442   13444   13446   13445   13447
   13449   13448   13450   13452   13451   13453   13455   13454   13456
   13458   13457   13459   13461   13460   13462   13464   13463   13465
   13467   13466   13468   13470   13469   13471   13473   13472   13474
   13476   13475   13477   13479   13478   13480   13482   13481   13483
   13485   13484   13486   13488   13487   13489   13491   13490   13492
   13494   13493   13495   13497   13496   13498   13500   13499   13501
   13503   13502   13504   13506   13505   13507   13509   13508   13510
   13512   13511   13513   13515   13514   13516   13518   13517   13519
   13521   13520   13522   13524   13523   13525   13527   13526   13528
   13530   13529   13531   13533   13532   13534   13536   13535   13537
   13539   13538   13540   13542   13541   13543   13545   13544   13546
   13548   13547   13549   13551   13550   13552   13554   13553   13555
   13557   13556   13558   13560   13559   13561   13563   13562   13564
   13566   13565   13567   13569   13568   13570   13572   13571   13573
   13575   13574   13576   13578   13577   13579   13581   13580   13582
   13584   13583   13585   13587   13586   13588   13590   13589   13591
   13593   13592   13594   13596   13595   13597   13599   13598   13600
   13602   13601   13603   13605   13604   13606   13608   13607   13609
   13611   13610   13612   13614   13613   13615   13617   13616   13618
   13620   13619   13621   13623   13622   13624   13626   13625   13627
   13629   13628   13630   13632   13631   13633   13635   13634   13636
   13638   13637   13639   13641   13640   13642   13644   13643   13645
   13647   13646   13648   13650   13649   13651   13653   13652   13654
   13656   13655   13657   13659   13658   13660   13662   13661   13663
   13665   13664   13666   13668   13667   13669   13671   13670   13672
   13674   13673   13675   13677   13676   13678   13680   13679   13681
   13683   13682   13684   13686   13685   13687   13689   13688   13690
   13692   13691   13693   13695   13694   13696   13698   13697   13699
   13701   13700   13702   13704   13703   13705   13707   13706   13708
   13710   13709   13711   13713   13712   13714   13716   13715   13717
   13719   13718   13720   13722   13721   13723   13725   13724   13726
   13728   13727   13729   13731   13730   13732   13734   13733   13735
   13737   13736   13738   13740   13739   13741   13743   13742   13744
   13746   13745   13747   13749   13748   13750   13752   13751   13753
   13755   13754   13756   13758   13757   13759   13761   13760   13762
   13764   13763   13765   13767   13766   13768   13770   13769   13771
   13773   13772   13774   13776   13775   13777   13779   13778   13780
   13782   13781   13783   13785   13784   13786   13788   13787   13789
   13791   13790   13792   13794   13793   13795   13797   13796   13798
   13800   13799   13801   13803   13802   13804   13806   13805   13807
   13809   13808   13810   13812   13811   13813   13815   13814   13816
   13818   13817   13819   13821   13820   13822   13824   13823   13825
   13827   13826   13828   13830   13829   13831   13833   13832   13834
   13836   13835   13837   13839   13838   13840   13842   13841   13843
   13845   13844   13846   13848   13847   13849   13851   13850   13852
   13854   13853   13855   13857   13856   13858   13860   13859   13861
   13863   13862   13864   13866   13865   13867   13869   13868   13870
   13872   13871   13873   13875   13874   13876   13878   13877   13879
   13881   13880   13882   13884   13883   13885   13887   13886   13888
   13890   13889   13891   13893   13892   13894   13896   13895   13897
   13899   13898   13900   13902   13901   13903   13905   13904   13906
   13908   13907   13909   13911   13910   13912   13914   13913   13915
   13917   13916   13918   13920   13919   13921   13923   13922   13924
   13926   13925   13927   13929   13928   13930   13932   13931   13933
   13935   13934   13936   13938   13937   13939   13941   13940   13942
   13944   13943   13945   13947   13946   13948   13950   13949   13951
   13953   13952   13954   13956   13955   13957   13959   13958   13960
   13962   13961   13963   13965   13964   13966   13968   13967   13969
   13971   13970   13972   13974   13973   13975   13977   13976   13978
   13980   13979   13981   13983   13982   13984   13986   13985   13987
   13989   13988   13990   13992   13991   13993   13995   13994   13996
   13998   13997   13999   14001   14000   14002   14004   14003   14005
   14007   14006   14008   14010   14009   14011   14013   14012   14014
   14016   14015   14017   14019   14018   14020   14022   14021   14023
   14025   14024   14026   14028   14027   14029   14031   14030   14032
   14034   14033   14035   14037   14036   14038   14040   14039   14041
   14043   14042   14044   14046   14045   14047   14049   14048   14050
   14052   14051   14053   14055   14054   14056   14058   14057   14059
   14061   14060   14062   14064   14063   14065   14067   14066   14068
   14070   14069   14071   14073   14072   14074   14076   14075   14077
   14079   14078   14080   14082   14081   14083   14085   14084   14086
   14088   14087   14089   14091   14090   14092   14094   14093   14095
   14097   14096   14098   14100   14099   14101   14103   14102   14104
   14106   14105   14107   14109   14108   14110   14112   14111   14113
   14115   14114   14116   14118   14117   14119   14121   14120   14122
   14124   14123   14125   14127   14126   14128   14130   14129   14131
   14133   14132   14134   14136   14135   14137   14139   14138   14140
   14142   14141   14143   14145   14144   14146   14148   14147   14149
   14151   14150   14152   14154   14153   14155   14157   14156   14158
   14160   14159   14161   14163   14162   14164   14166   14165   14167
   14169   14168   14170   14172   14171   14173   14175   14174   14176
   14178   14177   14179   14181   14180   14182   14184   14183   14185
   14187   14186   14188   14190   14189   14191   14193   14192   14194
   14196   14195   14197   14199   14198   14200   14202   14201   14203
   14205   14204   14206   14208   14207   14209   14211   14210   14212
   14214   14213   14215   14217   14216   14218   14220   14219   14221
   14223   14222   14224   14226   14225   14227   14229   14228   14230
   14232   14231   14233   14235   14234   14236   14238   14237   14239
   14241   14240   14242   14244   14243   14245   14247   14246   14248
   14250   14249   14251   14253   14252   14254   14256   14255   14257
   14259   14258   14260   14262   14261   14263   14265   14264   14266
   14268   14267   14269   14271   14270   14272   14274   14273   14275
   14277   14276   14278   14280   14279   14281   14283   14282   14284
   14286   14285   14287   14289   14288   14290   14292   14291   14293
   14295   14294   14296   14298   14297   14299   14301   14300   14302
   14304   14303   14305   14307   14306   14308   14310   14309   14311
   14313   14312   14314   14316   14315   14317   14319   14318   14320
   14322   14321   14323   14325   14324   14326   14328   14327   14329
   14331   14330   14332   14334   14333   14335   14337   14336   14338
   14340   14339   14341   14343   14342   14344   14346   14345   14347
   14349   14348   14350   14352   14351   14353   14355   14354   14356
   14358   14357   14359   14361   14360   14362   14364   14363   14365
   14367   14366   14368   14370   14369   14371   14373   14372   14374
   14376   14375   14377   14379   14378   14380   14382   14381   14383
   14385   14384   14386   14388   14387   14389   14391   14390   14392
   14394   14393   14395   14397   14396   14398   14400   14399   14401
   14403   14402   14404   14406   14405   14407   14409   14408   14410
   14412   14411   14413   14415   14414   14416   14418   14417   14419
   14421   14420   14422   14424   14423   14425   14427   14426   14428
   14430   14429   14431   14433   14432   14434   14436   14435   14437
   14439   14438   14440   14442   14441   14443   14445   14444   14446
   14448   14447   14449   14451   14450   14452   14454   14453   14455
   14457   14456   14458   14460   14459   14461   14463   14462   14464
   14466   14465   14467   14469   14468   14470   14472   14471   14473
   14475   14474   14476   14478   14477   14479   14481   14480   14482
   14484   14483   14485   14487   14486   14488   14490   14489   14491
   14493   14492   14494   14496   14495   14497   14499   14498   14500
   14502   14501   14503   14505   14504   14506   14508   14507   14509
   14511   14510   14512   14514   14513   14515   14517   14516   14518
   14520   14519   14521   14523   14522   14524   14526   14525   14527
   14529   14528   14530   14532   14531   14533   14535   14534   14536
   14538   14537   14539   14541   14540   14542   14544   14543   14545
   14547   14546   14548   14550   14549   14551   14553   14552   14554
   14556   14555   14557   14559   14558   14560   14562   14561   14563
   14565   14564   14566   14568   14567   14569   14571   14570   14572
   14574   14573   14575   14577   14576   14578   14580   14579   14581
   14583   14582   14584   14586   14585   14587   14589   14588   14590
   14592   14591   14593   14595   14594   14596   14598   14597   14599
   14601   14600   14602   14604   14603   14605   14607   14606   14608
   14610   14609   14611   14613   14612   14614   14616   14615   14617
   14619   14618   14620   14622   14621   14623   14625   14624   14626
   14628   14627   14629   14631   14630   14632   14634   14633   14635
   14637   14636   14638   14640   14639   14641   14643   14642   14644
   14646   14645   14647   14649   14648   14650   14652   14651   14653
   14655   14654   14656   14658   14657   14659   14661   14660   14662
   14664   14663   14665   14667   14666   14668   14670   14669   14671
   14673   14672   14674   14676   14675   14677   14679   14678   14680
   14682   14681   14683   14685   14684   14686   14688   14687   14689
   14691   14690   14692   14694   14693   14695   14697   14696   14698
   14700   14699   14701   14703   14702   14704   14706   14705   14707
   14709   14708   14710   14712   14711   14713   14715   14714   14716
   14718   14717   14719   14721   14720   14722   14724   14723   14725
   14727   14726   14728   14730   14729   14731   14733   14732   14734
   14736   14735   14737   14739   14738   14740   14742   14741   14743
   14745   14744   14746   14748   14747   14749   14751   14750   14752
   14754   14753   14755   14757   14756   14758   14760   14759   14761
   14763   14762   14764   14766   14765   14767   14769   14768   14770
   14772   14771   14773   14775   14774   14776   14778   14777   14779
   14781   14780   14782   14784   14783   14785   14787   14786   14788
   14790   14789   14791   14793   14792   14794   14796   14795   14797
   14799   14798   14800   14802   14801   14803   14805   14804   14806
   14808   14807   14809   14811   14810   14812   14814   14813   14815
   14817   14816   14818   14820   14819   14821   14823   14822   14824
   14826   14825   14827   14829   14828   14830   14832   14831   14833
   14835   14834   14836   14838   14837   14839   14841   14840   14842
   14844   14843   14845   14847   14846   14848   14850   14849   14851
   14853   14852   14854   14856   14855   14857   14859   14858   14860
   14862   14861   14863   14865   14864   14866   14868   14867   14869
   14871   14870   14872   14874   14873   14875   14877   14876   14878
   14880   14879   14881   14883   14882   14884   14886   14885   14887
   14889   14888   14890   14892   14891   14893   14895   14894   14896
   14898   14897   14899   14901   14900   14902   14904   14903   14905
   14907   14906   14908   14910   14909   14911   14913   14912   14914
   14916   14915   14917   14919   14918   14920   14922   14921   14923
   14925   14924   14926   14928   14927   14929   14931   14930   14932
   14934   14933   14935   14937   14936   14938   14940   14939   14941
   14943   14942   14944   14946   14945   14947   14949   14948   14950
   14952   14951   14953   14955   14954   14956   14958   14957   14959
   14961   14960   14962   14964   14963   14965   14967   14966   14968
   14970   14969   14971   14973   14972   14974   14976   14975   14977
   14979   14978   14980   14982   14981   14983   14985   14984   14986
   14988   14987   14989   14991   14990   14992   14994   14993   14995
   14997   14996   14998   15000   14999   15001   15003   15002   15004
   15006   15005   15007   15009   15008   15010   15012   15011   15013
   15015   15014   15016   15018   15017   15019   15021   15020   15022
   15024   15023   15025   15027   15026   15028   15030   15029   15031
   15033   15032   15034   15036   15035   15037   15039   15038   15040
   15042   15041   15043   15045   15044   15046   15048   15047   15049
   15051   15050   15052   15054   15053   15055   15057   15056   15058
   15060   15059   15061   15063   15062   15064   15066   15065   15067
   15069   15068   15070   15072   15071   15073   15075   15074   15076
   15078   15077   15079   15081   15080   15082   15084   15083   15085
   15087   15086   15088   15090   15089   15091   15093   15092   15094
   15096   15095   15097   15099   15098   15100   15102   15101   15103
   15105   15104   15106   15108   15107   15109   15111   15110   15112
   15114   15113   15115   15117   15116   15118   15120   15119   15121
   15123   15122   15124   15126   15125   15127   15129   15128   15130
   15132   15131   15133   15135   15134   15136   15138   15137   15139
   15141   15140   15142   15144   15143   15145   15147   15146   15148
   15150   15149   15151   15153   15152   15154   15156   15155   15157
   15159   15158   15160   15162   15161   15163   15165   15164   15166
   15168   15167   15169   15171   15170   15172   15174   15173   15175
   15177   15176   15178   15180   15179   15181   15183   15182   15184
   15186   15185   15187   15189   15188   15190   15192   15191   15193
   15195   15194   15196   15198   15197   15199   15201   15200   15202
   15204   15203   15205   15207   15206   15208   15210   15209   15211
   15213   15212   15214   15216   15215   15217   15219   15218   15220
   15222   15221   15223   15225   15224   15226   15228   15227   15229
   15231   15230   15232   15234   15233   15235   15237   15236   15238
   15240   15239   15241   15243   15242   15244   15246   15245   15247
   15249   15248   15250   15252   15251   15253   15255   15254   15256
   15258   15257   15259   15261   15260   15262   15264   15263   15265
   15267   15266   15268   15270   15269   15271   15273   15272   15274
   15276   15275   15277   15279   15278   15280   15282   15281   15283
   15285   15284   15286   15288   15287   15289   15291   15290   15292
   15294   15293   15295   15297   15296   15298   15300   15299   15301
   15303   15302   15304   15306   15305   15307   15309   15308   15310
   15312   15311   15313   15315   15314   15316   15318   15317   15319
   15321   15320   15322   15324   15323   15325   15327   15326   15328
   15330   15329   15331   15333   15332   15334   15336   15335   15337
   15339   15338   15340   15342   15341   15343   15345   15344   15346
   15348   15347   15349   15351   15350   15352   15354   15353   15355
   15357   15356   15358   15360   15359   15361   15363   15362   15364
   15366   15365   15367   15369   15368   15370   15372   15371   15373
   15375   15374   15376   15378   15377   15379   15381   15380   15382
   15384   15383   15385   15387   15386   15388   15390   15389   15391
   15393   15392   15394   15396   15395   15397   15399   15398   15400
   15402   15401   15403   15405   15404   15406   15408   15407   15409
   15411   15410   15412   15414   15413   15415   15417   15416   15418
   15420   15419   15421   15423   15422   15424   15426   15425   15427
   15429   15428   15430   15432   15431   15433   15435   15434   15436
   15438   15437   15439   15441   15440   15442   15444   15443   15445
   15447   15446   15448   15450   15449   15451   15453   15452   15454
   15456   15455   15457   15459   15458   15460   15462   15461   15463
   15465   15464   15466   15468   15467   15469   15471   15470   15472
   15474   15473   15475   15477   15476   15478   15480   15479   15481
   15483   15482   15484   15486   15485   15487   15489   15488   15490
   15492   15491   15493   15495   15494   15496   15498   15497   15499
   15501   15500   15502   15504   15503   15505   15507   15506   15508
   15510   15509   15511   15513   15512   15514   15516   15515   15517
   15519   15518   15520   15522   15521   15523   15525   15524   15526
   15528   15527   15529   15531   15530   15532   15534   15533   15535
   15537   15536   15538   15540   15539   15541   15543   15542   15544
   15546   15545   15547   15549   15548   15550   15552   15551   15553
   15555   15554   15556   15558   15557   15559   15561   15560   15562
   15564   15563   15565   15567   15566   15568   15570   15569   15571
   15573   15572   15574   15576   15575   15577   15579   15578   15580
   15582   15581   15583   15585   15584   15586   15588   15587   15589
   15591   15590   15592   15594   15593   15595   15597   15596   15598
   15600   15599   15601   15603   15602   15604   15606   15605   15607
   15609   15608   15610   15612   15611   15613   15615   15614   15616
   15618   15617   15619   15621   15620   15622   15624   15623   15625
   15627   15626   15628   15630   15629   15631   15633   15632   15634
   15636   15635   15637   15639   15638   15640   15642   15641   15643
   15645   15644   15646   15648   15647   15649   15651   15650   15652
   15654   15653   15655   15657   15656   15658   15660   15659   15661
   15663   15662   15664   15666   15665   15667   15669   15668   15670
   15672   15671   15673   15675   15674   15676   15678   15677   15679
   15681   15680   15682   15684   15683   15685   15687   15686   15688
   15690   15689   15691   15693   15692   15694   15696   15695   15697
   15699   15698   15700   15702   15701   15703   15705   15704   15706
   15708   15707   15709   15711   15710   15712   15714   15713   15715
   15717   15716   15718   15720   15719   15721   15723   15722   15724
   15726   15725   15727   15729   15728   15730   15732   15731   15733
   15735   15734   15736   15738   15737   15739   15741   15740   15742
   15744   15743   15745   15747   15746   15748   15750   15749   15751
   15753   15752   15754   15756   15755   15757   15759   15758   15760
   15762   15761   15763   15765   15764   15766   15768   15767   15769
   15771   15770   15772   15774   15773   15775   15777   15776   15778
   15780   15779   15781   15783   15782   15784   15786   15785   15787
   15789   15788   15790   15792   15791   15793   15795   15794   15796
   15798   15797   15799   15801   15800   15802   15804   15803   15805
   15807   15806   15808   15810   15809   15811   15813   15812   15814
   15816   15815   15817   15819   15818   15820   15822   15821   15823
   15825   15824   15826   15828   15827   15829   15831   15830   15832
   15834   15833   15835   15837   15836   15838   15840   15839   15841
   15843   15842   15844   15846   15845   15847   15849   15848   15850
   15852   15851   15853   15855   15854   15856   15858   15857   15859
   15861   15860   15862   15864   15863   15865   15867   15866   15868
   15870   15869   15871   15873   15872   15874   15876   15875   15877
   15879   15878   15880   15882   15881   15883   15885   15884   15886
   15888   15887   15889   15891   15890   15892   15894   15893   15895
   15897   15896   15898   15900   15899   15901   15903   15902   15904
   15906   15905   15907   15909   15908   15910   15912   15911   15913
   15915   15914   15916   15918   15917   15919   15921   15920   15922
   15924   15923   15925   15927   15926   15928   15930   15929   15931
   15933   15932   15934   15936   15935   15937   15939   15938   15940
   15942   15941   15943   15945   15944   15946   15948   15947   15949
   15951   15950   15952   15954   15953   15955   15957   15956   15958
   15960   15959   15961   15963   15962   15964   15966   15965   15967
   15969   15968   15970   15972   15971   15973   15975   15974   15976
   15978   15977   15979   15981   15980   15982   15984   15983   15985
   15987   15986   15988   15990   15989   15991   15993   15992   15994
   15996   15995   15997   15999   15998   16000   16002   16001   16003
   16005   16004   16006   16008   16007   16009   16011   16010   16012
   16014   16013   16015   16017   16016   16018   16020   16019   16021
   16023   16022   16024   16026   16025   16027   16029   16028   16030
   16032   16031   16033   16035   16034   16036   16038   16037   16039
   16041   16040   16042   16044   16043   16045   16047   16046   16048
   16050   16049   16051   16053   16052   16054   16056   16055   16057
   16059   16058   16060   16062   16061   16063   16065   16064   16066
   16068   16067   16069   16071   16070   16072   16074   16073   16075
   16077   16076   16078   16080   16079   16081   16083   16082   16084
   16086   16085   16087   16089   16088   16090   16092   16091   16093
   16095   16094   16096   16098   16097   16099   16101   16100   16102
   16104   16103   16105   16107   16106   16108   16110   16109   16111
   16113   16112   16114   16116   16115   16117   16119   16118   16120
   16122   16121   16123   16125   16124   16126   16128   16127   16129
   16131   16130   16132   16134   16133   16135   16137   16136   16138
   16140   16139   16141   16143   16142   16144   16146   16145   16147
   16149   16148   16150   16152   16151   16153   16155   16154   16156
   16158   16157   16159   16161   16160   16162   16164   16163   16165
   16167   16166   16168   16170   16169   16171   16173   16172   16174
   16176   16175   16177   16179   16178   16180   16182   16181   16183
   16185   16184   16186   16188   16187   16189   16191   16190   16192
   16194   16193   16195   16197   16196   16198   16200   16199   16201
   16203   16202   16204   16206   16205   16207   16209   16208   16210
   16212   16211   16213   16215   16214   16216   16218   16217   16219
   16221   16220   16222   16224   16223   16225   16227   16226   16228
   16230   16229   16231   16233   16232   16234   16236   16235   16237
   16239   16238   16240   16242   16241   16243   16245   16244   16246
   16248   16247   16249   16251   16250   16252   16254   16253   16255
   16257   16256   16258   16260   16259   16261   16263   16262   16264
   16266   16265   16267   16269   16268   16270   16272   16271   16273
   16275   16274   16276   16278   16277   16279   16281   16280   16282
   16284   16283   16285   16287   16286   16288   16290   16289   16291
   16293   16292   16294   16296   16295   16297   16299   16298   16300
   16302   16301   16303   16305   16304   16306   16308   16307   16309
   16311   16310   16312   16314   16313   16315   16317   16316   16318
   16320   16319   16321   16323   16322   16324   16326   16325   16327
   16329   16328   16330   16332   16331   16333   16335   16334   16336
   16338   16337   16339   16341   16340   16342   16344   16343   16345
   16347   16346   16348   16350   16349   16351   16353   16352   16354
   16356   16355   16357   16359   16358   16360   16362   16361   16363
   16365   16364   16366   16368   16367   16369   16371   16370   16372
   16374   16373   16375   16377   16376   16378   16380   16379   16381
   16383   16382   16384   16386   16385   16387   16389   16388   16390
   16392   16391   16393   16395   16394   16396   16398   16397   16399
   16401   16400   16402   16404   16403   16405   16407   16406   16408
   16410   16409   16411   16413   16412   16414   16416   16415   16417
   16419   16418   16420   16422   16421   16423   16425   16424   16426
   16428   16427   16429   16431   16430   16432   16434   16433   16435
   16437   16436   16438   16440   16439   16441   16443   16442   16444
   16446   16445   16447   16449   16448   16450   16452   16451   16453
   16455   16454   16456   16458   16457   16459   16461   16460   16462
   16464   16463   16465   16467   16466   16468   16470   16469   16471
   16473   16472   16474   16476   16475   16477   16479   16478   16480
   16482   16481   16483   16485   16484   16486   16488   16487   16489
   16491   16490   16492   16494   16493   16495   16497   16496   16498
   16500   16499   16501   16503   16502   16504   16506   16505   16507
   16509   16508   16510   16512   16511   16513   16515   16514   16516
   16518   16517   16519   16521   16520   16522   16524   16523   16525
   16527   16526   16528   16530   16529   16531   16533   16532   16534
   16536   16535   16537   16539   16538   16540   16542   16541   16543
   16545   16544   16546   16548   16547   16549   16551   16550   16552
   16554   16553   16555   16557   16556   16558   16560   16559   16561
   16563   16562   16564   16566   16565   16567   16569   16568   16570
   16572   16571   16573   16575   16574   16576   16578   16577   16579
   16581   16580   16582   16584   16583   16585   16587   16586   16588
   16590   16589   16591   16593   16592   16594   16596   16595   16597
   16599   16598   16600   16602   16601   16603   16605   16604   16606
   16608   16607   16609   16611   16610   16612   16614   16613   16615
   16617   16616   16618   16620   16619   16621   16623   16622   16624
   16626   16625   16627   16629   16628   16630   16632   16631   16633
   16635   16634   16636   16638   16637   16639   16641   16640   16642
   16644   16643   16645   16647   16646   16648   16650   16649   16651
   16653   16652   16654   16656   16655   16657   16659   16658   16660
   16662   16661   16663   16665   16664   16666   16668   16667   16669
   16671   16670   16672   16674   16673   16675   16677   16676   16678
   16680   16679   16681   16683   16682   16684   16686   16685   16687
   16689   16688   16690   16692   16691   16693   16695   16694   16696
   16698   16697   16699   16701   16700   16702   16704   16703   16705
   16707   16706   16708   16710   16709   16711   16713   16712   16714
   16716   16715   16717   16719   16718   16720   16722   16721   16723
   16725   16724   16726   16728   16727   16729   16731   16730   16732
   16734   16733   16735   16737   16736   16738   16740   16739   16741
   16743   16742   16744   16746   16745   16747   16749   16748   16750
   16752   16751   16753   16755   16754   16756   16758   16757   16759
   16761   16760   16762   16764   16763   16765   16767   16766   16768
   16770   16769   16771   16773   16772   16774   16776   16775   16777
   16779   16778   16780   16782   16781   16783   16785   16784   16786
   16788   16787   16789   16791   16790   16792   16794   16793   16795
   16797   16796   16798   16800   16799   16801   16803   16802   16804
   16806   16805   16807   16809   16808   16810   16812   16811   16813
   16815   16814   16816   16818   16817   16819   16821   16820   16822
   16824   16823   16825   16827   16826   16828   16830   16829   16831
   16833   16832   16834   16836   16835   16837   16839   16838   16840
   16842   16841   16843   16845   16844   16846   16848   16847   16849
   16851   16850   16852   16854   16853   16855   16857   16856   16858
   16860   16859   16861   16863   16862   16864   16866   16865   16867
   16869   16868   16870   16872   16871   16873   16875   16874   16876
   16878   16877   16879   16881   16880   16882   16884   16883   16885
   16887   16886   16888   16890   16889   16891   16893   16892   16894
   16896   16895   16897   16899   16898   16900   16902   16901   16903
   16905   16904   16906   16908   16907   16909   16911   16910   16912
   16914   16913   16915   16917   16916   16918   16920   16919   16921
   16923   16922   16924   16926   16925   16927   16929   16928   16930
   16932   16931   16933   16935   16934   16936   16938   16937   16939
   16941   16940   16942   16944   16943   16945   16947   16946   16948
   16950   16949   16951   16953   16952   16954   16956   16955   16957
   16959   16958   16960   16962   16961   16963   16965   16964   16966
   16968   16967   16969   16971   16970   16972   16974   16973   16975
   16977   16976   16978   16980   16979   16981   16983   16982   16984
   16986   16985   16987   16989   16988   16990   16992   16991   16993
   16995   16994   16996   16998   16997   16999   17001   17000   17002
   17004   17003   17005   17007   17006   17008   17010   17009   17011
   17013   17012   17014   17016   17015   17017   17019   17018   17020
   17022   17021   17023   17025   17024   17026   17028   17027   17029
   17031   17030   17032   17034   17033   17035   17037   17036   17038
   17040   17039   17041   17043   17042   17044   17046   17045   17047
   17049   17048   17050   17052   17051   17053   17055   17054   17056
   17058   17057   17059   17061   17060   17062   17064   17063   17065
   17067   17066   17068   17070   17069   17071   17073   17072   17074
   17076   17075   17077   17079   17078   17080   17082   17081   17083
   17085   17084   17086   17088   17087   17089   17091   17090   17092
   17094   17093   17095   17097   17096   17098   17100   17099   17101
   17103   17102   17104   17106   17105   17107   17109   17108   17110
   17112   17111   17113   17115   17114   17116   17118   17117   17119
   17121   17120   17122   17124   17123   17125   17127   17126   17128
   17130   17129   17131   17133   17132   17134   17136   17135   17137
   17139   17138   17140   17142   17141   17143   17145   17144   17146
   17148   17147   17149   17151   17150   17152   17154   17153   17155
   17157   17156   17158   17160   17159   17161   17163   17162   17164
   17166   17165   17167   17169   17168   17170   17172   17171   17173
   17175   17174   17176   17178   17177   17179   17181   17180   17182
   17184   17183   17185   17187   17186   17188   17190   17189   17191
   17193   17192   17194   17196   17195   17197   17199   17198   17200
   17202   17201   17203   17205   17204   17206   17208   17207   17209
   17211   17210   17212   17214   17213   17215   17217   17216   17218
   17220   17219   17221   17223   17222   17224   17226   17225   17227
   17229   17228   17230   17232   17231   17233   17235   17234   17236
   17238   17237   17239   17241   17240   17242   17244   17243   17245
   17247   17246   17248   17250   17249   17251   17253   17252   17254
   17256   17255   17257   17259   17258   17260   17262   17261   17263
   17265   17264   17266   17268   17267   17269   17271   17270   17272
   17274   17273   17275   17277   17276   17278   17280   17279   17281
   17283   17282   17284   17286   17285   17287   17289   17288   17290
   17292   17291   17293   17295   17294   17296   17298   17297   17299
   17301   17300   17302   17304   17303   17305   17307   17306   17308
   17310   17309   17311   17313   17312   17314   17316   17315   17317
   17319   17318   17320   17322   17321   17323   17325   17324   17326
   17328   17327   17329   17331   17330   17332   17334   17333   17335
   17337   17336   17338   17340   17339   17341   17343   17342   17344
   17346   17345   17347   17349   17348   17350   17352   17351   17353
   17355   17354   17356   17358   17357   17359   17361   17360   17362
   17364   17363   17365   17367   17366   17368   17370   17369   17371
   17373   17372   17374   17376   17375   17377   17379   17378   17380
   17382   17381   17383   17385   17384   17386   17388   17387   17389
   17391   17390   17392   17394   17393   17395   17397   17396   17398
   17400   17399   17401   17403   17402   17404   17406   17405   17407
   17409   17408   17410   17412   17411   17413   17415   17414   17416
   17418   17417   17419   17421   17420   17422   17424   17423   17425
   17427   17426   17428   17430   17429   17431   17433   17432   17434
   17436   17435   17437   17439   17438   17440   17442   17441   17443
   17445   17444   17446   17448   17447   17449   17451   17450   17452
   17454   17453   17455   17457   17456   17458   17460   17459   17461
   17463   17462   17464   17466   17465   17467   17469   17468   17470
   17472   17471   17473   17475   17474   17476   17478   17477   17479
   17481   17480   17482   17484   17483   17485   17487   17486   17488
   17490   17489   17491   17493   17492   17494   17496   17495   17497
   17499   17498   17500   17502   17501   17503   17505   17504   17506
   17508   17507   17509   17511   17510   17512   17514   17513   17515
   17517   17516   17518   17520   17519   17521   17523   17522   17524
   17526   17525   17527   17529   17528   17530   17532   17531   17533
   17535   17534   17536   17538   17537   17539   17541   17540   17542
   17544   17543   17545   17547   17546   17548   17550   17549   17551
   17553   17552   17554   17556   17555   17557   17559   17558   17560
   17562   17561   17563   17565   17564   17566   17568   17567   17569
   17571   17570   17572   17574   17573   17575   17577   17576   17578
   17580   17579   17581   17583   17582   17584   17586   17585   17587
   17589   17588   17590   17592   17591   17593   17595   17594   17596
   17598   17597   17599   17601   17600   17602   17604   17603   17605
   17607   17606   17608   17610   17609   17611   17613   17612   17614
   17616   17615   17617   17619   17618   17620   17622   17621   17623
   17625   17624   17626   17628   17627   17629   17631   17630   17632
   17634   17633   17635   17637   17636   17638   17640   17639   17641
   17643   17642   17644   17646   17645   17647   17649   17648   17650
   17652   17651   17653   17655   17654   17656   17658   17657   17659
   17661   17660   17662   17664   17663   17665   17667   17666   17668
   17670   17669   17671   17673   17672   17674   17676   17675   17677
   17679   17678   17680   17682   17681   17683   17685   17684   17686
   17688   17687   17689   17691   17690   17692   17694   17693   17695
   17697   17696   17698   17700   17699   17701   17703   17702   17704
   17706   17705   17707   17709   17708   17710   17712   17711   17713
   17715   17714   17716   17718   17717   17719   17721   17720   17722
   17724   17723   17725   17727   17726   17728   17730   17729   17731
   17733   17732   17734   17736   17735   17737   17739   17738   17740
   17742   17741   17743   17745   17744   17746   17748   17747   17749
   17751   17750   17752   17754   17753   17755   17757   17756   17758
   17760   17759   17761   17763   17762   17764   17766   17765   17767
   17769   17768   17770   17772   17771   17773   17775   17774   17776
   17778   17777   17779   17781   17780   17782   17784   17783   17785
   17787   17786   17788   17790   17789   17791   17793   17792   17794
   17796   17795   17797   17799   17798   17800   17802   17801   17803
   17805   17804   17806   17808   17807   17809   17811   17810   17812
   17814   17813   17815   17817   17816   17818   17820   17819   17821
   17823   17822   17824   17826   17825   17827   17829   17828   17830
   17832   17831   17833   17835   17834   17836   17838   17837   17839
   17841   17840   17842   17844   17843   17845   17847   17846   17848
   17850   17849   17851   17853   17852   17854   17856   17855   17857
   17859   17858   17860   17862   17861   17863   17865   17864   17866
   17868   17867   17869   17871   17870   17872   17874   17873   17875
   17877   17876   17878   17880   17879   17881   17883   17882   17884
   17886   17885   17887   17889   17888   17890   17892   17891   17893
   17895   17894   17896   17898   17897   17899   17901   17900   17902
   17904   17903   17905   17907   17906   17908   17910   17909   17911
   17913   17912   17914   17916   17915   17917   17919   17918   17920
   17922   17921   17923   17925   17924   17926   17928   17927   17929
   17931   17930   17932   17934   17933   17935   17937   17936   17938
   17940   17939   17941   17943   17942   17944   17946   17945   17947
   17949   17948   17950   17952   17951   17953   17955   17954   17956
   17958   17957   17959   17961   17960   17962   17964   17963   17965
   17967   17966   17968   17970   17969   17971   17973   17972   17974
   17976   17975   17977   17979   17978   17980   17982   17981   17983
   17985   17984   17986   17988   17987   17989   17991   17990   17992
   17994   17993   17995   17997   17996   17998   18000   17999   18001
   18003   18002   18004   18006   18005   18007   18009   18008   18010
   18012   18011   18013   18015   18014   18016   18018   18017   18019
   18021   18020   18022   18024   18023   18025   18027   18026   18028
   18030   18029   18031   18033   18032   18034   18036   18035   18037
   18039   18038   18040   18042   18041   18043   18045   18044   18046
   18048   18047   18049   18051   18050   18052   18054   18053   18055
   18057   18056   18058   18060   18059   18061   18063   18062   18064
   18066   18065   18067   18069   18068   18070   18072   18071   18073
   18075   18074   18076   18078   18077   18079   18081   18080   18082
   18084   18083   18085   18087   18086   18088   18090   18089   18091
   18093   18092   18094   18096   18095   18097   18099   18098   18100
   18102   18101   18103   18105   18104   18106   18108   18107   18109
   18111   18110   18112   18114   18113   18115   18117   18116   18118
   18120   18119   18121   18123   18122   18124   18126   18125   18127
   18129   18128   18130   18132   18131   18133   18135   18134   18136
   18138   18137   18139   18141   18140   18142   18144   18143   18145
   18147   18146   18148   18150   18149   18151   18153   18152   18154
   18156   18155   18157   18159   18158   18160   18162   18161   18163
   18165   18164   18166   18168   18167   18169   18171   18170   18172
   18174   18173   18175   18177   18176   18178   18180   18179   18181
   18183   18182   18184   18186   18185   18187   18189   18188   18190
   18192   18191   18193   18195   18194   18196   18198   18197   18199
   18201   18200   18202   18204   18203   18205   18207   18206   18208
   18210   18209   18211   18213   18212   18214   18216   18215   18217
   18219   18218   18220   18222   18221   18223   18225   18224   18226
   18228   18227   18229   18231   18230   18232   18234   18233   18235
   18237   18236   18238   18240   18239   18241   18243   18242   18244
   18246   18245   18247   18249   18248   18250   18252   18251   18253
   18255   18254   18256   18258   18257   18259   18261   18260   18262
   18264   18263   18265   18267   18266   18268   18270   18269   18271
   18273   18272   18274   18276   18275   18277   18279   18278   18280
   18282   18281   18283   18285   18284   18286   18288   18287   18289
   18291   18290   18292   18294   18293   18295   18297   18296   18298
   18300   18299   18301   18303   18302   18304   18306   18305   18307
   18309   18308   18310   18312   18311   18313   18315   18314   18316
   18318   18317   18319   18321   18320   18322   18324   18323   18325
   18327   18326   18328   18330   18329   18331   18333   18332   18334
   18336   18335   18337   18339   18338   18340   18342   18341   18343
   18345   18344   18346   18348   18347   18349   18351   18350   18352
   18354   18353   18355   18357   18356   18358   18360   18359   18361
   18363   18362   18364   18366   18365   18367   18369   18368   18370
   18372   18371   18373   18375   18374   18376   18378   18377   18379
   18381   18380   18382   18384   18383   18385   18387   18386   18388
   18390   18389   18391   18393   18392   18394   18396   18395   18397
   18399   18398   18400   18402   18401   18403   18405   18404   18406
   18408   18407   18409   18411   18410   18412   18414   18413   18415
   18417   18416   18418   18420   18419   18421   18423   18422   18424
   18426   18425   18427   18429   18428   18430   18432   18431   18433
   18435   18434   18436   18438   18437   18439   18441   18440   18442
   18444   18443   18445   18447   18446   18448   18450   18449   18451
   18453   18452   18454   18456   18455   18457   18459   18458   18460
   18462   18461   18463   18465   18464   18466   18468   18467   18469
   18471   18470   18472   18474   18473   18475   18477   18476   18478
   18480   18479   18481   18483   18482   18484   18486   18485   18487
   18489   18488   18490   18492   18491   18493   18495   18494   18496
   18498   18497   18499   18501   18500   18502   18504   18503   18505
   18507   18506   18508   18510   18509   18511   18513   18512   18514
   18516   18515   18517   18519   18518   18520   18522   18521   18523
   18525   18524   18526   18528   18527   18529   18531   18530   18532
   18534   18533   18535   18537   18536   18538   18540   18539   18541
   18543   18542   18544   18546   18545   18547   18549   18548   18550
   18552   18551   18553   18555   18554   18556   18558   18557   18559
   18561   18560   18562   18564   18563   18565   18567   18566   18568
   18570   18569   18571   18573   18572   18574   18576   18575   18577
   18579   18578   18580   18582   18581   18583   18585   18584   18586
   18588   18587   18589   18591   18590   18592   18594   18593   18595
   18597   18596   18598   18600   18599   18601   18603   18602   18604
   18606   18605   18607   18609   18608   18610   18612   18611   18613
   18615   18614   18616   18618   18617   18619   18621   18620   18622
   18624   18623   18625   18627   18626   18628   18630   18629   18631
   18633   18632   18634   18636   18635   18637   18639   18638   18640
   18642   18641   18643   18645   18644   18646   18648   18647   18649
   18651   18650   18652   18654   18653   18655   18657   18656   18658
   18660   18659   18661   18663   18662   18664   18666   18665   18667
   18669   18668   18670   18672   18671   18673   18675   18674   18676
   18678   18677   18679   18681   18680   18682   18684   18683   18685
   18687   18686   18688   18690   18689   18691   18693   18692   18694
   18696   18695   18697   18699   18698   18700   18702   18701   18703
   18705   18704   18706   18708   18707   18709   18711   18710   18712
   18714   18713   18715   18717   18716   18718   18720   18719   18721
   18723   18722   18724   18726   18725   18727   18729   18728   18730
   18732   18731   18733   18735   18734   18736   18738   18737   18739
   18741   18740   18742   18744   18743   18745   18747   18746   18748
   18750   18749   18751   18753   18752   18754   18756   18755   18757
   18759   18758   18760   18762   18761   18763   18765   18764   18766
   18768   18767   18769   18771   18770   18772   18774   18773   18775
   18777   18776   18778   18780   18779   18781   18783   18782   18784
   18786   18785   18787   18789   18788   18790   18792   18791   18793
   18795   18794   18796   18798   18797   18799   18801   18800   18802
   18804   18803   18805   18807   18806   18808   18810   18809   18811
   18813   18812   18814   18816   18815   18817   18819   18818   18820
   18822   18821   18823   18825   18824   18826   18828   18827   18829
   18831   18830   18832   18834   18833   18835   18837   18836   18838
   18840   18839   18841   18843   18842   18844   18846   18845   18847
   18849   18848   18850   18852   18851   18853   18855   18854   18856
   18858   18857   18859   18861   18860   18862   18864   18863   18865
   18867   18866   18868   18870   18869   18871   18873   18872   18874
   18876   18875   18877   18879   18878   18880   18882   18881   18883
   18885   18884   18886   18888   18887   18889   18891   18890   18892
   18894   18893   18895   18897   18896   18898   18900   18899   18901
   18903   18902   18904   18906   18905   18907   18909   18908   18910
   18912   18911   18913   18915   18914   18916   18918   18917   18919
   18921   18920   18922   18924   18923   18925   18927   18926   18928
   18930   18929   18931   18933   18932   18934   18936   18935   18937
   18939   18938   18940   18942   18941   18943   18945   18944   18946
   18948   18947   18949   18951   18950   18952   18954   18953   18955
   18957   18956   18958   18960   18959   18961   18963   18962   18964
   18966   18965   18967   18969   18968   18970   18972   18971   18973
   18975   18974   18976   18978   18977   18979   18981   18980   18982
   18984   18983   18985   18987   18986   18988   18990   18989   18991
   18993   18992   18994   18996   18995   18997   18999   18998   19000
   19002   19001   19003   19005   19004   19006   19008   19007   19009
   19011   19010   19012   19014   19013   19015   19017   19016   19018
   19020   19019   19021   19023   19022   19024   19026   19025   19027
   19029   19028   19030   19032   19031   19033   19035   19034   19036
   19038   19037   19039   19041   19040   19042   19044   19043   19045
   19047   19046   19048   19050   19049   19051   19053   19052   19054
   19056   19055   19057   19059   19058   19060   19062   19061   19063
   19065   19064   19066   19068   19067   19069   19071   19070   19072
   19074   19073   19075   19077   19076   19078   19080   19079   19081
   19083   19082   19084   19086   19085   19087   19089   19088   19090
   19092   19091   19093   19095   19094   19096   19098   19097   19099
   19101   19100   19102   19104   19103   19105   19107   19106   19108
   19110   19109   19111   19113   19112   19114   19116   19115   19117
   19119   19118   19120   19122   19121   19123   19125   19124   19126
   19128   19127   19129   19131   19130   19132   19134   19133   19135
   19137   19136   19138   19140   19139   19141   19143   19142   19144
   19146   19145   19147   19149   19148   19150   19152   19151   19153
   19155   19154   19156   19158   19157   19159   19161   19160   19162
   19164   19163   19165   19167   19166   19168   19170   19169   19171
   19173   19172   19174   19176   19175   19177   19179   19178   19180
   19182   19181   19183   19185   19184   19186   19188   19187   19189
   19191   19190   19192   19194   19193   19195   19197   19196   19198
   19200   19199   19201   19203   19202   19204   19206   19205   19207
   19209   19208   19210   19212   19211   19213   19215   19214   19216
   19218   19217   19219   19221   19220   19222   19224   19223   19225
   19227   19226   19228   19230   19229   19231   19233   19232   19234
   19236   19235   19237   19239   19238   19240   19242   19241   19243
   19245   19244   19246   19248   19247   19249   19251   19250   19252
   19254   19253   19255   19257   19256   19258   19260   19259   19261
   19263   19262   19264   19266   19265   19267   19269   19268   19270
   19272   19271   19273   19275   19274   19276   19278   19277   19279
   19281   19280   19282   19284   19283   19285   19287   19286   19288
   19290   19289   19291   19293   19292   19294   19296   19295   19297
   19299   19298   19300   19302   19301   19303   19305   19304   19306
   19308   19307   19309   19311   19310   19312   19314   19313   19315
   19317   19316   19318   19320   19319   19321   19323   19322   19324
   19326   19325   19327   19329   19328   19330   19332   19331   19333
   19335   19334   19336   19338   19337   19339   19341   19340   19342
   19344   19343   19345   19347   19346   19348   19350   19349   19351
   19353   19352   19354   19356   19355   19357   19359   19358   19360
   19362   19361   19363   19365   19364   19366   19368   19367   19369
   19371   19370   19372   19374   19373   19375   19377   19376   19378
   19380   19379   19381   19383   19382   19384   19386   19385   19387
   19389   19388   19390   19392   19391   19393   19395   19394   19396
   19398   19397   19399   19401   19400   19402   19404   19403   19405
   19407   19406   19408   19410   19409   19411   19413   19412   19414
   19416   19415   19417   19419   19418   19420   19422   19421   19423
   19425   19424   19426   19428   19427   19429   19431   19430   19432
   19434   19433   19435   19437   19436   19438   19440   19439   19441
   19443   19442   19444   19446   19445   19447   19449   19448   19450
   19452   19451   19453   19455   19454   19456   19458   19457   19459
   19461   19460   19462   19464   19463   19465   19467   19466   19468
   19470   19469   19471   19473   19472   19474   19476   19475   19477
   19479   19478   19480   19482   19481   19483   19485   19484   19486
   19488   19487   19489   19491   19490   19492   19494   19493   19495
   19497   19496   19498   19500   19499   19501   19503   19502   19504
   19506   19505   19507   19509   19508   19510   19512   19511   19513
   19515   19514   19516   19518   19517   19519   19521   19520   19522
   19524   19523   19525   19527   19526   19528   19530   19529   19531
   19533   19532   19534   19536   19535   19537   19539   19538   19540
   19542   19541   19543   19545   19544   19546   19548   19547   19549
   19551   19550   19552   19554   19553   19555   19557   19556   19558
   19560   19559   19561   19563   19562   19564   19566   19565   19567
   19569   19568   19570   19572   19571   19573   19575   19574   19576
   19578   19577   19579   19581   19580   19582   19584   19583   19585
   19587   19586   19588   19590   19589   19591   19593   19592   19594
   19596   19595   19597   19599   19598   19600   19602   19601   19603
   19605   19604   19606   19608   19607   19609   19611   19610   19612
   19614   19613   19615   19617   19616   19618   19620   19619   19621
   19623   19622   19624   19626   19625   19627   19629   19628   19630
   19632   19631   19633   19635   19634   19636   19638   19637   19639
   19641   19640   19642   19644   19643   19645   19647   19646   19648
   19650   19649   19651   19653   19652   19654   19656   19655   19657
   19659   19658   19660   19662   19661   19663   19665   19664   19666
   19668   19667   19669   19671   19670   19672   19674   19673   19675
   19677   19676   19678   19680   19679   19681   19683   19682   19684
   19686   19685   19687   19689   19688   19690   19692   19691   19693
   19695   19694   19696   19698   19697   19699   19701   19700   19702
   19704   19703   19705   19707   19706   19708   19710   19709   19711
   19713   19712   19714   19716   19715   19717   19719   19718   19720
   19722   19721   19723   19725   19724   19726   19728   19727   19729
   19731   19730   19732   19734   19733   19735   19737   19736   19738
   19740   19739   19741   19743   19742   19744   19746   19745   19747
   19749   19748   19750   19752   19751   19753   19755   19754   19756
   19758   19757   19759   19761   19760   19762   19764   19763   19765
   19767   19766   19768   19770   19769   19771   19773   19772   19774
   19776   19775   19777   19779   19778   19780   19782   19781   19783
   19785   19784   19786   19788   19787   19789   19791   19790   19792
   19794   19793   19795   19797   19796   19798   19800   19799   19801
   19803   19802   19804   19806   19805   19807   19809   19808   19810
   19812   19811   19813   19815   19814   19816   19818   19817   19819
   19821   19820   19822   19824   19823   19825   19827   19826   19828
   19830   19829   19831   19833   19832   19834   19836   19835   19837
   19839   19838   19840   19842   19841   19843   19845   19844   19846
   19848   19847   19849   19851   19850   19852   19854   19853   19855
   19857   19856   19858   19860   19859   19861   19863   19862   19864
   19866   19865   19867   19869   19868   19870   19872   19871   19873
   19875   19874   19876   19878   19877   19879   19881   19880   19882
   19884   19883   19885   19887   19886   19888   19890   19889   19891
   19893   19892   19894   19896   19895   19897   19899   19898   19900
   19902   19901   19903   19905   19904   19906   19908   19907   19909
   19911   19910   19912   19914   19913   19915   19917   19916   19918
   19920   19919   19921   19923   19922   19924   19926   19925   19927
   19929   19928   19930   19932   19931   19933   19935   19934   19936
   19938   19937   19939   19941   19940   19942   19944   19943   19945
   19947   19946   19948   19950   19949   19951   19953   19952   19954
   19956   19955   19957   19959   19958   19960   19962   19961   19963
   19965   19964   19966   19968   19967   19969   19971   19970   19972
   19974   19973   19975   19977   19976   19978   19980   19979   19981
   19983   19982   19984   19986   19985   19987   19989   19988   19990
   19992   19991   19993   19995   19994   19996   19998   19997   19999
   20001   20000   20002   20004   20003   20005   20007   20006   20008
   20010   20009   20011   20013   20012   20014   20016   20015   20017
   20019   20018   20020   20022   20021   20023   20025   20024   20026
   20028   20027   20029   20031   20030   20032   20034   20033   20035
   20037   20036   20038   20040   20039   20041   20043   20042   20044
   20046   20045   20047   20049   20048   20050   20052   20051   20053
   20055   20054   20056   20058   20057   20059   20061   20060   20062
   20064   20063   20065   20067   20066   20068   20070   20069   20071
   20073   20072   20074   20076   20075   20077   20079   20078   20080
   20082   20081   20083   20085   20084   20086   20088   20087   20089
   20091   20090   20092   20094   20093   20095   20097   20096   20098
   20100   20099   20101   20103   20102   20104   20106   20105   20107
   20109   20108   20110   20112   20111   20113   20115   20114   20116
   20118   20117   20119   20121   20120   20122   20124   20123   20125
   20127   20126   20128   20130   20129   20131   20133   20132   20134
   20136   20135   20137   20139   20138   20140   20142   20141   20143
   20145   20144   20146   20148   20147   20149   20151   20150   20152
   20154   20153   20155   20157   20156   20158   20160   20159   20161
   20163   20162   20164   20166   20165   20167   20169   20168   20170
   20172   20171   20173   20175   20174   20176   20178   20177   20179
   20181   20180   20182   20184   20183   20185   20187   20186   20188
   20190   20189   20191   20193   20192   20194   20196   20195   20197
   20199   20198   20200   20202   20201   20203   20205   20204   20206
   20208   20207   20209   20211   20210   20212   20214   20213   20215
   20217   20216   20218   20220   20219   20221   20223   20222   20224
   20226   20225   20227   20229   20228   20230   20232   20231   20233
   20235   20234   20236   20238   20237   20239   20241   20240   20242
   20244   20243   20245   20247   20246   20248   20250   20249   20251
   20253   20252   20254   20256   20255   20257   20259   20258   20260
   20262   20261   20263   20265   20264   20266   20268   20267   20269
   20271   20270   20272   20274   20273   20275   20277   20276   20278
   20280   20279   20281   20283   20282   20284   20286   20285   20287
   20289   20288   20290   20292   20291   20293   20295   20294   20296
   20298   20297   20299   20301   20300   20302   20304   20303   20305
   20307   20306   20308   20310   20309   20311   20313   20312   20314
   20316   20315   20317   20319   20318   20320   20322   20321   20323
   20325   20324   20326   20328   20327   20329   20331   20330   20332
   20334   20333   20335   20337   20336   20338   20340   20339   20341
   20343   20342   20344   20346   20345   20347   20349   20348   20350
   20352   20351   20353   20355   20354   20356   20358   20357   20359
   20361   20360   20362   20364   20363   20365   20367   20366   20368
   20370   20369   20371   20373   20372   20374   20376   20375   20377
   20379   20378   20380   20382   20381   20383   20385   20384   20386
   20388   20387   20389   20391   20390   20392   20394   20393   20395
   20397   20396   20398   20400   20399   20401   20403   20402   20404
   20406   20405   20407   20409   20408   20410   20412   20411   20413
   20415   20414   20416   20418   20417   20419   20421   20420   20422
   20424   20423   20425   20427   20426   20428   20430   20429   20431
   20433   20432   20434   20436   20435   20437   20439   20438   20440
   20442   20441   20443   20445   20444   20446   20448   20447   20449
   20451   20450   20452   20454   20453   20455   20457   20456   20458
   20460   20459   20461   20463   20462   20464   20466   20465   20467
   20469   20468   20470   20472   20471   20473   20475   20474   20476
   20478   20477   20479   20481   20480   20482   20484   20483   20485
   20487   20486   20488   20490   20489   20491   20493   20492   20494
   20496   20495   20497   20499   20498   20500   20502   20501   20503
   20505   20504   20506   20508   20507   20509   20511   20510   20512
   20514   20513   20515   20517   20516   20518   20520   20519   20521
   20523   20522   20524   20526   20525   20527   20529   20528   20530
   20532   20531   20533   20535   20534   20536   20538   20537   20539
   20541   20540   20542   20544   20543   20545   20547   20546   20548
   20550   20549   20551   20553   20552   20554   20556   20555   20557
   20559   20558   20560   20562   20561   20563   20565   20564   20566
   20568   20567   20569   20571   20570   20572   20574   20573   20575
   20577   20576   20578   20580   20579   20581   20583   20582   20584
   20586   20585   20587   20589   20588   20590   20592   20591   20593
   20595   20594   20596   20598   20597   20599   20601   20600   20602
   20604   20603   20605   20607   20606   20608   20610   20609   20611
   20613   20612   20614   20616   20615   20617   20619   20618   20620
   20622   20621   20623   20625   20624   20626   20628   20627   20629
   20631   20630   20632   20634   20633   20635   20637   20636   20638
   20640   20639   20641   20643   20642   20644   20646   20645   20647
   20649   20648   20650   20652   20651   20653   20655   20654   20656
   20658   20657   20659   20661   20660   20662   20664   20663   20665
   20667   20666   20668   20670   20669   20671   20673   20672   20674
   20676   20675   20677   20679   20678   20680   20682   20681   20683
   20685   20684   20686   20688   20687   20689   20691   20690   20692
   20694   20693   20695   20697   20696   20698   20700   20699   20701
   20703   20702   20704   20706   20705   20707   20709   20708   20710
   20712   20711   20713   20715   20714   20716   20718   20717   20719
   20721   20720   20722   20724   20723   20725   20727   20726   20728
   20730   20729   20731   20733   20732   20734   20736   20735   20737
   20739   20738   20740   20742   20741   20743   20745   20744   20746
   20748   20747   20749   20751   20750   20752   20754   20753   20755
   20757   20756   20758   20760   20759   20761   20763   20762   20764
   20766   20765   20767   20769   20768   20770   20772   20771   20773
   20775   20774   20776   20778   20777   20779   20781   20780   20782
   20784   20783   20785   20787   20786   20788   20790   20789   20791
   20793   20792   20794   20796   20795   20797   20799   20798   20800
   20802   20801   20803   20805   20804   20806   20808   20807   20809
   20811   20810   20812   20814   20813   20815   20817   20816   20818
   20820   20819   20821   20823   20822   20824   20826   20825   20827
   20829   20828   20830   20832   20831   20833   20835   20834   20836
   20838   20837   20839   20841   20840   20842   20844   20843   20845
   20847   20846   20848   20850   20849   20851   20853   20852   20854
   20856   20855   20857   20859   20858   20860   20862   20861   20863
   20865   20864   20866   20868   20867   20869   20871   20870   20872
   20874   20873   20875   20877   20876   20878   20880   20879   20881
   20883   20882   20884   20886   20885   20887   20889   20888   20890
   20892   20891   20893   20895   20894   20896   20898   20897   20899
   20901   20900   20902   20904   20903   20905   20907   20906   20908
   20910   20909   20911   20913   20912   20914   20916   20915   20917
   20919   20918   20920   20922   20921   20923   20925   20924   20926
   20928   20927   20929   20931   20930   20932   20934   20933   20935
   20937   20936   20938   20940   20939   20941   20943   20942   20944
   20946   20945   20947   20949   20948   20950   20952   20951   20953
   20955   20954   20956   20958   20957   20959   20961   20960   20962
   20964   20963   20965   20967   20966   20968   20970   20969   20971
   20973   20972   20974   20976   20975   20977   20979   20978   20980
   20982   20981   20983   20985   20984   20986   20988   20987   20989
   20991   20990   20992   20994   20993   20995   20997   20996   20998
   21000   20999   21001   21003   21002   21004   21006   21005   21007
   21009   21008   21010   21012   21011   21013   21015   21014   21016
   21018   21017   21019   21021   21020   21022   21024   21023   21025
   21027   21026   21028   21030   21029   21031   21033   21032   21034
   21036   21035   21037   21039   21038   21040   21042   21041   21043
   21045   21044   21046   21048   21047   21049   21051   21050   21052
   21054   21053   21055   21057   21056   21058   21060   21059   21061
   21063   21062   21064   21066   21065   21067   21069   21068   21070
   21072   21071   21073   21075   21074   21076   21078   21077   21079
   21081   21080   21082   21084   21083   21085   21087   21086   21088
   21090   21089   21091   21093   21092   21094   21096   21095   21097
   21099   21098   21100   21102   21101   21103   21105   21104   21106
   21108   21107   21109   21111   21110   21112   21114   21113   21115
   21117   21116   21118   21120   21119   21121   21123   21122   21124
   21126   21125   21127   21129   21128   21130   21132   21131   21133
   21135   21134   21136   21138   21137   21139   21141   21140   21142
   21144   21143   21145   21147   21146   21148   21150   21149   21151
   21153   21152   21154   21156   21155   21157   21159   21158   21160
   21162   21161   21163   21165   21164   21166   21168   21167   21169
   21171   21170   21172   21174   21173   21175   21177   21176   21178
   21180   21179   21181   21183   21182   21184   21186   21185   21187
   21189   21188   21190   21192   21191   21193   21195   21194   21196
   21198   21197   21199   21201   21200   21202   21204   21203   21205
   21207   21206   21208   21210   21209   21211   21213   21212   21214
   21216   21215   21217   21219   21218   21220   21222   21221   21223
   21225   21224   21226   21228   21227   21229   21231   21230   21232
   21234   21233   21235   21237   21236   21238   21240   21239   21241
   21243   21242   21244   21246   21245   21247   21249   21248   21250
   21252   21251   21253   21255   21254   21256   21258   21257   21259
   21261   21260   21262   21264   21263   21265   21267   21266   21268
   21270   21269   21271   21273   21272   21274   21276   21275   21277
   21279   21278   21280   21282   21281   21283   21285   21284   21286
   21288   21287   21289   21291   21290   21292   21294   21293   21295
   21297   21296   21298   21300   21299   21301   21303   21302   21304
   21306   21305   21307   21309   21308   21310   21312   21311   21313
   21315   21314   21316   21318   21317   21319   21321   21320   21322
   21324   21323   21325   21327   21326   21328   21330   21329   21331
   21333   21332   21334   21336   21335   21337   21339   21338   21340
   21342   21341   21343   21345   21344   21346   21348   21347   21349
   21351   21350   21352   21354   21353   21355   21357   21356   21358
   21360   21359   21361   21363   21362   21364   21366   21365   21367
   21369   21368   21370   21372   21371   21373   21375   21374   21376
   21378   21377   21379   21381   21380   21382   21384   21383   21385
   21387   21386   21388   21390   21389   21391   21393   21392   21394
   21396   21395   21397   21399   21398   21400   21402   21401   21403
   21405   21404   21406   21408   21407   21409   21411   21410   21412
   21414   21413   21415   21417   21416   21418   21420   21419   21421
   21423   21422   21424   21426   21425   21427   21429   21428   21430
   21432   21431   21433   21435   21434   21436   21438   21437   21439
   21441   21440   21442   21444   21443   21445   21447   21446   21448
   21450   21449   21451   21453   21452   21454   21456   21455   21457
   21459   21458   21460   21462   21461   21463   21465   21464   21466
   21468   21467   21469   21471   21470   21472   21474   21473   21475
   21477   21476   21478   21480   21479   21481   21483   21482   21484
   21486   21485   21487   21489   21488   21490   21492   21491   21493
   21495   21494   21496   21498   21497   21499   21501   21500   21502
   21504   21503   21505   21507   21506   21508   21510   21509   21511
   21513   21512   21514   21516   21515   21517   21519   21518   21520
   21522   21521   21523   21525   21524   21526   21528   21527   21529
   21531   21530   21532   21534   21533   21535   21537   21536   21538
   21540   21539   21541   21543   21542   21544   21546   21545   21547
   21549   21548   21550   21552   21551   21553   21555   21554   21556
   21558   21557   21559   21561   21560   21562   21564   21563   21565
   21567   21566   21568   21570   21569   21571   21573   21572   21574
   21576   21575   21577   21579   21578   21580   21582   21581   21583
   21585   21584   21586   21588   21587   21589   21591   21590   21592
   21594   21593   21595   21597   21596   21598   21600   21599   21601
   21603   21602   21604   21606   21605   21607   21609   21608   21610
   21612   21611   21613   21615   21614   21616   21618   21617   21619
   21621   21620   21622   21624   21623   21625   21627   21626   21628
   21630   21629   21631   21633   21632   21634   21636   21635   21637
   21639   21638   21640   21642   21641   21643   21645   21644   21646
   21648   21647   21649   21651   21650   21652   21654   21653   21655
   21657   21656   21658   21660   21659   21661   21663   21662   21664
   21666   21665   21667   21669   21668   21670   21672   21671   21673
   21675   21674   21676   21678   21677   21679   21681   21680   21682
   21684   21683   21685   21687   21686   21688   21690   21689   21691
   21693   21692   21694   21696   21695   21697   21699   21698   21700
   21702   21701   21703   21705   21704   21706   21708   21707   21709
   21711   21710   21712   21714   21713   21715   21717   21716   21718
   21720   21719   21721   21723   21722   21724   21726   21725   21727
   21729   21728   21730   21732   21731   21733   21735   21734   21736
   21738   21737   21739   21741   21740   21742   21744   21743   21745
   21747   21746   21748   21750   21749   21751   21753   21752   21754
   21756   21755   21757   21759   21758   21760   21762   21761   21763
   21765   21764   21766   21768   21767   21769   21771   21770   21772
   21774   21773   21775   21777   21776   21778   21780   21779   21781
   21783   21782   21784   21786   21785   21787   21789   21788   21790
   21792   21791   21793   21795   21794   21796   21798   21797   21799
   21801   21800   21802   21804   21803   21805   21807   21806   21808
   21810   21809   21811   21813   21812   21814   21816   21815   21817
   21819   21818   21820   21822   21821   21823   21825   21824   21826
   21828   21827   21829   21831   21830   21832   21834   21833   21835
   21837   21836   21838   21840   21839   21841   21843   21842   21844
   21846   21845   21847   21849   21848   21850   21852   21851   21853
   21855   21854   21856   21858   21857   21859   21861   21860   21862
   21864   21863   21865   21867   21866   21868   21870   21869   21871
   21873   21872   21874   21876   21875   21877   21879   21878   21880
   21882   21881   21883   21885   21884   21886   21888   21887   21889
   21891   21890   21892   21894   21893   21895   21897   21896   21898
   21900   21899   21901   21903   21902   21904   21906   21905   21907
   21909   21908   21910   21912   21911   21913   21915   21914   21916
   21918   21917   21919   21921   21920   21922   21924   21923   21925
   21927   21926   21928   21930   21929   21931   21933   21932   21934
   21936   21935   21937   21939   21938   21940   21942   21941   21943
   21945   21944   21946   21948   21947   21949   21951   21950   21952
   21954   21953   21955   21957   21956   21958   21960   21959   21961
   21963   21962   21964   21966   21965   21967   21969   21968   21970
   21972   21971   21973   21975   21974   21976   21978   21977   21979
   21981   21980   21982   21984   21983   21985   21987   21986   21988
   21990   21989   21991   21993   21992   21994   21996   21995   21997
   21999   21998   22000   22002   22001   22003   22005   22004   22006
   22008   22007   22009   22011   22010   22012   22014   22013   22015
   22017   22016   22018   22020   22019   22021   22023   22022   22024
   22026   22025   22027   22029   22028   22030   22032   22031   22033
   22035   22034   22036   22038   22037   22039   22041   22040   22042
   22044   22043   22045   22047   22046   22048   22050   22049   22051
   22053   22052   22054   22056   22055   22057   22059   22058   22060
   22062   22061   22063   22065   22064   22066   22068   22067   22069
   22071   22070   22072   22074   22073   22075   22077   22076   22078
   22080   22079   22081   22083   22082   22084   22086   22085   22087
   22089   22088   22090   22092   22091   22093   22095   22094   22096
   22098   22097   22099   22101   22100   22102   22104   22103   22105
   22107   22106   22108   22110   22109   22111   22113   22112   22114
   22116   22115   22117   22119   22118   22120   22122   22121   22123
   22125   22124   22126   22128   22127   22129   22131   22130   22132
   22134   22133   22135   22137   22136   22138   22140   22139   22141
   22143   22142   22144   22146   22145   22147   22149   22148   22150
   22152   22151   22153   22155   22154   22156   22158   22157   22159
   22161   22160   22162   22164   22163   22165   22167   22166   22168
   22170   22169   22171   22173   22172   22174   22176   22175   22177
   22179   22178   22180   22182   22181   22183   22185   22184   22186
   22188   22187   22189   22191   22190   22192   22194   22193   22195
   22197   22196   22198   22200   22199   22201   22203   22202   22204
   22206   22205   22207   22209   22208   22210   22212   22211   22213
   22215   22214   22216   22218   22217   22219   22221   22220   22222
   22224   22223   22225   22227   22226   22228   22230   22229   22231
   22233   22232   22234   22236   22235   22237   22239   22238   22240
   22242   22241   22243   22245   22244   22246   22248   22247   22249
   22251   22250   22252   22254   22253   22255   22257   22256   22258
   22260   22259   22261   22263   22262   22264   22266   22265   22267
   22269   22268   22270   22272   22271   22273   22275   22274   22276
   22278   22277   22279   22281   22280   22282   22284   22283   22285
   22287   22286   22288   22290   22289   22291   22293   22292   22294
   22296   22295   22297   22299   22298   22300   22302   22301   22303
   22305   22304   22306   22308   22307   22309   22311   22310   22312
   22314   22313   22315   22317   22316   22318   22320   22319   22321
   22323   22322   22324   22326   22325   22327   22329   22328   22330
   22332   22331   22333   22335   22334   22336   22338   22337   22339
   22341   22340   22342   22344   22343   22345   22347   22346   22348
   22350   22349   22351   22353   22352   22354   22356   22355   22357
   22359   22358   22360   22362   22361   22363   22365   22364   22366
   22368   22367   22369   22371   22370   22372   22374   22373   22375
   22377   22376   22378   22380   22379   22381   22383   22382   22384
   22386   22385   22387   22389   22388   22390   22392   22391   22393
   22395   22394   22396   22398   22397   22399   22401   22400   22402
   22404   22403   22405   22407   22406   22408   22410   22409   22411
   22413   22412   22414   22416   22415   22417   22419   22418   22420
   22422   22421   22423   22425   22424   22426   22428   22427   22429
   22431   22430   22432   22434   22433   22435   22437   22436   22438
   22440   22439   22441   22443   22442   22444   22446   22445   22447
   22449   22448   22450   22452   22451   22453   22455   22454   22456
   22458   22457   22459   22461   22460   22462   22464   22463   22465
   22467   22466   22468   22470   22469   22471   22473   22472   22474
   22476   22475   22477   22479   22478   22480   22482   22481   22483
   22485   22484   22486   22488   22487   22489   22491   22490   22492
   22494   22493   22495   22497   22496   22498   22500   22499   22501
   22503   22502   22504   22506   22505   22507   22509   22508   22510
   22512   22511   22513   22515   22514   22516   22518   22517   22519
   22521   22520   22522   22524   22523   22525   22527   22526   22528
   22530   22529   22531   22533   22532   22534   22536   22535   22537
   22539   22538   22540   22542   22541   22543   22545   22544   22546
   22548   22547   22549   22551   22550   22552   22554   22553   22555
   22557   22556   22558   22560   22559   22561   22563   22562   22564
   22566   22565   22567   22569   22568   22570   22572   22571   22573
   22575   22574   22576   22578   22577   22579   22581   22580   22582
   22584   22583   22585   22587   22586   22588   22590   22589   22591
   22593   22592   22594   22596   22595   22597   22599   22598   22600
   22602   22601   22603   22605   22604   22606   22608   22607   22609
   22611   22610   22612   22614   22613   22615   22617   22616   22618
   22620   22619   22621   22623   22622   22624   22626   22625   22627
   22629   22628   22630   22632   22631   22633   22635   22634   22636
   22638   22637   22639   22641   22640   22642   22644   22643   22645
   22647   22646   22648   22650   22649   22651   22653   22652   22654
   22656   22655   22657   22659   22658   22660   22662   22661   22663
   22665   22664   22666   22668   22667   22669   22671   22670   22672
   22674   22673   22675   22677   22676   22678   22680   22679   22681
   22683   22682   22684   22686   22685   22687   22689   22688   22690
   22692   22691   22693   22695   22694   22696   22698   22697   22699
   22701   22700   22702   22704   22703   22705   22707   22706   22708
   22710   22709   22711   22713   22712   22714   22716   22715   22717
   22719   22718   22720   22722   22721   22723   22725   22724   22726
   22728   22727   22729   22731   22730   22732   22734   22733   22735
   22737   22736   22738   22740   22739   22741   22743   22742   22744
   22746   22745   22747   22749   22748   22750   22752   22751   22753
   22755   22754   22756   22758   22757   22759   22761   22760   22762
   22764   22763   22765   22767   22766   22768   22770   22769   22771
   22773   22772   22774   22776   22775   22777   22779   22778   22780
   22782   22781   22783   22785   22784   22786   22788   22787   22789
   22791   22790   22792   22794   22793   22795   22797   22796   22798
   22800   22799   22801   22803   22802   22804   22806   22805   22807
   22809   22808   22810   22812   22811   22813   22815   22814   22816
   22818   22817   22819   22821   22820   22822   22824   22823   22825
   22827   22826   22828   22830   22829   22831   22833   22832   22834
   22836   22835   22837   22839   22838   22840   22842   22841   22843
   22845   22844   22846   22848   22847   22849   22851   22850   22852
   22854   22853   22855   22857   22856   22858   22860   22859   22861
   22863   22862   22864   22866   22865   22867   22869   22868   22870
   22872   22871   22873   22875   22874   22876   22878   22877   22879
   22881   22880   22882   22884   22883   22885   22887   22886   22888
   22890   22889   22891   22893   22892   22894   22896   22895   22897
   22899   22898   22900   22902   22901   22903   22905   22904   22906
   22908   22907   22909   22911   22910   22912   22914   22913   22915
   22917   22916   22918   22920   22919   22921   22923   22922   22924
   22926   22925   22927   22929   22928   22930   22932   22931   22933
   22935   22934   22936   22938   22937   22939   22941   22940   22942
   22944   22943   22945   22947   22946   22948   22950   22949   22951
   22953   22952   22954   22956   22955   22957   22959   22958   22960
   22962   22961   22963   22965   22964   22966   22968   22967   22969
   22971   22970   22972   22974   22973   22975   22977   22976   22978
   22980   22979   22981   22983   22982   22984   22986   22985   22987
   22989   22988   22990   22992   22991   22993   22995   22994   22996
   22998   22997   22999   23001   23000   23002   23004   23003   23005
   23007   23006   23008   23010   23009   23011   23013   23012   23014
   23016   23015   23017   23019   23018   23020   23022   23021   23023
   23025   23024   23026   23028   23027   23029   23031   23030   23032
   23034   23033   23035   23037   23036   23038   23040   23039   23041
   23043   23042   23044   23046   23045   23047   23049   23048   23050
   23052   23051   23053   23055   23054   23056   23058   23057   23059
   23061   23060   23062   23064   23063   23065   23067   23066   23068
   23070   23069   23071   23073   23072   23074   23076   23075   23077
   23079   23078   23080   23082   23081   23083   23085   23084   23086
   23088   23087   23089   23091   23090   23092   23094   23093   23095
   23097   23096   23098   23100   23099   23101   23103   23102   23104
   23106   23105   23107   23109   23108   23110   23112   23111   23113
   23115   23114   23116   23118   23117   23119   23121   23120   23122
   23124   23123   23125   23127   23126   23128   23130   23129   23131
   23133   23132   23134   23136   23135   23137   23139   23138   23140
   23142   23141   23143   23145   23144   23146   23148   23147   23149
   23151   23150   23152   23154   23153   23155   23157   23156   23158
   23160   23159   23161   23163   23162   23164   23166   23165   23167
   23169   23168   23170   23172   23171   23173   23175   23174   23176
   23178   23177   23179   23181   23180   23182   23184   23183   23185
   23187   23186   23188   23190   23189   23191   23193   23192   23194
   23196   23195   23197   23199   23198   23200   23202   23201   23203
   23205   23204   23206   23208   23207   23209   23211   23210   23212
   23214   23213   23215   23217   23216   23218   23220   23219   23221
   23223   23222   23224   23226   23225   23227   23229   23228   23230
   23232   23231   23233   23235   23234   23236   23238   23237   23239
   23241   23240   23242   23244   23243   23245   23247   23246   23248
   23250   23249   23251   23253   23252   23254   23256   23255   23257
   23259   23258   23260   23262   23261   23263   23265   23264   23266
   23268   23267   23269   23271   23270   23272   23274   23273   23275
   23277   23276   23278   23280   23279   23281   23283   23282   23284
   23286   23285   23287   23289   23288   23290   23292   23291   23293
   23295   23294   23296   23298   23297   23299   23301   23300   23302
   23304   23303   23305   23307   23306   23308   23310   23309   23311
   23313   23312   23314   23316   23315   23317   23319   23318   23320
   23322   23321   23323   23325   23324   23326   23328   23327   23329
   23331   23330   23332   23334   23333   23335   23337   23336   23338
   23340   23339   23341   23343   23342   23344   23346   23345   23347
   23349   23348   23350   23352   23351   23353   23355   23354   23356
   23358   23357   23359   23361   23360   23362   23364   23363   23365
   23367   23366   23368   23370   23369   23371   23373   23372   23374
   23376   23375   23377   23379   23378   23380   23382   23381   23383
   23385   23384   23386   23388   23387   23389   23391   23390   23392
   23394   23393   23395   23397   23396   23398   23400   23399   23401
   23403   23402   23404   23406   23405   23407   23409   23408   23410
   23412   23411   23413   23415   23414   23416   23418   23417   23419
   23421   23420   23422   23424   23423   23425   23427   23426   23428
   23430   23429   23431   23433   23432   23434   23436   23435   23437
   23439   23438   23440   23442   23441   23443   23445   23444   23446
   23448   23447   23449   23451   23450   23452   23454   23453   23455
   23457   23456   23458   23460   23459   23461   23463   23462   23464
   23466   23465   23467   23469   23468   23470   23472   23471   23473
   23475   23474   23476   23478   23477   23479   23481   23480   23482
   23484   23483   23485   23487   23486   23488   23490   23489   23491
   23493   23492   23494   23496   23495   23497   23499   23498   23500
   23502   23501   23503   23505   23504   23506   23508   23507   23509
   23511   23510   23512   23514   23513   23515   23517   23516   23518
   23520   23519   23521   23523   23522   23524   23526   23525   23527
   23529   23528   23530   23532   23531   23533   23535   23534   23536
   23538   23537   23539   23541   23540   23542   23544   23543   23545
   23547   23546   23548   23550   23549   23551   23553   23552   23554
   23556   23555   23557   23559   23558   23560   23562   23561   23563
   23565   23564   23566   23568   23567   23569   23571   23570   23572
   23574   23573   23575   23577   23576   23578   23580   23579   23581
   23583   23582   23584   23586   23585   23587   23589   23588   23590
   23592   23591   23593   23595   23594   23596   23598   23597   23599
   23601   23600   23602   23604   23603   23605   23607   23606   23608
   23610   23609   23611   23613   23612   23614   23616   23615   23617
   23619   23618   23620   23622   23621   23623   23625   23624   23626
   23628   23627   23629   23631   23630   23632   23634   23633   23635
   23637   23636   23638   23640   23639   23641   23643   23642   23644
   23646   23645   23647   23649   23648   23650   23652   23651   23653
   23655   23654   23656   23658   23657   23659   23661   23660   23662
   23664   23663   23665   23667   23666   23668   23670   23669   23671
   23673   23672   23674   23676   23675   23677   23679   23678   23680
   23682   23681   23683   23685   23684   23686   23688   23687   23689
   23691   23690   23692   23694   23693   23695   23697   23696   23698
   23700   23699   23701   23703   23702   23704   23706   23705   23707
   23709   23708   23710   23712   23711   23713   23715   23714   23716
   23718   23717   23719   23721   23720   23722   23724   23723   23725
   23727   23726   23728   23730   23729   23731   23733   23732   23734
   23736   23735   23737   23739   23738   23740   23742   23741   23743
   23745   23744   23746   23748   23747   23749   23751   23750   23752
   23754   23753   23755   23757   23756   23758   23760   23759   23761
   23763   23762   23764   23766   23765   23767   23769   23768   23770
   23772   23771   23773   23775   23774   23776   23778   23777   23779
   23781   23780   23782   23784   23783   23785   23787   23786   23788
   23790   23789   23791   23793   23792   23794   23796   23795   23797
   23799   23798   23800   23802   23801   23803   23805   23804   23806
   23808   23807   23809   23811   23810   23812   23814   23813   23815
   23817   23816   23818   23820   23819   23821   23823   23822   23824
   23826   23825   23827   23829   23828   23830   23832   23831   23833
   23835   23834   23836   23838   23837   23839   23841   23840   23842
   23844   23843   23845   23847   23846   23848   23850   23849   23851
   23853   23852   23854   23856   23855   23857   23859   23858   23860
   23862   23861   23863   23865   23864   23866   23868   23867   23869
   23871   23870   23872   23874   23873   23875   23877   23876   23878
   23880   23879   23881   23883   23882   23884   23886   23885   23887
   23889   23888   23890   23892   23891   23893   23895   23894   23896
   23898   23897   23899   23901   23900   23902   23904   23903   23905
   23907   23906   23908   23910   23909   23911   23913   23912   23914
   23916   23915   23917   23919   23918   23920   23922   23921   23923
   23925   23924   23926   23928   23927   23929   23931   23930   23932
   23934   23933   23935   23937   23936   23938   23940   23939   23941
   23943   23942   23944   23946   23945   23947   23949   23948   23950
   23952   23951   23953   23955   23954   23956   23958   23957   23959
   23961   23960   23962   23964   23963   23965   23967   23966   23968
   23970   23969   23971   23973   23972   23974   23976   23975   23977
   23979   23978   23980   23982   23981   23983   23985   23984   23986
   23988   23987   23989   23991   23990   23992   23994   23993   23995
   23997   23996   23998   24000   23999   24001   24003   24002   24004
   24006   24005   24007   24009   24008   24010   24012   24011   24013
   24015   24014   24016   24018   24017   24019   24021   24020   24022
   24024   24023   24025   24027   24026   24028   24030   24029   24031
   24033   24032   24034   24036   24035   24037   24039   24038   24040
   24042   24041   24043   24045   24044   24046   24048   24047   24049
   24051   24050   24052   24054   24053   24055   24057   24056   24058
   24060   24059   24061   24063   24062   24064   24066   24065   24067
   24069   24068   24070   24072   24071   24073   24075   24074   24076
   24078   24077   24079   24081   24080   24082   24084   24083   24085
   24087   24086   24088   24090   24089   24091   24093   24092   24094
   24096   24095   24097   24099   24098   24100   24102   24101   24103
   24105   24104   24106   24108   24107   24109   24111   24110   24112
   24114   24113   24115   24117   24116   24118   24120   24119   24121
   24123   24122   24124   24126   24125   24127   24129   24128   24130
   24132   24131   24133   24135   24134   24136   24138   24137   24139
   24141   24140   24142   24144   24143   24145   24147   24146   24148
   24150   24149   24151   24153   24152   24154   24156   24155   24157
   24159   24158   24160   24162   24161   24163   24165   24164   24166
   24168   24167   24169   24171   24170   24172   24174   24173   24175
   24177   24176   24178   24180   24179   24181   24183   24182   24184
   24186   24185   24187   24189   24188   24190   24192   24191   24193
   24195   24194   24196   24198   24197   24199   24201   24200   24202
   24204   24203   24205   24207   24206   24208   24210   24209   24211
   24213   24212   24214   24216   24215   24217   24219   24218   24220
   24222   24221   24223   24225   24224   24226   24228   24227   24229
   24231   24230   24232   24234   24233   24235   24237   24236   24238
   24240   24239   24241   24243   24242   24244   24246   24245   24247
   24249   24248   24250   24252   24251   24253   24255   24254   24256
   24258   24257   24259   24261   24260   24262   24264   24263   24265
   24267   24266   24268   24270   24269   24271   24273   24272   24274
   24276   24275   24277   24279   24278   24280   24282   24281   24283
   24285   24284   24286   24288   24287   24289   24291   24290   24292
   24294   24293   24295   24297   24296   24298   24300   24299   24301
   24303   24302   24304   24306   24305   24307   24309   24308   24310
   24312   24311   24313   24315   24314   24316   24318   24317   24319
   24321   24320   24322   24324   24323   24325   24327   24326   24328
   24330   24329   24331   24333   24332   24334   24336   24335   24337
   24339   24338   24340   24342   24341   24343   24345   24344   24346
   24348   24347   24349   24351   24350   24352   24354   24353   24355
   24357   24356   24358   24360   24359   24361   24363   24362   24364
   24366   24365   24367   24369   24368   24370   24372   24371   24373
   24375   24374   24376   24378   24377   24379   24381   24380   24382
   24384   24383   24385   24387   24386   24388   24390   24389   24391
   24393   24392   24394   24396   24395   24397   24399   24398   24400
   24402   24401   24403   24405   24404   24406   24408   24407   24409
   24411   24410   24412   24414   24413   24415   24417   24416   24418
   24420   24419   24421   24423   24422   24424   24426   24425   24427
   24429   24428   24430   24432   24431   24433   24435   24434   24436
   24438   24437   24439   24441   24440   24442   24444   24443   24445
   24447   24446   24448   24450   24449   24451   24453   24452   24454
   24456   24455   24457   24459   24458   24460   24462   24461   24463
   24465   24464   24466   24468   24467   24469   24471   24470   24472
   24474   24473   24475   24477   24476   24478   24480   24479   24481
   24483   24482   24484   24486   24485   24487   24489   24488   24490
   24492   24491   24493   24495   24494   24496   24498   24497   24499
   24501   24500   24502   24504   24503   24505   24507   24506   24508
   24510   24509   24511   24513   24512   24514   24516   24515   24517
   24519   24518   24520   24522   24521   24523   24525   24524   24526
   24528   24527   24529   24531   24530   24532   24534   24533   24535
   24537   24536   24538   24540   24539   24541   24543   24542   24544
   24546   24545   24547   24549   24548   24550   24552   24551   24553
   24555   24554   24556   24558   24557   24559   24561   24560   24562
   24564   24563   24565   24567   24566   24568   24570   24569   24571
   24573   24572   24574   24576   24575   24577   24579   24578   24580
   24582   24581   24583   24585   24584   24586   24588   24587   24589
   24591   24590   24592   24594   24593   24595   24597   24596   24598
   24600   24599   24601   24603   24602   24604   24606   24605   24607
   24609   24608   24610   24612   24611   24613   24615   24614   24616
   24618   24617   24619   24621   24620   24622   24624   24623   24625
   24627   24626   24628   24630   24629   24631   24633   24632   24634
   24636   24635   24637   24639   24638   24640   24642   24641   24643
   24645   24644   24646   24648   24647   24649   24651   24650   24652
   24654   24653   24655   24657   24656   24658   24660   24659   24661
   24663   24662   24664   24666   24665   24667   24669   24668   24670
   24672   24671   24673   24675   24674   24676   24678   24677   24679
   24681   24680   24682   24684   24683   24685   24687   24686   24688
   24690   24689   24691   24693   24692   24694   24696   24695   24697
   24699   24698   24700   24702   24701   24703   24705   24704   24706
   24708   24707   24709   24711   24710   24712   24714   24713   24715
   24717   24716   24718   24720   24719   24721   24723   24722   24724
   24726   24725   24727   24729   24728   24730   24732   24731   24733
   24735   24734   24736   24738   24737   24739   24741   24740   24742
   24744   24743   24745   24747   24746   24748   24750   24749   24751
   24753   24752   24754   24756   24755   24757   24759   24758   24760
   24762   24761   24763   24765   24764   24766   24768   24767   24769
   24771   24770   24772   24774   24773   24775   24777   24776   24778
   24780   24779   24781   24783   24782   24784   24786   24785   24787
   24789   24788   24790   24792   24791   24793   24795   24794   24796
   24798   24797   24799   24801   24800   24802   24804   24803   24805
   24807   24806   24808   24810   24809   24811   24813   24812   24814
   24816   24815   24817   24819   24818   24820   24822   24821   24823
   24825   24824   24826   24828   24827   24829   24831   24830   24832
   24834   24833   24835   24837   24836   24838   24840   24839   24841
   24843   24842   24844   24846   24845   24847   24849   24848   24850
   24852   24851   24853   24855   24854   24856   24858   24857   24859
   24861   24860   24862   24864   24863   24865   24867   24866   24868
   24870   24869   24871   24873   24872   24874   24876   24875   24877
   24879   24878   24880   24882   24881   24883   24885   24884   24886
   24888   24887   24889   24891   24890   24892   24894   24893   24895
   24897   24896   24898   24900   24899   24901   24903   24902   24904
   24906   24905   24907   24909   24908   24910   24912   24911   24913
   24915   24914   24916   24918   24917   24919   24921   24920   24922
   24924   24923   24925   24927   24926   24928   24930   24929   24931
   24933   24932   24934   24936   24935   24937   24939   24938   24940
   24942   24941   24943   24945   24944   24946   24948   24947   24949
   24951   24950   24952   24954   24953   24955   24957   24956   24958
   24960   24959   24961   24963   24962   24964   24966   24965   24967
   24969   24968   24970   24972   24971   24973   24975   24974   24976
   24978   24977   24979   24981   24980   24982   24984   24983   24985
   24987   24986   24988   24990   24989   24991   24993   24992   24994
   24996   24995   24997   24999   24998   25000   25002   25001   25003
   25005   25004   25006   25008   25007   25009   25011   25010   25012
   25014   25013   25015   25017   25016   25018   25020   25019   25021
   25023   25022   25024   25026   25025   25027   25029   25028   25030
   25032   25031   25033   25035   25034   25036   25038   25037   25039
   25041   25040   25042   25044   25043   25045   25047   25046   25048
   25050   25049   25051   25053   25052   25054   25056   25055   25057
   25059   25058   25060   25062   25061   25063   25065   25064   25066
   25068   25067   25069   25071   25070   25072   25074   25073   25075
   25077   25076   25078   25080   25079   25081   25083   25082   25084
   25086   25085   25087   25089   25088   25090   25092   25091   25093
   25095   25094   25096   25098   25097   25099   25101   25100   25102
   25104   25103   25105   25107   25106   25108   25110   25109   25111
   25113   25112   25114   25116   25115   25117   25119   25118   25120
   25122   25121   25123   25125   25124   25126   25128   25127   25129
   25131   25130   25132   25134   25133   25135   25137   25136   25138
   25140   25139   25141   25143   25142   25144   25146   25145   25147
   25149   25148   25150   25152   25151   25153   25155   25154   25156
   25158   25157   25159   25161   25160   25162   25164   25163   25165
   25167   25166   25168   25170   25169   25171   25173   25172   25174
   25176   25175   25177   25179   25178   25180   25182   25181   25183
   25185   25184   25186   25188   25187   25189   25191   25190   25192
   25194   25193   25195   25197   25196   25198   25200   25199   25201
   25203   25202   25204   25206   25205   25207   25209   25208   25210
   25212   25211   25213   25215   25214   25216   25218   25217   25219
   25221   25220   25222   25224   25223   25225   25227   25226   25228
   25230   25229   25231   25233   25232   25234   25236   25235   25237
   25239   25238   25240   25242   25241   25243   25245   25244   25246
   25248   25247   25249   25251   25250   25252   25254   25253   25255
   25257   25256   25258   25260   25259   25261   25263   25262   25264
   25266   25265   25267   25269   25268   25270   25272   25271   25273
   25275   25274   25276   25278   25277   25279   25281   25280   25282
   25284   25283   25285   25287   25286   25288   25290   25289   25291
   25293   25292   25294   25296   25295   25297   25299   25298   25300
   25302   25301   25303   25305   25304   25306   25308   25307   25309
   25311   25310   25312   25314   25313   25315   25317   25316   25318
   25320   25319   25321   25323   25322   25324   25326   25325   25327
   25329   25328   25330   25332   25331   25333   25335   25334   25336
   25338   25337   25339   25341   25340   25342   25344   25343   25345
   25347   25346   25348   25350   25349   25351   25353   25352   25354
   25356   25355   25357   25359   25358   25360   25362   25361   25363
   25365   25364   25366   25368   25367   25369   25371   25370   25372
   25374   25373   25375   25377   25376   25378   25380   25379   25381
   25383   25382   25384   25386   25385   25387   25389   25388   25390
   25392   25391   25393   25395   25394   25396   25398   25397   25399
   25401   25400   25402   25404   25403   25405   25407   25406   25408
   25410   25409   25411   25413   25412   25414   25416   25415   25417
   25419   25418   25420   25422   25421   25423   25425   25424   25426
   25428   25427   25429   25431   25430   25432   25434   25433   25435
   25437   25436   25438   25440   25439   25441   25443   25442   25444
   25446   25445   25447   25449   25448   25450   25452   25451   25453
   25455   25454   25456   25458   25457   25459   25461   25460   25462
   25464   25463   25465   25467   25466   25468   25470   25469   25471
   25473   25472   25474   25476   25475   25477   25479   25478   25480
   25482   25481   25483   25485   25484   25486   25488   25487   25489
   25491   25490   25492   25494   25493   25495   25497   25496   25498
   25500   25499   25501   25503   25502   25504   25506   25505   25507
   25509   25508   25510   25512   25511   25513   25515   25514   25516
   25518   25517   25519   25521   25520   25522   25524   25523   25525
   25527   25526   25528   25530   25529   25531   25533   25532   25534
   25536   25535   25537   25539   25538   25540   25542   25541   25543
   25545   25544   25546   25548   25547   25549   25551   25550   25552
   25554   25553   25555   25557   25556   25558   25560   25559   25561
   25563   25562   25564   25566   25565   25567   25569   25568   25570
   25572   25571   25573   25575   25574   25576   25578   25577   25579
   25581   25580   25582   25584   25583   25585   25587   25586   25588
   25590   25589   25591   25593   25592   25594   25596   25595   25597
   25599   25598   25600   25602   25601   25603   25605   25604   25606
   25608   25607   25609   25611   25610   25612   25614   25613   25615
   25617   25616   25618   25620   25619   25621   25623   25622   25624
   25626   25625   25627   25629   25628   25630   25632   25631   25633
   25635   25634   25636   25638   25637   25639   25641   25640   25642
   25644   25643   25645   25647   25646   25648   25650   25649   25651
   25653   25652   25654   25656   25655   25657   25659   25658   25660
   25662   25661   25663   25665   25664   25666   25668   25667   25669
   25671   25670   25672   25674   25673   25675   25677   25676   25678
   25680   25679   25681   25683   25682   25684   25686   25685   25687
   25689   25688   25690   25692   25691   25693   25695   25694   25696
   25698   25697   25699   25701   25700   25702   25704   25703   25705
   25707   25706   25708   25710   25709   25711   25713   25712   25714
   25716   25715   25717   25719   25718   25720   25722   25721   25723
   25725   25724   25726   25728   25727   25729   25731   25730   25732
   25734   25733   25735   25737   25736   25738   25740   25739   25741
   25743   25742   25744   25746   25745   25747   25749   25748   25750
   25752   25751   25753   25755   25754   25756   25758   25757   25759
   25761   25760   25762   25764   25763   25765   25767   25766   25768
   25770   25769   25771   25773   25772   25774   25776   25775   25777
   25779   25778   25780   25782   25781   25783   25785   25784   25786
   25788   25787   25789   25791   25790   25792   25794   25793   25795
   25797   25796   25798   25800   25799   25801   25803   25802   25804
   25806   25805   25807   25809   25808   25810   25812   25811   25813
   25815   25814   25816   25818   25817   25819   25821   25820   25822
   25824   25823   25825   25827   25826   25828   25830   25829   25831
   25833   25832   25834   25836   25835   25837   25839   25838   25840
   25842   25841   25843   25845   25844   25846   25848   25847   25849
   25851   25850   25852   25854   25853   25855   25857   25856   25858
   25860   25859   25861   25863   25862   25864   25866   25865   25867
   25869   25868   25870   25872   25871   25873   25875   25874   25876
   25878   25877   25879   25881   25880   25882   25884   25883   25885
   25887   25886   25888   25890   25889   25891   25893   25892   25894
   25896   25895   25897   25899   25898   25900   25902   25901   25903
   25905   25904   25906   25908   25907   25909   25911   25910   25912
   25914   25913   25915   25917   25916   25918   25920   25919   25921
   25923   25922   25924   25926   25925   25927   25929   25928   25930
   25932   25931   25933   25935   25934   25936   25938   25937   25939
   25941   25940   25942   25944   25943   25945   25947   25946   25948
   25950   25949   25951   25953   25952   25954   25956   25955   25957
   25959   25958   25960   25962   25961   25963   25965   25964   25966
   25968   25967   25969   25971   25970   25972   25974   25973   25975
   25977   25976   25978   25980   25979   25981   25983   25982   25984
   25986   25985   25987   25989   25988   25990   25992   25991   25993
   25995   25994   25996   25998   25997   25999   26001   26000   26002
   26004   26003   26005   26007   26006   26008   26010   26009   26011
   26013   26012   26014   26016   26015   26017   26019   26018   26020
   26022   26021   26023   26025   26024   26026   26028   26027   26029
   26031   26030   26032   26034   26033   26035   26037   26036   26038
   26040   26039   26041   26043   26042   26044   26046   26045   26047
   26049   26048   26050   26052   26051   26053   26055   26054   26056
   26058   26057   26059   26061   26060   26062   26064   26063   26065
   26067   26066   26068   26070   26069   26071   26073   26072   26074
   26076   26075   26077   26079   26078   26080   26082   26081   26083
   26085   26084   26086   26088   26087   26089   26091   26090   26092
   26094   26093   26095   26097   26096   26098   26100   26099   26101
   26103   26102   26104   26106   26105   26107   26109   26108   26110
   26112   26111   26113   26115   26114   26116   26118   26117   26119
   26121   26120   26122   26124   26123   26125   26127   26126   26128
   26130   26129   26131   26133   26132   26134   26136   26135   26137
   26139   26138   26140   26142   26141   26143   26145   26144   26146
   26148   26147   26149   26151   26150   26152   26154   26153   26155
   26157   26156   26158   26160   26159   26161   26163   26162   26164
   26166   26165   26167   26169   26168   26170   26172   26171   26173
   26175   26174   26176   26178   26177   26179   26181   26180   26182
   26184   26183   26185   26187   26186   26188   26190   26189   26191
   26193   26192   26194   26196   26195   26197   26199   26198   26200
   26202   26201   26203   26205   26204   26206   26208   26207   26209
   26211   26210   26212   26214   26213   26215   26217   26216   26218
   26220   26219   26221   26223   26222   26224   26226   26225   26227
   26229   26228   26230   26232   26231   26233   26235   26234   26236
   26238   26237   26239   26241   26240   26242   26244   26243   26245
   26247   26246   26248   26250   26249   26251   26253   26252   26254
   26256   26255   26257   26259   26258   26260   26262   26261   26263
   26265   26264   26266   26268   26267   26269   26271   26270   26272
   26274   26273   26275   26277   26276   26278   26280   26279   26281
   26283   26282   26284   26286   26285   26287   26289   26288   26290
   26292   26291   26293   26295   26294   26296   26298   26297   26299
   26301   26300   26302   26304   26303   26305   26307   26306   26308
   26310   26309   26311   26313   26312   26314   26316   26315   26317
   26319   26318   26320   26322   26321   26323   26325   26324   26326
   26328   26327   26329   26331   26330   26332   26334   26333   26335
   26337   26336   26338   26340   26339   26341   26343   26342   26344
   26346   26345   26347   26349   26348   26350   26352   26351   26353
   26355   26354   26356   26358   26357   26359   26361   26360   26362
   26364   26363   26365   26367   26366   26368   26370   26369   26371
   26373   26372   26374   26376   26375   26377   26379   26378   26380
   26382   26381   26383   26385   26384   26386   26388   26387   26389
   26391   26390   26392   26394   26393   26395   26397   26396   26398
   26400   26399   26401   26403   26402   26404   26406   26405   26407
   26409   26408   26410   26412   26411   26413   26415   26414   26416
   26418   26417   26419   26421   26420   26422   26424   26423   26425
   26427   26426   26428   26430   26429   26431   26433   26432   26434
   26436   26435   26437   26439   26438   26440   26442   26441   26443
   26445   26444   26446   26448   26447   26449   26451   26450   26452
   26454   26453   26455   26457   26456   26458   26460   26459   26461
   26463   26462   26464   26466   26465   26467   26469   26468   26470
   26472   26471   26473   26475   26474   26476   26478   26477   26479
   26481   26480   26482   26484   26483   26485   26487   26486   26488
   26490   26489   26491   26493   26492   26494   26496   26495   26497
   26499   26498   26500   26502   26501   26503   26505   26504   26506
   26508   26507   26509   26511   26510   26512   26514   26513   26515
   26517   26516   26518   26520   26519   26521   26523   26522   26524
   26526   26525   26527   26529   26528   26530   26532   26531   26533
   26535   26534   26536   26538   26537   26539   26541   26540   26542
   26544   26543   26545   26547   26546   26548   26550   26549   26551
   26553   26552   26554   26556   26555   26557   26559   26558   26560
   26562   26561   26563   26565   26564   26566   26568   26567   26569
   26571   26570   26572   26574   26573   26575   26577   26576   26578
   26580   26579   26581   26583   26582   26584   26586   26585   26587
   26589   26588   26590   26592   26591   26593   26595   26594   26596
   26598   26597   26599   26601   26600   26602   26604   26603   26605
   26607   26606   26608   26610   26609   26611   26613   26612   26614
   26616   26615   26617   26619   26618   26620   26622   26621   26623
   26625   26624   26626   26628   26627   26629   26631   26630   26632
   26634   26633   26635   26637   26636   26638   26640   26639   26641
   26643   26642   26644   26646   26645   26647   26649   26648   26650
   26652   26651   26653   26655   26654   26656   26658   26657   26659
   26661   26660   26662   26664   26663   26665   26667   26666   26668
   26670   26669   26671   26673   26672   26674   26676   26675   26677
   26679   26678   26680   26682   26681   26683   26685   26684   26686
   26688   26687   26689   26691   26690   26692   26694   26693   26695
   26697   26696   26698   26700   26699   26701   26703   26702   26704
   26706   26705   26707   26709   26708   26710   26712   26711   26713
   26715   26714   26716   26718   26717   26719   26721   26720   26722
   26724   26723   26725   26727   26726   26728   26730   26729   26731
   26733   26732   26734   26736   26735   26737   26739   26738   26740
   26742   26741   26743   26745   26744   26746   26748   26747   26749
   26751   26750   26752   26754   26753   26755   26757   26756   26758
   26760   26759   26761   26763   26762   26764   26766   26765   26767
   26769   26768   26770   26772   26771   26773   26775   26774   26776
   26778   26777   26779   26781   26780   26782   26784   26783   26785
   26787   26786   26788   26790   26789   26791   26793   26792   26794
   26796   26795   26797   26799   26798   26800   26802   26801   26803
   26805   26804   26806   26808   26807   26809   26811   26810   26812
   26814   26813   26815   26817   26816   26818   26820   26819   26821
   26823   26822   26824   26826   26825   26827   26829   26828   26830
   26832   26831   26833   26835   26834   26836   26838   26837   26839
   26841   26840   26842   26844   26843   26845   26847   26846   26848
   26850   26849   26851   26853   26852   26854   26856   26855   26857
   26859   26858   26860   26862   26861   26863   26865   26864   26866
   26868   26867   26869   26871   26870   26872   26874   26873   26875
   26877   26876   26878   26880   26879   26881   26883   26882   26884
   26886   26885   26887   26889   26888   26890   26892   26891   26893
   26895   26894   26896   26898   26897   26899   26901   26900   26902
   26904   26903   26905   26907   26906   26908   26910   26909   26911
   26913   26912   26914   26916   26915   26917   26919   26918   26920
   26922   26921   26923   26925   26924   26926   26928   26927   26929
   26931   26930   26932   26934   26933   26935   26937   26936   26938
   26940   26939   26941   26943   26942   26944   26946   26945   26947
   26949   26948   26950   26952   26951   26953   26955   26954   26956
   26958   26957   26959   26961   26960   26962   26964   26963   26965
   26967   26966   26968   26970   26969   26971   26973   26972   26974
   26976   26975   26977   26979   26978   26980   26982   26981   26983
   26985   26984   26986   26988   26987   26989   26991   26990   26992
   26994   26993   26995   26997   26996   26998   27000   26999   27001
   27003   27002   27004   27006   27005   27007   27009   27008   27010
   27012   27011   27013   27015   27014   27016   27018   27017   27019
   27021   27020   27022   27024   27023   27025   27027   27026   27028
   27030   27029   27031   27033   27032   27034   27036   27035   27037
   27039   27038   27040   27042   27041   27043   27045   27044   27046
   27048   27047   27049   27051   27050   27052   27054   27053   27055
   27057   27056   27058   27060   27059   27061   27063   27062   27064
   27066   27065   27067   27069   27068   27070   27072   27071   27073
   27075   27074   27076   27078   27077   27079   27081   27080   27082
   27084   27083   27085   27087   27086   27088   27090   27089   27091
   27093   27092   27094   27096   27095   27097   27099   27098   27100
   27102   27101   27103   27105   27104   27106   27108   27107   27109
   27111   27110   27112   27114   27113   27115   27117   27116   27118
   27120   27119   27121   27123   27122   27124   27126   27125   27127
   27129   27128   27130   27132   27131   27133   27135   27134   27136
   27138   27137   27139   27141   27140   27142   27144   27143   27145
   27147   27146   27148   27150   27149   27151   27153   27152   27154
   27156   27155   27157   27159   27158   27160   27162   27161   27163
   27165   27164   27166   27168   27167   27169   27171   27170   27172
   27174   27173   27175   27177   27176   27178   27180   27179   27181
   27183   27182   27184   27186   27185   27187   27189   27188   27190
   27192   27191   27193   27195   27194   27196   27198   27197   27199
   27201   27200   27202   27204   27203   27205   27207   27206   27208
   27210   27209   27211   27213   27212   27214   27216   27215   27217
   27219   27218   27220   27222   27221   27223   27225   27224   27226
   27228   27227   27229   27231   27230   27232   27234   27233   27235
   27237   27236   27238   27240   27239   27241   27243   27242   27244
   27246   27245   27247   27249   27248   27250   27252   27251   27253
   27255   27254   27256   27258   27257   27259   27261   27260   27262
   27264   27263   27265   27267   27266   27268   27270   27269   27271
   27273   27272   27274   27276   27275   27277   27279   27278   27280
   27282   27281   27283   27285   27284   27286   27288   27287   27289
   27291   27290   27292   27294   27293   27295   27297   27296   27298
   27300   27299   27301   27303   27302   27304   27306   27305   27307
   27309   27308   27310   27312   27311   27313   27315   27314   27316
   27318   27317   27319   27321   27320   27322   27324   27323   27325
   27327   27326   27328   27330   27329   27331   27333   27332   27334
   27336   27335   27337   27339   27338   27340   27342   27341   27343
   27345   27344   27346   27348   27347   27349   27351   27350   27352
   27354   27353   27355   27357   27356   27358   27360   27359   27361
   27363   27362   27364   27366   27365   27367   27369   27368   27370
   27372   27371   27373   27375   27374   27376   27378   27377   27379
   27381   27380   27382   27384   27383   27385   27387   27386   27388
   27390   27389   27391   27393   27392   27394   27396   27395   27397
   27399   27398   27400   27402   27401   27403   27405   27404   27406
   27408   27407   27409   27411   27410   27412   27414   27413   27415
   27417   27416   27418   27420   27419   27421   27423   27422   27424
   27426   27425   27427   27429   27428   27430   27432   27431   27433
   27435   27434   27436   27438   27437   27439   27441   27440   27442
   27444   27443   27445   27447   27446   27448   27450   27449   27451
   27453   27452   27454   27456   27455   27457   27459   27458   27460
   27462   27461   27463   27465   27464   27466   27468   27467   27469
   27471   27470   27472   27474   27473   27475   27477   27476   27478
   27480   27479   27481   27483   27482   27484   27486   27485   27487
   27489   27488   27490   27492   27491   27493   27495   27494   27496
   27498   27497   27499   27501   27500   27502   27504   27503   27505
   27507   27506   27508   27510   27509   27511   27513   27512   27514
   27516   27515   27517   27519   27518   27520   27522   27521   27523
   27525   27524   27526   27528   27527   27529   27531   27530   27532
   27534   27533   27535   27537   27536   27538   27540   27539   27541
   27543   27542   27544   27546   27545   27547   27549   27548   27550
   27552   27551   27553   27555   27554   27556   27558   27557   27559
   27561   27560   27562   27564   27563   27565   27567   27566   27568
   27570   27569   27571   27573   27572   27574   27576   27575   27577
   27579   27578   27580   27582   27581   27583   27585   27584   27586
   27588   27587   27589   27591   27590   27592   27594   27593   27595
   27597   27596   27598   27600   27599   27601   27603   27602   27604
   27606   27605   27607   27609   27608   27610   27612   27611   27613
   27615   27614   27616   27618   27617   27619   27621   27620   27622
   27624   27623   27625   27627   27626   27628   27630   27629   27631
   27633   27632   27634   27636   27635   27637   27639   27638   27640
   27642   27641   27643   27645   27644   27646   27648   27647   27649
   27651   27650   27652   27654   27653   27655   27657   27656   27658
   27660   27659   27661   27663   27662   27664   27666   27665   27667
   27669   27668   27670   27672   27671   27673   27675   27674   27676
   27678   27677   27679   27681   27680   27682   27684   27683   27685
   27687   27686   27688   27690   27689   27691   27693   27692   27694
   27696   27695   27697   27699   27698   27700   27702   27701   27703
   27705   27704   27706   27708   27707   27709   27711   27710   27712
   27714   27713   27715   27717   27716   27718   27720   27719   27721
   27723   27722   27724   27726   27725   27727   27729   27728   27730
   27732   27731   27733   27735   27734   27736   27738   27737   27739
   27741   27740   27742   27744   27743   27745   27747   27746   27748
   27750   27749   27751   27753   27752   27754   27756   27755   27757
   27759   27758   27760   27762   27761   27763   27765   27764   27766
   27768   27767   27769   27771   27770   27772   27774   27773   27775
   27777   27776   27778   27780   27779   27781   27783   27782   27784
   27786   27785   27787   27789   27788   27790   27792   27791   27793
   27795   27794   27796   27798   27797   27799   27801   27800   27802
   27804   27803   27805   27807   27806   27808   27810   27809   27811
   27813   27812   27814   27816   27815   27817   27819   27818   27820
   27822   27821   27823   27825   27824   27826   27828   27827   27829
   27831   27830   27832   27834   27833   27835   27837   27836   27838
   27840   27839   27841   27843   27842   27844   27846   27845   27847
   27849   27848   27850   27852   27851   27853   27855   27854   27856
   27858   27857   27859   27861   27860   27862   27864   27863   27865
   27867   27866   27868   27870   27869   27871   27873   27872   27874
   27876   27875   27877   27879   27878   27880   27882   27881   27883
   27885   27884   27886   27888   27887   27889   27891   27890   27892
   27894   27893   27895   27897   27896   27898   27900   27899   27901
   27903   27902   27904   27906   27905   27907   27909   27908   27910
   27912   27911   27913   27915   27914   27916   27918   27917   27919
   27921   27920   27922   27924   27923   27925   27927   27926   27928
   27930   27929   27931   27933   27932   27934   27936   27935   27937
   27939   27938   27940   27942   27941   27943   27945   27944   27946
   27948   27947   27949   27951   27950   27952   27954   27953   27955
   27957   27956   27958   27960   27959   27961   27963   27962   27964
   27966   27965   27967   27969   27968   27970   27972   27971   27973
   27975   27974   27976   27978   27977   27979   27981   27980   27982
   27984   27983   27985   27987   27986   27988   27990   27989   27991
   27993   27992   27994   27996   27995   27997   27999   27998   28000
   28002   28001   28003   28005   28004   28006   28008   28007   28009
   28011   28010   28012   28014   28013   28015   28017   28016   28018
   28020   28019   28021   28023   28022   28024   28026   28025   28027
   28029   28028   28030   28032   28031   28033   28035   28034   28036
   28038   28037   28039   28041   28040   28042   28044   28043   28045
   28047   28046   28048   28050   28049   28051   28053   28052   28054
   28056   28055   28057   28059   28058   28060   28062   28061   28063
   28065   28064   28066   28068   28067   28069   28071   28070   28072
   28074   28073   28075   28077   28076   28078   28080   28079   28081
   28083   28082   28084   28086   28085   28087   28089   28088   28090
   28092   28091   28093   28095   28094   28096   28098   28097   28099
   28101   28100   28102   28104   28103   28105   28107   28106   28108
   28110   28109   28111   28113   28112   28114   28116   28115   28117
   28119   28118   28120   28122   28121   28123   28125   28124   28126
   28128   28127   28129   28131   28130   28132   28134   28133   28135
   28137   28136   28138   28140   28139   28141   28143   28142   28144
   28146   28145   28147   28149   28148   28150   28152   28151   28153
   28155   28154   28156   28158   28157   28159   28161   28160   28162
   28164   28163   28165   28167   28166   28168   28170   28169   28171
   28173   28172   28174   28176   28175   28177   28179   28178   28180
   28182   28181   28183   28185   28184   28186   28188   28187   28189
   28191   28190   28192   28194   28193   28195   28197   28196   28198
   28200   28199   28201   28203   28202   28204   28206   28205   28207
   28209   28208   28210   28212   28211   28213   28215   28214   28216
   28218   28217   28219   28221   28220   28222   28224   28223   28225
   28227   28226   28228   28230   28229   28231   28233   28232   28234
   28236   28235   28237   28239   28238   28240   28242   28241   28243
   28245   28244   28246   28248   28247   28249   28251   28250   28252
   28254   28253   28255   28257   28256   28258   28260   28259   28261
   28263   28262   28264   28266   28265   28267   28269   28268   28270
   28272   28271   28273   28275   28274   28276   28278   28277   28279
   28281   28280   28282   28284   28283   28285   28287   28286   28288
   28290   28289   28291   28293   28292   28294   28296   28295   28297
   28299   28298   28300   28302   28301   28303   28305   28304   28306
   28308   28307   28309   28311   28310   28312   28314   28313   28315
   28317   28316   28318   28320   28319   28321   28323   28322   28324
   28326   28325   28327   28329   28328   28330   28332   28331   28333
   28335   28334   28336   28338   28337   28339   28341   28340   28342
   28344   28343   28345   28347   28346   28348   28350   28349   28351
   28353   28352   28354   28356   28355   28357   28359   28358   28360
   28362   28361   28363   28365   28364   28366   28368   28367   28369
   28371   28370   28372   28374   28373   28375   28377   28376   28378
   28380   28379   28381   28383   28382   28384   28386   28385   28387
   28389   28388   28390   28392   28391   28393   28395   28394   28396
   28398   28397   28399   28401   28400   28402   28404   28403   28405
   28407   28406   28408   28410   28409   28411   28413   28412   28414
   28416   28415   28417   28419   28418   28420   28422   28421   28423
   28425   28424   28426   28428   28427   28429   28431   28430   28432
   28434   28433   28435   28437   28436   28438   28440   28439   28441
   28443   28442   28444   28446   28445   28447   28449   28448   28450
   28452   28451   28453   28455   28454   28456   28458   28457   28459
   28461   28460   28462   28464   28463   28465   28467   28466   28468
   28470   28469   28471   28473   28472   28474   28476   28475   28477
   28479   28478   28480   28482   28481   28483   28485   28484   28486
   28488   28487   28489   28491   28490   28492   28494   28493   28495
   28497   28496   28498   28500   28499   28501   28503   28502   28504
   28506   28505   28507   28509   28508   28510   28512   28511   28513
   28515   28514   28516   28518   28517   28519   28521   28520   28522
   28524   28523   28525   28527   28526   28528   28530   28529   28531
   28533   28532   28534   28536   28535   28537   28539   28538   28540
   28542   28541   28543   28545   28544   28546   28548   28547   28549
   28551   28550   28552   28554   28553   28555   28557   28556   28558
   28560   28559   28561   28563   28562   28564   28566   28565   28567
   28569   28568   28570   28572   28571   28573   28575   28574   28576
   28578   28577   28579   28581   28580   28582   28584   28583   28585
   28587   28586   28588   28590   28589   28591   28593   28592   28594
   28596   28595   28597   28599   28598   28600   28602   28601   28603
   28605   28604   28606   28608   28607   28609   28611   28610   28612
   28614   28613   28615   28617   28616   28618   28620   28619   28621
   28623   28622   28624   28626   28625   28627   28629   28628   28630
   28632   28631   28633   28635   28634   28636   28638   28637   28639
   28641   28640   28642   28644   28643   28645   28647   28646   28648
   28650   28649   28651   28653   28652   28654   28656   28655   28657
   28659   28658   28660   28662   28661   28663   28665   28664   28666
   28668   28667   28669   28671   28670   28672   28674   28673   28675
   28677   28676   28678   28680   28679   28681   28683   28682   28684
   28686   28685   28687   28689   28688   28690   28692   28691   28693
   28695   28694   28696   28698   28697   28699   28701   28700   28702
   28704   28703   28705   28707   28706   28708   28710   28709   28711
   28713   28712   28714   28716   28715   28717   28719   28718   28720
   28722   28721   28723   28725   28724   28726   28728   28727   28729
   28731   28730   28732   28734   28733   28735   28737   28736   28738
   28740   28739   28741   28743   28742   28744   28746   28745   28747
   28749   28748   28750   28752   28751   28753   28755   28754   28756
   28758   28757   28759   28761   28760   28762   28764   28763   28765
   28767   28766   28768   28770   28769   28771   28773   28772   28774
   28776   28775   28777   28779   28778   28780   28782   28781   28783
   28785   28784   28786   28788   28787   28789   28791   28790   28792
   28794   28793   28795   28797   28796   28798   28800   28799   28801
   28803   28802   28804   28806   28805   28807   28809   28808   28810
   28812   28811   28813   28815   28814   28816   28818   28817   28819
   28821   28820   28822   28824   28823   28825   28827   28826   28828
   28830   28829   28831   28833   28832   28834   28836   28835   28837
   28839   28838   28840   28842   28841   28843   28845   28844   28846
   28848   28847   28849   28851   28850   28852   28854   28853   28855
   28857   28856   28858   28860   28859   28861   28863   28862   28864
   28866   28865   28867   28869   28868   28870   28872   28871   28873
   28875   28874   28876   28878   28877   28879   28881   28880   28882
   28884   28883   28885   28887   28886   28888   28890   28889   28891
   28893   28892   28894   28896   28895   28897   28899   28898   28900
   28902   28901   28903   28905   28904   28906   28908   28907   28909
   28911   28910   28912   28914   28913   28915   28917   28916   28918
   28920   28919   28921   28923   28922   28924   28926   28925   28927
   28929   28928   28930   28932   28931   28933   28935   28934   28936
   28938   28937   28939   28941   28940   28942   28944   28943   28945
   28947   28946   28948   28950   28949   28951   28953   28952   28954
   28956   28955   28957   28959   28958   28960   28962   28961   28963
   28965   28964   28966   28968   28967   28969   28971   28970   28972
   28974   28973   28975   28977   28976   28978   28980   28979   28981
   28983   28982   28984   28986   28985   28987   28989   28988   28990
   28992   28991   28993   28995   28994   28996   28998   28997   28999
   29001   29000   29002   29004   29003   29005   29007   29006   29008
   29010   29009   29011   29013   29012   29014   29016   29015   29017
   29019   29018   29020   29022   29021   29023   29025   29024   29026
   29028   29027   29029   29031   29030   29032   29034   29033   29035
   29037   29036   29038   29040   29039   29041   29043   29042   29044
   29046   29045   29047   29049   29048   29050   29052   29051   29053
   29055   29054   29056   29058   29057   29059   29061   29060   29062
   29064   29063   29065   29067   29066   29068   29070   29069   29071
   29073   29072   29074   29076   29075   29077   29079   29078   29080
   29082   29081   29083   29085   29084   29086   29088   29087   29089
   29091   29090   29092   29094   29093   29095   29097   29096   29098
   29100   29099   29101   29103   29102   29104   29106   29105   29107
   29109   29108   29110   29112   29111   29113   29115   29114   29116
   29118   29117   29119   29121   29120   29122   29124   29123   29125
   29127   29126   29128   29130   29129   29131   29133   29132   29134
   29136   29135   29137   29139   29138   29140   29142   29141   29143
   29145   29144   29146   29148   29147   29149   29151   29150   29152
   29154   29153   29155   29157   29156   29158   29160   29159   29161
   29163   29162   29164   29166   29165   29167   29169   29168   29170
   29172   29171   29173   29175   29174   29176   29178   29177   29179
   29181   29180   29182   29184   29183   29185   29187   29186   29188
   29190   29189   29191   29193   29192   29194   29196   29195   29197
   29199   29198   29200   29202   29201   29203   29205   29204   29206
   29208   29207   29209   29211   29210   29212   29214   29213   29215
   29217   29216   29218   29220   29219   29221   29223   29222   29224
   29226   29225   29227   29229   29228   29230   29232   29231   29233
   29235   29234   29236   29238   29237   29239   29241   29240   29242
   29244   29243   29245   29247   29246   29248   29250   29249   29251
   29253   29252   29254   29256   29255   29257   29259   29258   29260
   29262   29261   29263   29265   29264   29266   29268   29267   29269
   29271   29270   29272   29274   29273   29275   29277   29276   29278
   29280   29279   29281   29283   29282   29284   29286   29285   29287
   29289   29288   29290   29292   29291   29293   29295   29294   29296
   29298   29297   29299   29301   29300   29302   29304   29303   29305
   29307   29306   29308   29310   29309   29311   29313   29312   29314
   29316   29315   29317   29319   29318   29320   29322   29321   29323
   29325   29324   29326   29328   29327   29329   29331   29330   29332
   29334   29333   29335   29337   29336   29338   29340   29339   29341
   29343   29342   29344   29346   29345   29347   29349   29348   29350
   29352   29351   29353   29355   29354   29356   29358   29357   29359
   29361   29360   29362   29364   29363   29365   29367   29366   29368
   29370   29369   29371   29373   29372   29374   29376   29375   29377
   29379   29378   29380   29382   29381   29383   29385   29384   29386
   29388   29387   29389   29391   29390   29392   29394   29393   29395
   29397   29396   29398   29400   29399   29401   29403   29402   29404
   29406   29405   29407   29409   29408   29410   29412   29411   29413
   29415   29414   29416   29418   29417   29419   29421   29420   29422
   29424   29423   29425   29427   29426   29428   29430   29429   29431
   29433   29432   29434   29436   29435   29437   29439   29438   29440
   29442   29441   29443   29445   29444   29446   29448   29447   29449
   29451   29450   29452   29454   29453   29455   29457   29456   29458
   29460   29459   29461   29463   29462   29464   29466   29465   29467
   29469   29468   29470   29472   29471   29473   29475   29474   29476
   29478   29477   29479   29481   29480   29482   29484   29483   29485
   29487   29486   29488   29490   29489   29491   29493   29492   29494
   29496   29495   29497   29499   29498   29500   29502   29501   29503
   29505   29504   29506   29508   29507   29509   29511   29510   29512
   29514   29513   29515   29517   29516   29518   29520   29519   29521
   29523   29522   29524   29526   29525   29527   29529   29528   29530
   29532   29531   29533   29535   29534   29536   29538   29537   29539
   29541   29540   29542   29544   29543   29545   29547   29546   29548
   29550   29549   29551   29553   29552   29554   29556   29555   29557
   29559   29558   29560   29562   29561   29563   29565   29564   29566
   29568   29567   29569   29571   29570   29572   29574   29573   29575
   29577   29576   29578   29580   29579   29581   29583   29582   29584
   29586   29585   29587   29589   29588   29590   29592   29591   29593
   29595   29594   29596   29598   29597   29599   29601   29600   29602
   29604   29603   29605   29607   29606   29608   29610   29609   29611
   29613   29612   29614   29616   29615   29617   29619   29618   29620
   29622   29621   29623   29625   29624   29626   29628   29627   29629
   29631   29630   29632   29634   29633   29635   29637   29636   29638
   29640   29639   29641   29643   29642   29644   29646   29645   29647
   29649   29648   29650   29652   29651   29653   29655   29654   29656
   29658   29657   29659   29661   29660   29662   29664   29663   29665
   29667   29666   29668   29670   29669   29671   29673   29672   29674
   29676   29675   29677   29679   29678   29680   29682   29681   29683
   29685   29684   29686   29688   29687   29689   29691   29690   29692
   29694   29693   29695   29697   29696   29698   29700   29699   29701
   29703   29702   29704   29706   29705   29707   29709   29708   29710
   29712   29711   29713   29715   29714   29716   29718   29717   29719
   29721   29720   29722   29724   29723   29725   29727   29726   29728
   29730   29729   29731   29733   29732   29734   29736   29735   29737
   29739   29738   29740   29742   29741   29743   29745   29744   29746
   29748   29747   29749   29751   29750   29752   29754   29753   29755
   29757   29756   29758   29760   29759   29761   29763   29762   29764
   29766   29765   29767   29769   29768   29770   29772   29771   29773
   29775   29774   29776   29778   29777   29779   29781   29780   29782
   29784   29783   29785   29787   29786   29788   29790   29789   29791
   29793   29792   29794   29796   29795   29797   29799   29798   29800
   29802   29801   29803   29805   29804   29806   29808   29807   29809
   29811   29810   29812   29814   29813   29815   29817   29816   29818
   29820   29819   29821   29823   29822   29824   29826   29825   29827
   29829   29828   29830   29832   29831   29833   29835   29834   29836
   29838   29837   29839   29841   29840   29842   29844   29843   29845
   29847   29846   29848   29850   29849   29851   29853   29852   29854
   29856   29855   29857   29859   29858   29860   29862   29861   29863
   29865   29864   29866   29868   29867   29869   29871   29870   29872
   29874   29873   29875   29877   29876   29878   29880   29879   29881
   29883   29882   29884   29886   29885   29887   29889   29888   29890
   29892   29891   29893   29895   29894   29896   29898   29897   29899
   29901   29900   29902   29904   29903   29905   29907   29906   29908
   29910   29909   29911   29913   29912   29914   29916   29915   29917
   29919   29918   29920   29922   29921   29923   29925   29924   29926
   29928   29927   29929   29931   29930   29932   29934   29933   29935
   29937   29936   29938   29940   29939   29941   29943   29942   29944
   29946   29945   29947   29949   29948   29950   29952   29951   29953
   29955   29954   29956   29958   29957   29959   29961   29960   29962
   29964   29963   29965   29967   29966   29968   29970   29969   29971
   29973   29972   29974   29976   29975   29977   29979   29978   29980
   29982   29981   29983   29985   29984   29986   29988   29987   29989
   29991   29990   29992   29994   29993   29995   29997   29996   29998
   30000   29999   30001   30003   30002   30004   30006   30005   30007
   30009   30008   30010   30012   30011   30013   30015   30014   30016
   30018   30017   30019   30021   30020   30022   30024   30023   30025
   30027   30026   30028   30030   30029   30031   30033   30032   30034
   30036   30035   30037   30039   30038   30040   30042   30041   30043
   30045   30044   30046   30048   30047   30049   30051   30050   30052
   30054   30053   30055   30057   30056   30058   30060   30059   30061
   30063   30062   30064   30066   30065   30067   30069   30068   30070
   30072   30071   30073   30075   30074   30076   30078   30077   30079
   30081   30080   30082   30084   30083   30085   30087   30086   30088
   30090   30089   30091   30093   30092   30094   30096   30095   30097
   30099   30098   30100   30102   30101   30103   30105   30104   30106
   30108   30107   30109   30111   30110   30112   30114   30113   30115
   30117   30116   30118   30120   30119   30121   30123   30122   30124
   30126   30125   30127   30129   30128   30130   30132   30131   30133
   30135   30134   30136   30138   30137   30139   30141   30140   30142
   30144   30143   30145   30147   30146   30148   30150   30149   30151
   30153   30152   30154   30156   30155   30157   30159   30158   30160
   30162   30161   30163   30165   30164   30166   30168   30167   30169
   30171   30170   30172   30174   30173   30175   30177   30176   30178
   30180   30179   30181   30183   30182   30184   30186   30185   30187
   30189   30188   30190   30192   30191   30193   30195   30194   30196
   30198   30197   30199   30201   30200   30202   30204   30203   30205
   30207   30206   30208   30210   30209   30211   30213   30212   30214
   30216   30215   30217   30219   30218   30220   30222   30221   30223
   30225   30224   30226   30228   30227   30229   30231   30230   30232
   30234   30233   30235   30237   30236   30238   30240   30239   30241
   30243   30242   30244   30246   30245   30247   30249   30248   30250
   30252   30251   30253   30255   30254   30256   30258   30257   30259
   30261   30260   30262   30264   30263   30265   30267   30266   30268
   30270   30269   30271   30273   30272   30274   30276   30275   30277
   30279   30278   30280   30282   30281   30283   30285   30284   30286
   30288   30287   30289   30291   30290   30292   30294   30293   30295
   30297   30296   30298   30300   30299   30301   30303   30302   30304
   30306   30305   30307   30309   30308   30310   30312   30311   30313
   30315   30314   30316   30318   30317   30319   30321   30320   30322
   30324   30323   30325   30327   30326   30328   30330   30329   30331
   30333   30332   30334   30336   30335   30337   30339   30338   30340
   30342   30341   30343   30345   30344   30346   30348   30347   30349
   30351   30350   30352   30354   30353   30355   30357   30356   30358
   30360   30359   30361   30363   30362   30364   30366   30365   30367
   30369   30368   30370   30372   30371   30373   30375   30374   30376
   30378   30377   30379   30381   30380   30382   30384   30383   30385
   30387   30386   30388   30390   30389   30391   30393   30392   30394
   30396   30395   30397   30399   30398   30400   30402   30401   30403
   30405   30404   30406   30408   30407   30409   30411   30410   30412
   30414   30413   30415   30417   30416   30418   30420   30419   30421
   30423   30422   30424   30426   30425   30427   30429   30428   30430
   30432   30431   30433   30435   30434   30436   30438   30437   30439
   30441   30440   30442   30444   30443   30445   30447   30446   30448
   30450   30449   30451   30453   30452   30454   30456   30455   30457
   30459   30458   30460   30462   30461   30463   30465   30464   30466
   30468   30467   30469   30471   30470   30472   30474   30473   30475
   30477   30476   30478   30480   30479   30481   30483   30482   30484
   30486   30485   30487   30489   30488   30490   30492   30491   30493
   30495   30494   30496   30498   30497   30499   30501   30500   30502
   30504   30503   30505   30507   30506   30508   30510   30509   30511
   30513   30512   30514   30516   30515   30517   30519   30518   30520
   30522   30521   30523   30525   30524   30526   30528   30527   30529
   30531   30530   30532   30534   30533   30535   30537   30536   30538
   30540   30539   30541   30543   30542   30544   30546   30545   30547
   30549   30548   30550   30552   30551   30553   30555   30554   30556
   30558   30557   30559   30561   30560   30562   30564   30563   30565
   30567   30566   30568   30570   30569   30571   30573   30572   30574
   30576   30575   30577   30579   30578   30580   30582   30581   30583
   30585   30584   30586   30588   30587   30589   30591   30590   30592
   30594   30593   30595   30597   30596   30598   30600   30599   30601
   30603   30602   30604   30606   30605   30607   30609   30608   30610
   30612   30611   30613   30615   30614   30616   30618   30617   30619
   30621   30620   30622   30624   30623   30625   30627   30626   30628
   30630   30629   30631   30633   30632   30634   30636   30635   30637
   30639   30638   30640   30642   30641   30643   30645   30644   30646
   30648   30647   30649   30651   30650   30652   30654   30653   30655
   30657   30656   30658   30660   30659   30661   30663   30662   30664
   30666   30665   30667   30669   30668   30670   30672   30671   30673
   30675   30674   30676   30678   30677   30679   30681   30680   30682
   30684   30683   30685   30687   30686   30688   30690   30689   30691
   30693   30692   30694   30696   30695   30697   30699   30698   30700
   30702   30701   30703   30705   30704   30706   30708   30707   30709
   30711   30710   30712   30714   30713   30715   30717   30716   30718
   30720   30719   30721   30723   30722   30724   30726   30725   30727
   30729   30728   30730   30732   30731   30733   30735   30734   30736
   30738   30737   30739   30741   30740   30742   30744   30743   30745
   30747   30746   30748   30750   30749   30751   30753   30752   30754
   30756   30755   30757   30759   30758   30760   30762   30761   30763
   30765   30764   30766   30768   30767   30769   30771   30770   30772
   30774   30773   30775   30777   30776   30778   30780   30779   30781
   30783   30782   30784   30786   30785   30787   30789   30788   30790
   30792   30791   30793   30795   30794   30796   30798   30797   30799
   30801   30800   30802   30804   30803   30805   30807   30806   30808
   30810   30809   30811   30813   30812   30814   30816   30815   30817
   30819   30818   30820   30822   30821   30823   30825   30824   30826
   30828   30827   30829   30831   30830   30832   30834   30833   30835
   30837   30836   30838   30840   30839   30841   30843   30842   30844
   30846   30845   30847   30849   30848   30850   30852   30851   30853
   30855   30854   30856   30858   30857   30859   30861   30860   30862
   30864   30863   30865   30867   30866   30868   30870   30869   30871
   30873   30872   30874   30876   30875   30877   30879   30878   30880
   30882   30881   30883   30885   30884   30886   30888   30887   30889
   30891   30890   30892   30894   30893   30895   30897   30896   30898
   30900   30899   30901   30903   30902   30904   30906   30905   30907
   30909   30908   30910   30912   30911   30913   30915   30914   30916
   30918   30917   30919   30921   30920   30922   30924   30923   30925
   30927   30926   30928   30930   30929   30931   30933   30932   30934
   30936   30935   30937   30939   30938   30940   30942   30941   30943
   30945   30944   30946   30948   30947   30949   30951   30950   30952
   30954   30953   30955   30957   30956   30958   30960   30959   30961
   30963   30962   30964   30966   30965   30967   30969   30968   30970
   30972   30971   30973   30975   30974   30976   30978   30977   30979
   30981   30980   30982   30984   30983   30985   30987   30986   30988
   30990   30989   30991   30993   30992   30994   30996   30995   30997
   30999   30998   31000   31002   31001   31003   31005   31004   31006
   31008   31007   31009   31011   31010   31012   31014   31013   31015
   31017   31016   31018   31020   31019   31021   31023   31022   31024
   31026   31025   31027   31029   31028   31030   31032   31031   31033
   31035   31034   31036   31038   31037   31039   31041   31040   31042
   31044   31043   31045   31047   31046   31048   31050   31049   31051
   31053   31052   31054   31056   31055   31057   31059   31058   31060
   31062   31061   31063   31065   31064   31066   31068   31067   31069
   31071   31070   31072   31074   31073   31075   31077   31076   31078
   31080   31079   31081   31083   31082   31084   31086   31085   31087
   31089   31088   31090   31092   31091   31093   31095   31094   31096
   31098   31097   31099   31101   31100   31102   31104   31103   31105
   31107   31106   31108   31110   31109   31111   31113   31112   31114
   31116   31115   31117   31119   31118   31120   31122   31121   31123
   31125   31124   31126   31128   31127   31129   31131   31130   31132
   31134   31133   31135   31137   31136   31138   31140   31139   31141
   31143   31142   31144   31146   31145   31147   31149   31148   31150
   31152   31151   31153   31155   31154   31156   31158   31157   31159
   31161   31160   31162   31164   31163   31165   31167   31166   31168
   31170   31169   31171   31173   31172   31174   31176   31175   31177
   31179   31178   31180   31182   31181   31183   31185   31184   31186
   31188   31187   31189   31191   31190   31192   31194   31193   31195
   31197   31196   31198   31200   31199   31201   31203   31202   31204
   31206   31205   31207   31209   31208   31210   31212   31211   31213
   31215   31214   31216   31218   31217   31219   31221   31220   31222
   31224   31223   31225   31227   31226   31228   31230   31229   31231
   31233   31232   31234   31236   31235   31237   31239   31238   31240
   31242   31241   31243   31245   31244   31246   31248   31247   31249
   31251   31250   31252   31254   31253   31255   31257   31256   31258
   31260   31259   31261   31263   31262   31264   31266   31265   31267
   31269   31268   31270   31272   31271   31273   31275   31274   31276
   31278   31277   31279   31281   31280   31282   31284   31283   31285
   31287   31286   31288   31290   31289   31291   31293   31292   31294
   31296   31295   31297   31299   31298   31300   31302   31301   31303
   31305   31304   31306   31308   31307   31309   31311   31310   31312
   31314   31313   31315   31317   31316   31318   31320   31319   31321
   31323   31322   31324   31326   31325   31327   31329   31328   31330
   31332   31331   31333   31335   31334   31336   31338   31337   31339
   31341   31340   31342   31344   31343   31345   31347   31346   31348
   31350   31349   31351   31353   31352   31354   31356   31355   31357
   31359   31358   31360   31362   31361   31363   31365   31364   31366
   31368   31367   31369   31371   31370   31372   31374   31373   31375
   31377   31376   31378   31380   31379   31381   31383   31382   31384
   31386   31385   31387   31389   31388   31390   31392   31391   31393
   31395   31394   31396   31398   31397   31399   31401   31400   31402
   31404   31403   31405   31407   31406   31408   31410   31409   31411
   31413   31412   31414   31416   31415   31417   31419   31418   31420
   31422   31421   31423   31425   31424   31426   31428   31427   31429
   31431   31430   31432   31434   31433   31435   31437   31436   31438
   31440   31439   31441   31443   31442   31444   31446   31445   31447
   31449   31448   31450   31452   31451   31453   31455   31454   31456
   31458   31457   31459   31461   31460   31462   31464   31463   31465
   31467   31466   31468   31470   31469   31471   31473   31472   31474
   31476   31475   31477   31479   31478   31480   31482   31481   31483
   31485   31484   31486   31488   31487   31489   31491   31490   31492
   31494   31493   31495   31497   31496   31498   31500   31499   31501
   31503   31502   31504   31506   31505   31507   31509   31508   31510
   31512   31511   31513   31515   31514   31516   31518   31517   31519
   31521   31520   31522   31524   31523   31525   31527   31526   31528
   31530   31529   31531   31533   31532   31534   31536   31535   31537
   31539   31538   31540   31542   31541   31543   31545   31544   31546
   31548   31547   31549   31551   31550   31552   31554   31553   31555
   31557   31556   31558   31560   31559   31561   31563   31562   31564
   31566   31565   31567   31569   31568   31570   31572   31571   31573
   31575   31574   31576   31578   31577   31579   31581   31580   31582
   31584   31583   31585   31587   31586   31588   31590   31589   31591
   31593   31592   31594   31596   31595   31597   31599   31598   31600
   31602   31601   31603   31605   31604   31606   31608   31607   31609
   31611   31610   31612   31614   31613   31615   31617   31616   31618
   31620   31619   31621   31623   31622   31624   31626   31625   31627
   31629   31628   31630   31632   31631   31633   31635   31634   31636
   31638   31637   31639   31641   31640   31642   31644   31643   31645
   31647   31646   31648   31650   31649   31651   31653   31652   31654
   31656   31655   31657   31659   31658   31660   31662   31661   31663
   31665   31664   31666   31668   31667   31669   31671   31670   31672
   31674   31673   31675   31677   31676   31678   31680   31679   31681
   31683   31682   31684   31686   31685   31687   31689   31688   31690
   31692   31691   31693   31695   31694   31696   31698   31697   31699
   31701   31700   31702   31704   31703   31705   31707   31706   31708
   31710   31709   31711   31713   31712   31714   31716   31715   31717
   31719   31718   31720   31722   31721   31723   31725   31724   31726
   31728   31727   31729   31731   31730   31732   31734   31733   31735
   31737   31736   31738   31740   31739   31741   31743   31742   31744
   31746   31745   31747   31749   31748   31750   31752   31751   31753
   31755   31754   31756   31758   31757   31759   31761   31760   31762
   31764   31763   31765   31767   31766   31768   31770   31769   31771
   31773   31772   31774   31776   31775   31777   31779   31778   31780
   31782   31781   31783   31785   31784   31786   31788   31787   31789
   31791   31790   31792   31794   31793   31795   31797   31796   31798
   31800   31799   31801   31803   31802   31804   31806   31805   31807
   31809   31808   31810   31812   31811   31813   31815   31814   31816
   31818   31817   31819   31821   31820   31822   31824   31823   31825
   31827   31826   31828   31830   31829   31831   31833   31832   31834
   31836   31835   31837   31839   31838   31840   31842   31841   31843
   31845   31844   31846   31848   31847   31849   31851   31850   31852
   31854   31853   31855   31857   31856   31858   31860   31859   31861
   31863   31862   31864   31866   31865   31867   31869   31868   31870
   31872   31871   31873   31875   31874   31876   31878   31877   31879
   31881   31880   31882   31884   31883   31885   31887   31886   31888
   31890   31889   31891   31893   31892   31894   31896   31895   31897
   31899   31898   31900   31902   31901   31903   31905   31904   31906
   31908   31907   31909   31911   31910   31912   31914   31913   31915
   31917   31916   31918   31920   31919   31921   31923   31922   31924
   31926   31925   31927   31929   31928   31930   31932   31931   31933
   31935   31934   31936   31938   31937   31939   31941   31940   31942
   31944   31943   31945   31947   31946   31948   31950   31949   31951
   31953   31952   31954   31956   31955   31957   31959   31958   31960
   31962   31961   31963   31965   31964   31966   31968   31967   31969
   31971   31970   31972   31974   31973   31975   31977   31976   31978
   31980   31979   31981   31983   31982   31984   31986   31985   31987
   31989   31988   31990   31992   31991   31993   31995   31994   31996
   31998   31997   31999   32001   32000   32002   32004   32003   32005
   32007   32006   32008   32010   32009   32011   32013   32012   32014
   32016   32015   32017   32019   32018   32020   32022   32021   32023
   32025   32024   32026   32028   32027   32029   32031   32030   32032
   32034   32033   32035   32037   32036   32038   32040   32039   32041
   32043   32042   32044   32046   32045   32047   32049   32048   32050
   32052   32051   32053   32055   32054   32056   32058   32057   32059
   32061   32060   32062   32064   32063   32065   32067   32066   32068
   32070   32069   32071   32073   32072   32074   32076   32075   32077
   32079   32078   32080   32082   32081   32083   32085   32084   32086
   32088   32087   32089   32091   32090   32092   32094   32093   32095
   32097   32096   32098   32100   32099   32101   32103   32102   32104
   32106   32105   32107   32109   32108   32110   32112   32111   32113
   32115   32114   32116   32118   32117   32119   32121   32120   32122
   32124   32123   32125   32127   32126   32128   32130   32129   32131
   32133   32132   32134   32136   32135   32137   32139   32138   32140
   32142   32141   32143   32145   32144   32146   32148   32147   32149
   32151   32150   32152   32154   32153   32155   32157   32156   32158
   32160   32159   32161   32163   32162   32164   32166   32165   32167
   32169   32168   32170   32172   32171   32173   32175   32174   32176
   32178   32177   32179   32181   32180   32182   32184   32183   32185
   32187   32186   32188   32190   32189   32191   32193   32192   32194
   32196   32195   32197   32199   32198   32200   32202   32201   32203
   32205   32204   32206   32208   32207   32209   32211   32210   32212
   32214   32213   32215   32217   32216   32218   32220   32219   32221
   32223   32222   32224   32226   32225   32227   32229   32228   32230
   32232   32231   32233   32235   32234   32236   32238   32237   32239
   32241   32240   32242   32244   32243   32245   32247   32246   32248
   32250   32249   32251   32253   32252   32254   32256   32255   32257
   32259   32258   32260   32262   32261   32263   32265   32264   32266
   32268   32267   32269   32271   32270   32272   32274   32273   32275
   32277   32276   32278   32280   32279   32281   32283   32282   32284
   32286   32285   32287   32289   32288   32290   32292   32291   32293
   32295   32294   32296   32298   32297   32299   32301   32300   32302
   32304   32303   32305   32307   32306   32308   32310   32309   32311
   32313   32312   32314   32316   32315   32317   32319   32318   32320
   32322   32321   32323   32325   32324   32326   32328   32327   32329
   32331   32330   32332   32334   32333   32335   32337   32336   32338
   32340   32339   32341   32343   32342   32344   32346   32345   32347
   32349   32348   32350   32352   32351   32353   32355   32354   32356
   32358   32357   32359   32361   32360   32362   32364   32363   32365
   32367   32366   32368   32370   32369   32371   32373   32372   32374
   32376   32375   32377   32379   32378   32380   32382   32381   32383
   32385   32384   32386   32388   32387   32389   32391   32390   32392
   32394   32393   32395   32397   32396   32398   32400   32399   32401
   32403   32402   32404   32406   32405   32407   32409   32408   32410
   32412   32411   32413   32415   32414   32416   32418   32417   32419
   32421   32420   32422   32424   32423   32425   32427   32426   32428
   32430   32429   32431   32433   32432   32434   32436   32435   32437
   32439   32438   32440   32442   32441   32443   32445   32444   32446
   32448   32447   32449   32451   32450   32452   32454   32453   32455
   32457   32456   32458   32460   32459   32461   32463   32462   32464
   32466   32465   32467   32469   32468   32470   32472   32471   32473
   32475   32474   32476   32478   32477   32479   32481   32480   32482
   32484   32483   32485   32487   32486   32488   32490   32489   32491
   32493   32492   32494   32496   32495   32497   32499   32498   32500
   32502   32501   32503   32505   32504   32506   32508   32507   32509
   32511   32510   32512   32514   32513   32515   32517   32516   32518
   32520   32519   32521   32523   32522   32524   32526   32525   32527
   32529   32528   32530   32532   32531   32533   32535   32534   32536
   32538   32537   32539   32541   32540   32542   32544   32543   32545
   32547   32546   32548   32550   32549   32551   32553   32552   32554
   32556   32555   32557   32559   32558   32560   32562   32561   32563
   32565   32564   32566   32568   32567   32569   32571   32570   32572
   32574   32573   32575   32577   32576   32578   32580   32579   32581
   32583   32582   32584   32586   32585   32587   32589   32588   32590
   32592   32591   32593   32595   32594   32596   32598   32597   32599
   32601   32600   32602   32604   32603   32605   32607   32606   32608
   32610   32609   32611   32613   32612   32614   32616   32615   32617
   32619   32618   32620   32622   32621   32623   32625   32624   32626
   32628   32627   32629   32631   32630   32632   32634   32633   32635
   32637   32636   32638   32640   32639   32641   32643   32642   32644
   32646   32645   32647   32649   32648   32650   32652   32651   32653
   32655   32654   32656   32658   32657   32659   32661   32660   32662
   32664   32663   32665   32667   32666   32668   32670   32669   32671
   32673   32672   32674   32676   32675   32677   32679   32678   32680
   32682   32681   32683   32685   32684   32686   32688   32687   32689
   32691   32690   32692   32694   32693   32695   32697   32696   32698
   32700   32699   32701   32703   32702   32704   32706   32705   32707
   32709   32708   32710   32712   32711   32713   32715   32714   32716
   32718   32717   32719   32721   32720   32722   32724   32723   32725
   32727   32726   32728   32730   32729   32731   32733   32732   32734
   32736   32735   32737   32739   32738   32740   32742   32741   32743
   32745   32744   32746   32748   32747   32749   32751   32750   32752
   32754   32753   32755   32757   32756   32758   32760   32759   32761
   32763   32762   32764   32766   32765   32767   32769   32768   32770
   32772   32771   32773   32775   32774   32776   32778   32777   32779
   32781   32780   32782   32784   32783   32785   32787   32786   32788
   32790   32789   32791   32793   32792   32794   32796   32795   32797
   32799   32798   32800   32802   32801   32803   32805   32804   32806
   32808   32807   32809   32811   32810   32812   32814   32813   32815
   32817   32816   32818   32820   32819   32821   32823   32822   32824
   32826   32825   32827   32829   32828   32830   32832   32831   32833
   32835   32834   32836   32838   32837   32839   32841   32840   32842
   32844   32843   32845   32847   32846   32848   32850   32849   32851
   32853   32852   32854   32856   32855   32857   32859   32858   32860
   32862   32861   32863   32865   32864   32866   32868   32867   32869
   32871   32870   32872   32874   32873   32875   32877   32876   32878
   32880   32879   32881   32883   32882   32884   32886   32885   32887
   32889   32888   32890   32892   32891   32893   32895   32894   32896
   32898   32897   32899   32901   32900   32902   32904   32903   32905
   32907   32906   32908   32910   32909   32911   32913   32912   32914
   32916   32915   32917   32919   32918   32920   32922   32921   32923
   32925   32924   32926   32928   32927   32929   32931   32930   32932
   32934   32933   32935   32937   32936   32938   32940   32939   32941
   32943   32942   32944   32946   32945   32947   32949   32948   32950
   32952   32951   32953   32955   32954   32956   32958   32957   32959
   32961   32960   32962   32964   32963   32965   32967   32966   32968
   32970   32969   32971   32973   32972   32974   32976   32975   32977
   32979   32978   32980   32982   32981   32983   32985   32984   32986
   32988   32987   32989   32991   32990   32992   32994   32993   32995
   32997   32996   32998   33000   32999   33001   33003   33002   33004
   33006   33005   33007   33009   33008   33010   33012   33011   33013
   33015   33014   33016   33018   33017   33019   33021   33020   33022
   33024   33023   33025   33027   33026   33028   33030   33029   33031
   33033   33032   33034   33036   33035   33037   33039   33038   33040
   33042   33041   33043   33045   33044   33046   33048   33047   33049
   33051   33050   33052   33054   33053   33055   33057   33056   33058
   33060   33059   33061   33063   33062   33064   33066   33065   33067
   33069   33068   33070   33072   33071   33073   33075   33074   33076
   33078   33077   33079   33081   33080   33082   33084   33083   33085
   33087   33086   33088   33090   33089   33091   33093   33092   33094
   33096   33095   33097   33099   33098   33100   33102   33101   33103
   33105   33104   33106   33108   33107   33109   33111   33110   33112
   33114   33113   33115   33117   33116   33118   33120   33119   33121
   33123   33122   33124   33126   33125   33127   33129   33128   33130
   33132   33131   33133   33135   33134   33136   33138   33137   33139
   33141   33140   33142   33144   33143   33145   33147   33146   33148
   33150   33149   33151   33153   33152   33154   33156   33155   33157
   33159   33158   33160   33162   33161   33163   33165   33164   33166
   33168   33167   33169   33171   33170   33172   33174   33173   33175
   33177   33176   33178   33180   33179   33181   33183   33182   33184
   33186   33185   33187   33189   33188   33190   33192   33191   33193
   33195   33194   33196   33198   33197   33199   33201   33200   33202
   33204   33203   33205   33207   33206   33208   33210   33209   33211
   33213   33212   33214   33216   33215   33217   33219   33218   33220
   33222   33221   33223   33225   33224   33226   33228   33227   33229
   33231   33230   33232   33234   33233   33235   33237   33236   33238
   33240   33239   33241   33243   33242   33244   33246   33245   33247
   33249   33248   33250   33252   33251   33253   33255   33254   33256
   33258   33257   33259   33261   33260   33262   33264   33263   33265
   33267   33266   33268   33270   33269   33271   33273   33272   33274
   33276   33275   33277   33279   33278   33280   33282   33281   33283
   33285   33284   33286   33288   33287   33289   33291   33290   33292
   33294   33293   33295   33297   33296   33298   33300   33299   33301
   33303   33302   33304   33306   33305   33307   33309   33308   33310
   33312   33311   33313   33315   33314   33316   33318   33317   33319
   33321   33320   33322   33324   33323   33325   33327   33326   33328
   33330   33329   33331   33333   33332   33334   33336   33335   33337
   33339   33338   33340   33342   33341   33343   33345   33344   33346
   33348   33347   33349   33351   33350   33352   33354   33353   33355
   33357   33356   33358   33360   33359   33361   33363   33362   33364
   33366   33365   33367   33369   33368   33370   33372   33371   33373
   33375   33374   33376   33378   33377   33379   33381   33380   33382
   33384   33383   33385   33387   33386   33388   33390   33389   33391
   33393   33392   33394   33396   33395   33397   33399   33398   33400
   33402   33401   33403   33405   33404   33406   33408   33407   33409
   33411   33410   33412   33414   33413   33415   33417   33416   33418
   33420   33419   33421   33423   33422   33424   33426   33425   33427
   33429   33428   33430   33432   33431   33433   33435   33434   33436
   33438   33437   33439   33441   33440   33442   33444   33443   33445
   33447   33446   33448   33450   33449   33451   33453   33452   33454
   33456   33455   33457   33459   33458   33460   33462   33461   33463
   33465   33464   33466   33468   33467   33469   33471   33470   33472
   33474   33473   33475   33477   33476   33478   33480   33479   33481
   33483   33482   33484   33486   33485   33487   33489   33488   33490
   33492   33491   33493   33495   33494   33496   33498   33497   33499
   33501   33500   33502   33504   33503   33505   33507   33506   33508
   33510   33509   33511   33513   33512   33514   33516   33515   33517
   33519   33518   33520   33522   33521   33523   33525   33524   33526
   33528   33527   33529   33531   33530   33532   33534   33533   33535
   33537   33536   33538   33540   33539   33541   33543   33542   33544
   33546   33545   33547   33549   33548   33550   33552   33551   33553
   33555   33554   33556   33558   33557   33559   33561   33560   33562
   33564   33563   33565   33567   33566   33568   33570   33569   33571
   33573   33572   33574   33576   33575   33577   33579   33578   33580
   33582   33581   33583   33585   33584   33586   33588   33587   33589
   33591   33590   33592   33594   33593   33595   33597   33596   33598
   33600   33599   33601   33603   33602   33604   33606   33605   33607
   33609   33608   33610   33612   33611   33613   33615   33614   33616
   33618   33617   33619   33621   33620   33622   33624   33623   33625
   33627   33626   33628   33630   33629   33631   33633   33632   33634
   33636   33635   33637   33639   33638   33640   33642   33641   33643
   33645   33644   33646   33648   33647   33649   33651   33650   33652
   33654   33653   33655   33657   33656   33658   33660   33659   33661
   33663   33662   33664   33666   33665   33667   33669   33668   33670
   33672   33671   33673   33675   33674   33676   33678   33677   33679
   33681   33680   33682   33684   33683   33685   33687   33686   33688
   33690   33689   33691   33693   33692   33694   33696   33695   33697
   33699   33698   33700   33702   33701   33703   33705   33704   33706
   33708   33707   33709   33711   33710   33712   33714   33713   33715
   33717   33716   33718   33720   33719   33721   33723   33722   33724
   33726   33725   33727   33729   33728   33730   33732   33731   33733
   33735   33734   33736   33738   33737   33739   33741   33740   33742
   33744   33743   33745   33747   33746   33748   33750   33749   33751
   33753   33752   33754   33756   33755   33757   33759   33758   33760
   33762   33761   33763   33765   33764   33766   33768   33767   33769
   33771   33770   33772   33774   33773   33775   33777   33776   33778
   33780   33779   33781   33783   33782   33784   33786   33785   33787
   33789   33788   33790   33792   33791   33793   33795   33794   33796
   33798   33797   33799   33801   33800   33802   33804   33803   33805
   33807   33806   33808   33810   33809   33811   33813   33812   33814
   33816   33815   33817   33819   33818   33820   33822   33821   33823
   33825   33824   33826   33828   33827   33829   33831   33830   33832
   33834   33833   33835   33837   33836   33838   33840   33839   33841
   33843   33842   33844   33846   33845   33847   33849   33848   33850
   33852   33851   33853   33855   33854   33856   33858   33857   33859
   33861   33860   33862   33864   33863   33865   33867   33866   33868
   33870   33869   33871   33873   33872   33874   33876   33875   33877
   33879   33878   33880   33882   33881   33883   33885   33884   33886
   33888   33887   33889   33891   33890   33892   33894   33893   33895
   33897   33896   33898   33900   33899   33901   33903   33902   33904
   33906   33905   33907   33909   33908   33910   33912   33911   33913
   33915   33914   33916   33918   33917   33919   33921   33920   33922
   33924   33923   33925   33927   33926   33928   33930   33929   33931
   33933   33932   33934   33936   33935   33937   33939   33938   33940
   33942   33941   33943   33945   33944   33946   33948   33947   33949
   33951   33950   33952   33954   33953   33955   33957   33956   33958
   33960   33959   33961   33963   33962   33964   33966   33965   33967
   33969   33968   33970   33972   33971   33973   33975   33974   33976
   33978   33977   33979   33981   33980   33982   33984   33983   33985
   33987   33986   33988   33990   33989   33991   33993   33992   33994
   33996   33995   33997   33999   33998   34000   34002   34001   34003
   34005   34004   34006   34008   34007   34009   34011   34010   34012
   34014   34013   34015   34017   34016   34018   34020   34019   34021
   34023   34022   34024   34026   34025   34027   34029   34028   34030
   34032   34031   34033   34035   34034   34036   34038   34037   34039
   34041   34040   34042   34044   34043   34045   34047   34046   34048
   34050   34049   34051   34053   34052   34054   34056   34055   34057
   34059   34058   34060   34062   34061   34063   34065   34064   34066
   34068   34067   34069   34071   34070   34072   34074   34073   34075
   34077   34076   34078   34080   34079   34081   34083   34082   34084
   34086   34085   34087   34089   34088   34090   34092   34091   34093
   34095   34094   34096   34098   34097   34099   34101   34100   34102
   34104   34103   34105   34107   34106   34108   34110   34109   34111
   34113   34112   34114   34116   34115   34117   34119   34118   34120
   34122   34121   34123   34125   34124   34126   34128   34127   34129
   34131   34130   34132   34134   34133   34135   34137   34136   34138
   34140   34139   34141   34143   34142   34144   34146   34145   34147
   34149   34148   34150   34152   34151   34153   34155   34154   34156
   34158   34157   34159   34161   34160   34162   34164   34163   34165
   34167   34166   34168   34170   34169   34171   34173   34172   34174
   34176   34175   34177   34179   34178   34180   34182   34181   34183
   34185   34184   34186   34188   34187   34189   34191   34190   34192
   34194   34193   34195   34197   34196   34198   34200   34199   34201
   34203   34202   34204   34206   34205   34207   34209   34208   34210
   34212   34211   34213   34215   34214   34216   34218   34217   34219
   34221   34220   34222   34224   34223   34225   34227   34226   34228
   34230   34229   34231   34233   34232   34234   34236   34235   34237
   34239   34238   34240   34242   34241   34243   34245   34244   34246
   34248   34247   34249   34251   34250   34252   34254   34253   34255
   34257   34256   34258   34260   34259   34261   34263   34262   34264
   34266   34265   34267   34269   34268   34270   34272   34271   34273
   34275   34274   34276   34278   34277   34279   34281   34280   34282
   34284   34283   34285   34287   34286   34288   34290   34289   34291
   34293   34292   34294   34296   34295   34297   34299   34298   34300
   34302   34301   34303   34305   34304   34306   34308   34307   34309
   34311   34310   34312   34314   34313   34315   34317   34316   34318
   34320   34319   34321   34323   34322   34324   34326   34325   34327
   34329   34328   34330   34332   34331   34333   34335   34334   34336
   34338   34337   34339   34341   34340   34342   34344   34343   34345
   34347   34346   34348   34350   34349   34351   34353   34352   34354
   34356   34355   34357   34359   34358   34360   34362   34361   34363
   34365   34364   34366   34368   34367   34369   34371   34370   34372
   34374   34373   34375   34377   34376   34378   34380   34379   34381
   34383   34382   34384   34386   34385   34387   34389   34388   34390
   34392   34391   34393   34395   34394   34396   34398   34397   34399
   34401   34400   34402   34404   34403   34405   34407   34406   34408
   34410   34409   34411   34413   34412   34414   34416   34415   34417
   34419   34418   34420   34422   34421   34423   34425   34424   34426
   34428   34427   34429   34431   34430   34432   34434   34433   34435
   34437   34436   34438   34440   34439   34441   34443   34442   34444
   34446   34445   34447   34449   34448   34450   34452   34451   34453
   34455   34454   34456   34458   34457   34459   34461   34460   34462
   34464   34463   34465   34467   34466   34468   34470   34469   34471
   34473   34472   34474   34476   34475   34477   34479   34478   34480
   34482   34481   34483   34485   34484   34486   34488   34487   34489
   34491   34490   34492   34494   34493   34495   34497   34496   34498
   34500   34499   34501   34503   34502   34504   34506   34505   34507
   34509   34508   34510   34512   34511   34513   34515   34514   34516
   34518   34517   34519   34521   34520   34522   34524   34523   34525
   34527   34526   34528   34530   34529   34531   34533   34532   34534
   34536   34535   34537   34539   34538   34540   34542   34541   34543
   34545   34544   34546   34548   34547   34549   34551   34550   34552
   34554   34553   34555   34557   34556   34558   34560   34559   34561
   34563   34562   34564   34566   34565   34567   34569   34568   34570
   34572   34571   34573   34575   34574   34576   34578   34577   34579
   34581   34580   34582   34584   34583   34585   34587   34586   34588
   34590   34589   34591   34593   34592   34594   34596   34595   34597
   34599   34598   34600   34602   34601   34603   34605   34604   34606
   34608   34607   34609   34611   34610   34612   34614   34613   34615
   34617   34616   34618   34620   34619   34621   34623   34622   34624
   34626   34625   34627   34629   34628   34630   34632   34631   34633
   34635   34634   34636   34638   34637   34639   34641   34640   34642
   34644   34643   34645   34647   34646   34648   34650   34649   34651
   34653   34652   34654   34656   34655   34657   34659   34658   34660
   34662   34661   34663   34665   34664   34666   34668   34667   34669
   34671   34670   34672   34674   34673   34675   34677   34676   34678
   34680   34679   34681   34683   34682   34684   34686   34685   34687
   34689   34688   34690   34692   34691   34693   34695   34694   34696
   34698   34697   34699   34701   34700   34702   34704   34703   34705
   34707   34706   34708   34710   34709   34711   34713   34712   34714
   34716   34715   34717   34719   34718   34720   34722   34721   34723
   34725   34724   34726   34728   34727   34729   34731   34730   34732
   34734   34733   34735   34737   34736   34738   34740   34739   34741
   34743   34742   34744   34746   34745   34747   34749   34748   34750
   34752   34751   34753   34755   34754   34756   34758   34757   34759
   34761   34760   34762   34764   34763   34765   34767   34766   34768
   34770   34769   34771   34773   34772   34774   34776   34775   34777
   34779   34778   34780   34782   34781   34783   34785   34784   34786
   34788   34787   34789   34791   34790   34792   34794   34793   34795
   34797   34796   34798   34800   34799   34801   34803   34802   34804
   34806   34805   34807   34809   34808   34810   34812   34811   34813
   34815   34814   34816   34818   34817   34819   34821   34820   34822
   34824   34823   34825   34827   34826   34828   34830   34829   34831
   34833   34832   34834   34836   34835   34837   34839   34838   34840
   34842   34841   34843   34845   34844   34846   34848   34847   34849
   34851   34850   34852   34854   34853   34855   34857   34856   34858
   34860   34859   34861   34863   34862   34864   34866   34865   34867
   34869   34868   34870   34872   34871   34873   34875   34874   34876
   34878   34877   34879   34881   34880   34882   34884   34883   34885
   34887   34886   34888   34890   34889   34891   34893   34892   34894
   34896   34895   34897   34899   34898   34900   34902   34901   34903
   34905   34904   34906   34908   34907   34909   34911   34910   34912
   34914   34913   34915   34917   34916   34918   34920   34919   34921
   34923   34922   34924   34926   34925   34927   34929   34928   34930
   34932   34931   34933   34935   34934   34936   34938   34937   34939
   34941   34940   34942   34944   34943   34945   34947   34946   34948
   34950   34949   34951   34953   34952   34954   34956   34955   34957
   34959   34958   34960   34962   34961   34963   34965   34964   34966
   34968   34967   34969   34971   34970   34972   34974   34973   34975
   34977   34976   34978   34980   34979   34981   34983   34982   34984
   34986   34985   34987   34989   34988   34990   34992   34991   34993
   34995   34994   34996   34998   34997   34999   35001   35000   35002
   35004   35003   35005   35007   35006   35008   35010   35009   35011
   35013   35012   35014   35016   35015   35017   35019   35018   35020
   35022   35021   35023   35025   35024   35026   35028   35027   35029
   35031   35030   35032   35034   35033   35035   35037   35036   35038
   35040   35039   35041   35043   35042   35044   35046   35045   35047
   35049   35048   35050   35052   35051   35053   35055   35054   35056
   35058   35057   35059   35061   35060   35062   35064   35063   35065
   35067   35066   35068   35070   35069   35071   35073   35072   35074
   35076   35075   35077   35079   35078   35080   35082   35081   35083
   35085   35084   35086   35088   35087   35089   35091   35090   35092
   35094   35093   35095   35097   35096   35098   35100   35099   35101
   35103   35102   35104   35106   35105   35107   35109   35108   35110
   35112   35111   35113   35115   35114   35116   35118   35117   35119
   35121   35120   35122   35124   35123   35125   35127   35126   35128
   35130   35129   35131   35133   35132   35134   35136   35135   35137
   35139   35138   35140   35142   35141   35143   35145   35144   35146
   35148   35147   35149   35151   35150   35152   35154   35153   35155
   35157   35156   35158   35160   35159   35161   35163   35162   35164
   35166   35165   35167   35169   35168   35170   35172   35171   35173
   35175   35174   35176   35178   35177   35179   35181   35180   35182
   35184   35183   35185   35187   35186   35188   35190   35189   35191
   35193   35192   35194   35196   35195   35197   35199   35198   35200
   35202   35201   35203   35205   35204   35206   35208   35207   35209
   35211   35210   35212   35214   35213   35215   35217   35216   35218
   35220   35219   35221   35223   35222   35224   35226   35225   35227
   35229   35228   35230   35232   35231   35233   35235   35234   35236
   35238   35237   35239   35241   35240   35242   35244   35243   35245
   35247   35246   35248   35250   35249   35251   35253   35252   35254
   35256   35255   35257   35259   35258   35260   35262   35261   35263
   35265   35264   35266   35268   35267   35269   35271   35270   35272
   35274   35273   35275   35277   35276   35278   35280   35279   35281
   35283   35282   35284   35286   35285   35287   35289   35288   35290
   35292   35291   35293   35295   35294   35296   35298   35297   35299
   35301   35300   35302   35304   35303   35305   35307   35306   35308
   35310   35309   35311   35313   35312   35314   35316   35315   35317
   35319   35318   35320   35322   35321   35323   35325   35324   35326
   35328   35327   35329   35331   35330   35332   35334   35333   35335
   35337   35336   35338   35340   35339   35341   35343   35342   35344
   35346   35345   35347   35349   35348   35350   35352   35351   35353
   35355   35354   35356   35358   35357   35359   35361   35360   35362
   35364   35363   35365   35367   35366   35368   35370   35369   35371
   35373   35372   35374   35376   35375   35377   35379   35378   35380
   35382   35381   35383   35385   35384   35386   35388   35387   35389
   35391   35390   35392   35394   35393   35395   35397   35396   35398
   35400   35399   35401   35403   35402   35404   35406   35405   35407
   35409   35408   35410   35412   35411   35413   35415   35414   35416
   35418   35417   35419   35421   35420   35422   35424   35423   35425
   35427   35426   35428   35430   35429   35431   35433   35432   35434
   35436   35435   35437   35439   35438   35440   35442   35441   35443
   35445   35444   35446   35448   35447   35449   35451   35450   35452
   35454   35453   35455   35457   35456   35458   35460   35459   35461
   35463   35462   35464   35466   35465   35467   35469   35468   35470
   35472   35471   35473   35475   35474   35476   35478   35477   35479
   35481   35480   35482   35484   35483   35485   35487   35486   35488
   35490   35489   35491   35493   35492   35494   35496   35495   35497
   35499   35498   35500   35502   35501   35503   35505   35504   35506
   35508   35507   35509   35511   35510   35512   35514   35513   35515
   35517   35516   35518   35520   35519   35521   35523   35522   35524
   35526   35525   35527   35529   35528   35530   35532   35531   35533
   35535   35534   35536   35538   35537   35539   35541   35540   35542
   35544   35543   35545   35547   35546   35548   35550   35549   35551
   35553   35552   35554   35556   35555   35557   35559   35558   35560
   35562   35561   35563   35565   35564   35566   35568   35567   35569
   35571   35570   35572   35574   35573   35575   35577   35576   35578
   35580   35579   35581   35583   35582   35584   35586   35585   35587
   35589   35588   35590   35592   35591   35593   35595   35594   35596
   35598   35597   35599   35601   35600   35602   35604   35603   35605
   35607   35606   35608   35610   35609   35611   35613   35612   35614
   35616   35615   35617   35619   35618   35620   35622   35621   35623
   35625   35624   35626   35628   35627   35629   35631   35630   35632
   35634   35633   35635   35637   35636   35638   35640   35639   35641
   35643   35642   35644   35646   35645   35647   35649   35648   35650
   35652   35651   35653   35655   35654   35656   35658   35657   35659
   35661   35660   35662   35664   35663   35665   35667   35666   35668
   35670   35669   35671   35673   35672   35674   35676   35675   35677
   35679   35678   35680   35682   35681   35683   35685   35684   35686
   35688   35687   35689   35691   35690   35692   35694   35693   35695
   35697   35696   35698   35700   35699   35701   35703   35702   35704
   35706   35705   35707   35709   35708   35710   35712   35711   35713
   35715   35714   35716   35718   35717   35719   35721   35720   35722
   35724   35723   35725   35727   35726   35728   35730   35729   35731
   35733   35732   35734   35736   35735   35737   35739   35738   35740
   35742   35741   35743   35745   35744   35746   35748   35747   35749
   35751   35750   35752   35754   35753   35755   35757   35756   35758
   35760   35759   35761   35763   35762   35764   35766   35765   35767
   35769   35768   35770   35772   35771   35773   35775   35774   35776
   35778   35777   35779   35781   35780   35782   35784   35783   35785
   35787   35786   35788   35790   35789   35791   35793   35792   35794
   35796   35795   35797   35799   35798   35800   35802   35801   35803
   35805   35804   35806   35808   35807   35809   35811   35810   35812
   35814   35813   35815   35817   35816   35818   35820   35819   35821
   35823   35822   35824   35826   35825   35827   35829   35828   35830
   35832   35831   35833   35835   35834   35836   35838   35837   35839
   35841   35840   35842   35844   35843   35845   35847   35846   35848
   35850   35849   35851   35853   35852   35854   35856   35855   35857
   35859   35858   35860   35862   35861   35863   35865   35864   35866
   35868   35867   35869   35871   35870   35872   35874   35873   35875
   35877   35876   35878   35880   35879   35881   35883   35882   35884
   35886   35885   35887   35889   35888   35890   35892   35891   35893
   35895   35894   35896   35898   35897   35899   35901   35900   35902
   35904   35903   35905   35907   35906   35908   35910   35909   35911
   35913   35912   35914   35916   35915   35917   35919   35918   35920
   35922   35921   35923   35925   35924   35926   35928   35927   35929
   35931   35930   35932   35934   35933   35935   35937   35936   35938
   35940   35939   35941   35943   35942   35944   35946   35945   35947
   35949   35948   35950   35952   35951   35953   35955   35954   35956
   35958   35957   35959   35961   35960   35962   35964   35963   35965
   35967   35966   35968   35970   35969   35971   35973   35972   35974
   35976   35975   35977   35979   35978   35980   35982   35981   35983
   35985   35984   35986   35988   35987   35989   35991   35990   35992
   35994   35993   35995   35997   35996   35998   36000   35999   36001
   36003   36002   36004   36006   36005   36007   36009   36008   36010
   36012   36011   36013   36015   36014   36016   36018   36017   36019
   36021   36020   36022   36024   36023   36025   36027   36026   36028
   36030   36029   36031   36033   36032   36034   36036   36035   36037
   36039   36038   36040   36042   36041   36043   36045   36044   36046
   36048   36047   36049   36051   36050   36052   36054   36053   36055
   36057   36056   36058   36060   36059   36061   36063   36062   36064
   36066   36065   36067   36069   36068   36070   36072   36071   36073
   36075   36074   36076   36078   36077   36079   36081   36080   36082
   36084   36083   36085   36087   36086   36088   36090   36089   36091
   36093   36092   36094   36096   36095   36097   36099   36098   36100
   36102   36101   36103   36105   36104   36106   36108   36107   36109
   36111   36110   36112   36114   36113   36115   36117   36116   36118
   36120   36119   36121   36123   36122   36124   36126   36125   36127
   36129   36128   36130   36132   36131   36133   36135   36134   36136
   36138   36137   36139   36141   36140   36142   36144   36143   36145
   36147   36146   36148   36150   36149   36151   36153   36152   36154
   36156   36155   36157   36159   36158   36160   36162   36161   36163
   36165   36164   36166   36168   36167   36169   36171   36170   36172
   36174   36173   36175   36177   36176   36178   36180   36179   36181
   36183   36182   36184   36186   36185   36187   36189   36188   36190
   36192   36191   36193   36195   36194   36196   36198   36197   36199
   36201   36200   36202   36204   36203   36205   36207   36206   36208
   36210   36209   36211   36213   36212   36214   36216   36215   36217
   36219   36218   36220   36222   36221   36223   36225   36224   36226
   36228   36227   36229   36231   36230   36232   36234   36233   36235
   36237   36236   36238   36240   36239   36241   36243   36242   36244
   36246   36245   36247   36249   36248   36250   36252   36251   36253
   36255   36254   36256   36258   36257   36259   36261   36260   36262
   36264   36263   36265   36267   36266   36268   36270   36269   36271
   36273   36272   36274   36276   36275   36277   36279   36278   36280
   36282   36281   36283   36285   36284   36286   36288   36287   36289
   36291   36290   36292   36294   36293   36295   36297   36296   36298
   36300   36299   36301   36303   36302   36304   36306   36305   36307
   36309   36308   36310   36312   36311   36313   36315   36314   36316
   36318   36317   36319   36321   36320   36322   36324   36323   36325
   36327   36326   36328   36330   36329   36331   36333   36332   36334
   36336   36335   36337   36339   36338   36340   36342   36341   36343
   36345   36344   36346   36348   36347   36349   36351   36350   36352
   36354   36353   36355   36357   36356   36358   36360   36359   36361
   36363   36362   36364   36366   36365   36367   36369   36368   36370
   36372   36371   36373   36375   36374   36376   36378   36377   36379
   36381   36380   36382   36384   36383   36385   36387   36386   36388
   36390   36389   36391   36393   36392   36394   36396   36395   36397
   36399   36398   36400   36402   36401   36403   36405   36404   36406
   36408   36407   36409   36411   36410   36412   36414   36413   36415
   36417   36416   36418   36420   36419   36421   36423   36422   36424
   36426   36425   36427   36429   36428   36430   36432   36431   36433
   36435   36434   36436   36438   36437   36439   36441   36440   36442
   36444   36443   36445   36447   36446   36448   36450   36449   36451
   36453   36452   36454   36456   36455   36457   36459   36458   36460
   36462   36461   36463   36465   36464   36466   36468   36467   36469
   36471   36470   36472   36474   36473   36475   36477   36476   36478
   36480   36479   36481   36483   36482   36484   36486   36485   36487
   36489   36488   36490   36492   36491   36493   36495   36494   36496
   36498   36497   36499   36501   36500   36502   36504   36503   36505
   36507   36506   36508   36510   36509   36511   36513   36512   36514
   36516   36515   36517   36519   36518   36520   36522   36521   36523
   36525   36524   36526   36528   36527   36529   36531   36530   36532
   36534   36533   36535   36537   36536   36538   36540   36539   36541
   36543   36542   36544   36546   36545   36547   36549   36548   36550
   36552   36551   36553   36555   36554   36556   36558   36557   36559
   36561   36560   36562   36564   36563   36565   36567   36566   36568
   36570   36569   36571   36573   36572   36574   36576   36575   36577
   36579   36578   36580   36582   36581   36583   36585   36584   36586
   36588   36587   36589   36591   36590   36592   36594   36593   36595
   36597   36596   36598   36600   36599   36601   36603   36602   36604
   36606   36605   36607   36609   36608   36610   36612   36611   36613
   36615   36614   36616   36618   36617   36619   36621   36620   36622
   36624   36623   36625   36627   36626   36628   36630   36629   36631
   36633   36632   36634   36636   36635   36637   36639   36638   36640
   36642   36641   36643   36645   36644   36646   36648   36647   36649
   36651   36650   36652   36654   36653   36655   36657   36656   36658
   36660   36659   36661   36663   36662   36664   36666   36665   36667
   36669   36668   36670   36672   36671   36673   36675   36674   36676
   36678   36677   36679   36681   36680   36682   36684   36683   36685
   36687   36686   36688   36690   36689   36691   36693   36692   36694
   36696   36695   36697   36699   36698   36700   36702   36701   36703
   36705   36704   36706   36708   36707   36709   36711   36710   36712
   36714   36713   36715   36717   36716   36718   36720   36719   36721
   36723   36722   36724   36726   36725   36727   36729   36728   36730
   36732   36731   36733   36735   36734   36736   36738   36737   36739
   36741   36740   36742   36744   36743   36745   36747   36746   36748
   36750   36749   36751   36753   36752   36754   36756   36755   36757
   36759   36758   36760   36762   36761   36763   36765   36764   36766
   36768   36767   36769   36771   36770   36772   36774   36773   36775
   36777   36776   36778   36780   36779   36781   36783   36782   36784
   36786   36785   36787   36789   36788   36790   36792   36791   36793
   36795   36794   36796   36798   36797   36799   36801   36800   36802
   36804   36803   36805   36807   36806   36808   36810   36809   36811
   36813   36812   36814   36816   36815   36817   36819   36818   36820
   36822   36821   36823   36825   36824   36826   36828   36827   36829
   36831   36830   36832   36834   36833   36835   36837   36836   36838
   36840   36839   36841   36843   36842   36844   36846   36845   36847
   36849   36848   36850   36852   36851   36853   36855   36854   36856
   36858   36857   36859   36861   36860   36862   36864   36863   36865
   36867   36866   36868   36870   36869   36871   36873   36872   36874
   36876   36875   36877   36879   36878   36880   36882   36881   36883
   36885   36884   36886   36888   36887   36889   36891   36890   36892
   36894   36893   36895   36897   36896   36898   36900   36899   36901
   36903   36902   36904   36906   36905   36907   36909   36908   36910
   36912   36911   36913   36915   36914   36916   36918   36917   36919
   36921   36920   36922   36924   36923   36925   36927   36926   36928
   36930   36929   36931   36933   36932   36934   36936   36935   36937
   36939   36938   36940   36942   36941   36943   36945   36944   36946
   36948   36947   36949   36951   36950   36952   36954   36953   36955
   36957   36956   36958   36960   36959   36961   36963   36962   36964
   36966   36965   36967   36969   36968   36970   36972   36971   36973
   36975   36974   36976   36978   36977   36979   36981   36980   36982
   36984   36983   36985   36987   36986   36988   36990   36989   36991
   36993   36992   36994   36996   36995   36997   36999   36998   37000
   37002   37001   37003   37005   37004   37006   37008   37007   37009
   37011   37010   37012   37014   37013   37015   37017   37016   37018
   37020   37019   37021   37023   37022   37024   37026   37025   37027
   37029   37028   37030   37032   37031   37033   37035   37034   37036
   37038   37037   37039   37041   37040   37042   37044   37043   37045
   37047   37046   37048   37050   37049   37051   37053   37052   37054
   37056   37055   37057   37059   37058   37060   37062   37061   37063
   37065   37064   37066   37068   37067   37069   37071   37070   37072
   37074   37073   37075   37077   37076   37078   37080   37079   37081
   37083   37082   37084   37086   37085   37087   37089   37088   37090
   37092   37091   37093   37095   37094   37096   37098   37097   37099
   37101   37100   37102   37104   37103   37105   37107   37106   37108
   37110   37109   37111   37113   37112   37114   37116   37115   37117
   37119   37118   37120   37122   37121   37123   37125   37124   37126
   37128   37127   37129   37131   37130   37132   37134   37133   37135
   37137   37136   37138   37140   37139   37141   37143   37142   37144
   37146   37145   37147   37149   37148   37150   37152   37151   37153
   37155   37154   37156   37158   37157   37159   37161   37160   37162
   37164   37163   37165   37167   37166   37168   37170   37169   37171
   37173   37172   37174   37176   37175   37177   37179   37178   37180
   37182   37181   37183   37185   37184   37186   37188   37187   37189
   37191   37190   37192   37194   37193   37195   37197   37196   37198
   37200   37199   37201   37203   37202   37204   37206   37205   37207
   37209   37208   37210   37212   37211   37213   37215   37214   37216
   37218   37217   37219   37221   37220   37222   37224   37223   37225
   37227   37226   37228   37230   37229   37231   37233   37232   37234
   37236   37235   37237   37239   37238   37240   37242   37241   37243
   37245   37244   37246   37248   37247   37249   37251   37250   37252
   37254   37253   37255   37257   37256   37258   37260   37259   37261
   37263   37262   37264   37266   37265   37267   37269   37268   37270
   37272   37271   37273   37275   37274   37276   37278   37277   37279
   37281   37280   37282   37284   37283   37285   37287   37286   37288
   37290   37289   37291   37293   37292   37294   37296   37295   37297
   37299   37298   37300   37302   37301   37303   37305   37304   37306
   37308   37307   37309   37311   37310   37312   37314   37313   37315
   37317   37316   37318   37320   37319   37321   37323   37322   37324
   37326   37325   37327   37329   37328   37330   37332   37331   37333
   37335   37334   37336   37338   37337   37339   37341   37340   37342
   37344   37343   37345   37347   37346   37348   37350   37349   37351
   37353   37352   37354   37356   37355   37357   37359   37358   37360
   37362   37361   37363   37365   37364   37366   37368   37367   37369
   37371   37370   37372   37374   37373   37375   37377   37376   37378
   37380   37379   37381   37383   37382   37384   37386   37385   37387
   37389   37388   37390   37392   37391   37393   37395   37394   37396
   37398   37397   37399   37401   37400   37402   37404   37403   37405
   37407   37406   37408   37410   37409   37411   37413   37412   37414
   37416   37415   37417   37419   37418   37420   37422   37421   37423
   37425   37424   37426   37428   37427   37429   37431   37430   37432
   37434   37433   37435   37437   37436   37438   37440   37439   37441
   37443   37442   37444   37446   37445   37447   37449   37448   37450
   37452   37451   37453   37455   37454   37456   37458   37457   37459
   37461   37460   37462   37464   37463   37465   37467   37466   37468
   37470   37469   37471   37473   37472   37474   37476   37475   37477
   37479   37478   37480   37482   37481   37483   37485   37484   37486
   37488   37487   37489   37491   37490   37492   37494   37493   37495
   37497   37496   37498   37500   37499   37501   37503   37502   37504
   37506   37505   37507   37509   37508   37510   37512   37511   37513
   37515   37514   37516   37518   37517   37519   37521   37520   37522
   37524   37523   37525   37527   37526   37528   37530   37529   37531
   37533   37532   37534   37536   37535   37537   37539   37538   37540
   37542   37541   37543   37545   37544   37546   37548   37547   37549
   37551   37550   37552   37554   37553   37555   37557   37556   37558
   37560   37559   37561   37563   37562   37564   37566   37565   37567
   37569   37568   37570   37572   37571   37573   37575   37574   37576
   37578   37577   37579   37581   37580   37582   37584   37583   37585
   37587   37586   37588   37590   37589   37591   37593   37592   37594
   37596   37595   37597   37599   37598   37600   37602   37601   37603
   37605   37604   37606   37608   37607   37609   37611   37610   37612
   37614   37613   37615   37617   37616   37618   37620   37619   37621
   37623   37622   37624   37626   37625   37627   37629   37628   37630
   37632   37631   37633   37635   37634   37636   37638   37637   37639
   37641   37640   37642   37644   37643   37645   37647   37646   37648
   37650   37649   37651   37653   37652   37654   37656   37655   37657
   37659   37658   37660   37662   37661   37663   37665   37664   37666
   37668   37667   37669   37671   37670   37672   37674   37673   37675
   37677   37676   37678   37680   37679   37681   37683   37682   37684
   37686   37685   37687   37689   37688   37690   37692   37691   37693
   37695   37694   37696   37698   37697   37699   37701   37700   37702
   37704   37703   37705   37707   37706   37708   37710   37709   37711
   37713   37712   37714   37716   37715   37717   37719   37718   37720
   37722   37721   37723   37725   37724   37726   37728   37727   37729
   37731   37730   37732   37734   37733   37735   37737   37736   37738
   37740   37739   37741   37743   37742   37744   37746   37745   37747
   37749   37748   37750   37752   37751   37753   37755   37754   37756
   37758   37757   37759   37761   37760   37762   37764   37763   37765
   37767   37766   37768   37770   37769   37771   37773   37772   37774
   37776   37775   37777   37779   37778   37780   37782   37781   37783
   37785   37784   37786   37788   37787   37789   37791   37790   37792
   37794   37793   37795   37797   37796   37798   37800   37799   37801
   37803   37802   37804   37806   37805   37807   37809   37808   37810
   37812   37811   37813   37815   37814   37816   37818   37817   37819
   37821   37820   37822   37824   37823   37825   37827   37826   37828
   37830   37829   37831   37833   37832   37834   37836   37835   37837
   37839   37838   37840   37842   37841   37843   37845   37844   37846
   37848   37847   37849   37851   37850   37852   37854   37853   37855
   37857   37856   37858   37860   37859   37861   37863   37862   37864
   37866   37865   37867   37869   37868   37870   37872   37871   37873
   37875   37874   37876   37878   37877   37879   37881   37880   37882
   37884   37883   37885   37887   37886   37888   37890   37889   37891
   37893   37892   37894   37896   37895   37897   37899   37898   37900
   37902   37901   37903   37905   37904   37906   37908   37907   37909
   37911   37910   37912   37914   37913   37915   37917   37916   37918
   37920   37919   37921   37923   37922   37924   37926   37925   37927
   37929   37928   37930   37932   37931   37933   37935   37934   37936
   37938   37937   37939   37941   37940   37942   37944   37943   37945
   37947   37946   37948   37950   37949   37951   37953   37952   37954
   37956   37955   37957   37959   37958   37960   37962   37961   37963
   37965   37964   37966   37968   37967   37969   37971   37970   37972
   37974   37973   37975   37977   37976   37978   37980   37979   37981
   37983   37982   37984   37986   37985   37987   37989   37988   37990
   37992   37991   37993   37995   37994   37996   37998   37997   37999
   38001   38000   38002   38004   38003   38005   38007   38006   38008
   38010   38009   38011   38013   38012   38014   38016   38015   38017
   38019   38018   38020   38022   38021   38023   38025   38024   38026
   38028   38027   38029   38031   38030   38032   38034   38033   38035
   38037   38036   38038   38040   38039   38041   38043   38042   38044
   38046   38045   38047   38049   38048   38050   38052   38051   38053
   38055   38054   38056   38058   38057   38059   38061   38060   38062
   38064   38063   38065   38067   38066   38068   38070   38069   38071
   38073   38072   38074   38076   38075   38077   38079   38078   38080
   38082   38081   38083   38085   38084   38086   38088   38087   38089
   38091   38090   38092   38094   38093   38095   38097   38096   38098
   38100   38099   38101   38103   38102   38104   38106   38105   38107
   38109   38108   38110   38112   38111   38113   38115   38114   38116
   38118   38117   38119   38121   38120   38122   38124   38123   38125
   38127   38126   38128   38130   38129   38131   38133   38132   38134
   38136   38135   38137   38139   38138   38140   38142   38141   38143
   38145   38144   38146   38148   38147   38149   38151   38150   38152
   38154   38153   38155   38157   38156   38158   38160   38159   38161
   38163   38162   38164   38166   38165   38167   38169   38168   38170
   38172   38171   38173   38175   38174   38176   38178   38177   38179
   38181   38180   38182   38184   38183   38185   38187   38186   38188
   38190   38189   38191   38193   38192   38194   38196   38195   38197
   38199   38198   38200   38202   38201   38203   38205   38204   38206
   38208   38207   38209   38211   38210   38212   38214   38213   38215
   38217   38216   38218   38220   38219   38221   38223   38222   38224
   38226   38225   38227   38229   38228   38230   38232   38231   38233
   38235   38234   38236   38238   38237   38239   38241   38240   38242
   38244   38243   38245   38247   38246   38248   38250   38249   38251
   38253   38252   38254   38256   38255   38257   38259   38258   38260
   38262   38261   38263   38265   38264   38266   38268   38267   38269
   38271   38270   38272   38274   38273   38275   38277   38276   38278
   38280   38279   38281   38283   38282   38284   38286   38285   38287
   38289   38288   38290   38292   38291   38293   38295   38294   38296
   38298   38297   38299   38301   38300   38302   38304   38303   38305
   38307   38306   38308   38310   38309   38311   38313   38312   38314
   38316   38315   38317   38319   38318   38320   38322   38321   38323
   38325   38324   38326   38328   38327   38329   38331   38330   38332
   38334   38333   38335   38337   38336   38338   38340   38339   38341
   38343   38342   38344   38346   38345   38347   38349   38348   38350
   38352   38351   38353   38355   38354   38356   38358   38357   38359
   38361   38360   38362   38364   38363   38365   38367   38366   38368
   38370   38369   38371   38373   38372   38374   38376   38375   38377
   38379   38378   38380   38382   38381   38383   38385   38384   38386
   38388   38387   38389   38391   38390   38392   38394   38393   38395
   38397   38396   38398   38400   38399   38401   38403   38402   38404
   38406   38405   38407   38409   38408   38410   38412   38411   38413
   38415   38414   38416   38418   38417   38419   38421   38420   38422
   38424   38423   38425   38427   38426   38428   38430   38429   38431
   38433   38432   38434   38436   38435   38437   38439   38438   38440
   38442   38441   38443   38445   38444   38446   38448   38447   38449
   38451   38450   38452   38454   38453   38455   38457   38456   38458
   38460   38459   38461   38463   38462   38464   38466   38465   38467
   38469   38468   38470   38472   38471   38473   38475   38474   38476
   38478   38477   38479   38481   38480   38482   38484   38483   38485
   38487   38486   38488   38490   38489   38491   38493   38492   38494
   38496   38495   38497   38499   38498   38500   38502   38501   38503
   38505   38504   38506   38508   38507   38509   38511   38510   38512
   38514   38513   38515   38517   38516   38518   38520   38519   38521
   38523   38522   38524   38526   38525   38527   38529   38528   38530
   38532   38531   38533   38535   38534   38536   38538   38537   38539
   38541   38540   38542   38544   38543   38545   38547   38546   38548
   38550   38549   38551   38553   38552   38554   38556   38555   38557
   38559   38558   38560   38562   38561   38563   38565   38564   38566
   38568   38567   38569   38571   38570   38572   38574   38573   38575
   38577   38576   38578   38580   38579   38581   38583   38582   38584
   38586   38585   38587   38589   38588   38590   38592   38591   38593
   38595   38594   38596   38598   38597   38599   38601   38600   38602
   38604   38603   38605   38607   38606   38608   38610   38609   38611
   38613   38612   38614   38616   38615   38617   38619   38618   38620
   38622   38621   38623   38625   38624   38626   38628   38627   38629
   38631   38630   38632   38634   38633   38635   38637   38636   38638
   38640   38639   38641   38643   38642   38644   38646   38645   38647
   38649   38648   38650   38652   38651   38653   38655   38654   38656
   38658   38657   38659   38661   38660   38662   38664   38663   38665
   38667   38666   38668   38670   38669   38671   38673   38672   38674
   38676   38675   38677   38679   38678   38680   38682   38681   38683
   38685   38684   38686   38688   38687   38689   38691   38690   38692
   38694   38693   38695   38697   38696   38698   38700   38699   38701
   38703   38702   38704   38706   38705   38707   38709   38708   38710
   38712   38711   38713   38715   38714   38716   38718   38717   38719
   38721   38720   38722   38724   38723   38725   38727   38726   38728
   38730   38729   38731   38733   38732   38734   38736   38735   38737
   38739   38738   38740   38742   38741   38743   38745   38744   38746
   38748   38747   38749   38751   38750   38752   38754   38753   38755
   38757   38756   38758   38760   38759   38761   38763   38762   38764
   38766   38765   38767   38769   38768   38770   38772   38771   38773
   38775   38774   38776   38778   38777   38779   38781   38780   38782
   38784   38783   38785   38787   38786   38788   38790   38789   38791
   38793   38792   38794   38796   38795   38797   38799   38798   38800
   38802   38801   38803   38805   38804   38806   38808   38807   38809
   38811   38810   38812   38814   38813   38815   38817   38816   38818
   38820   38819   38821   38823   38822   38824   38826   38825   38827
   38829   38828   38830   38832   38831   38833   38835   38834   38836
   38838   38837   38839   38841   38840   38842   38844   38843   38845
   38847   38846   38848   38850   38849   38851   38853   38852   38854
   38856   38855   38857   38859   38858   38860   38862   38861   38863
   38865   38864   38866   38868   38867   38869   38871   38870   38872
   38874   38873   38875   38877   38876   38878   38880   38879   38881
   38883   38882   38884   38886   38885   38887   38889   38888   38890
   38892   38891   38893   38895   38894   38896   38898   38897   38899
   38901   38900   38902   38904   38903   38905   38907   38906   38908
   38910   38909   38911   38913   38912   38914   38916   38915   38917
   38919   38918   38920   38922   38921   38923   38925   38924   38926
   38928   38927   38929   38931   38930   38932   38934   38933   38935
   38937   38936   38938   38940   38939   38941   38943   38942   38944
   38946   38945   38947   38949   38948   38950   38952   38951   38953
   38955   38954   38956   38958   38957   38959   38961   38960   38962
   38964   38963   38965   38967   38966   38968   38970   38969   38971
   38973   38972   38974   38976   38975   38977   38979   38978   38980
   38982   38981   38983   38985   38984   38986   38988   38987   38989
   38991   38990   38992   38994   38993   38995   38997   38996   38998
   39000   38999   39001   39003   39002   39004   39006   39005   39007
   39009   39008   39010   39012   39011   39013   39015   39014   39016
   39018   39017   39019   39021   39020   39022   39024   39023   39025
   39027   39026   39028   39030   39029   39031   39033   39032   39034
   39036   39035   39037   39039   39038   39040   39042   39041   39043
   39045   39044   39046   39048   39047   39049   39051   39050   39052
   39054   39053   39055   39057   39056   39058   39060   39059   39061
   39063   39062   39064   39066   39065   39067   39069   39068   39070
   39072   39071   39073   39075   39074   39076   39078   39077   39079
   39081   39080   39082   39084   39083   39085   39087   39086   39088
   39090   39089   39091   39093   39092   39094   39096   39095   39097
   39099   39098   39100   39102   39101   39103   39105   39104   39106
   39108   39107   39109   39111   39110   39112   39114   39113   39115
   39117   39116   39118   39120   39119   39121   39123   39122   39124
   39126   39125   39127   39129   39128   39130   39132   39131   39133
   39135   39134   39136   39138   39137   39139   39141   39140   39142
   39144   39143   39145   39147   39146   39148   39150   39149   39151
   39153   39152   39154   39156   39155   39157   39159   39158   39160
   39162   39161   39163   39165   39164   39166   39168   39167   39169
   39171   39170   39172   39174   39173   39175   39177   39176   39178
   39180   39179   39181   39183   39182   39184   39186   39185   39187
   39189   39188   39190   39192   39191   39193   39195   39194   39196
   39198   39197   39199   39201   39200   39202   39204   39203   39205
   39207   39206   39208   39210   39209   39211   39213   39212   39214
   39216   39215   39217   39219   39218   39220   39222   39221   39223
   39225   39224   39226   39228   39227   39229   39231   39230   39232
   39234   39233   39235   39237   39236   39238   39240   39239   39241
   39243   39242   39244   39246   39245   39247   39249   39248   39250
   39252   39251   39253   39255   39254   39256   39258   39257   39259
   39261   39260   39262   39264   39263   39265   39267   39266   39268
   39270   39269   39271   39273   39272   39274   39276   39275   39277
   39279   39278   39280   39282   39281   39283   39285   39284   39286
   39288   39287   39289   39291   39290   39292   39294   39293   39295
   39297   39296   39298   39300   39299   39301   39303   39302   39304
   39306   39305   39307   39309   39308   39310   39312   39311   39313
   39315   39314   39316   39318   39317   39319   39321   39320   39322
   39324   39323   39325   39327   39326   39328   39330   39329   39331
   39333   39332   39334   39336   39335   39337   39339   39338   39340
   39342   39341   39343   39345   39344   39346   39348   39347   39349
   39351   39350   39352   39354   39353   39355   39357   39356   39358
   39360   39359   39361   39363   39362   39364   39366   39365   39367
   39369   39368   39370   39372   39371   39373   39375   39374   39376
   39378   39377   39379   39381   39380   39382   39384   39383   39385
   39387   39386   39388   39390   39389   39391   39393   39392   39394
   39396   39395   39397   39399   39398   39400   39402   39401   39403
   39405   39404   39406   39408   39407   39409   39411   39410   39412
   39414   39413   39415   39417   39416   39418   39420   39419   39421
   39423   39422   39424   39426   39425   39427   39429   39428   39430
   39432   39431   39433   39435   39434   39436   39438   39437   39439
   39441   39440   39442   39444   39443   39445   39447   39446   39448
   39450   39449   39451   39453   39452   39454   39456   39455   39457
   39459   39458   39460   39462   39461   39463   39465   39464   39466
   39468   39467   39469   39471   39470   39472   39474   39473   39475
   39477   39476   39478   39480   39479   39481   39483   39482   39484
   39486   39485   39487   39489   39488   39490   39492   39491   39493
   39495   39494   39496   39498   39497   39499   39501   39500   39502
   39504   39503   39505   39507   39506   39508   39510   39509   39511
   39513   39512   39514   39516   39515   39517   39519   39518   39520
   39522   39521   39523   39525   39524   39526   39528   39527   39529
   39531   39530   39532   39534   39533   39535   39537   39536   39538
   39540   39539   39541   39543   39542   39544   39546   39545   39547
   39549   39548   39550   39552   39551   39553   39555   39554   39556
   39558   39557   39559   39561   39560   39562   39564   39563   39565
   39567   39566   39568   39570   39569   39571   39573   39572   39574
   39576   39575   39577   39579   39578   39580   39582   39581   39583
   39585   39584   39586   39588   39587   39589   39591   39590   39592
   39594   39593   39595   39597   39596   39598   39600   39599   39601
   39603   39602   39604   39606   39605   39607   39609   39608   39610
   39612   39611   39613   39615   39614   39616   39618   39617   39619
   39621   39620   39622   39624   39623   39625   39627   39626   39628
   39630   39629   39631   39633   39632   39634   39636   39635   39637
   39639   39638   39640   39642   39641   39643   39645   39644   39646
   39648   39647   39649   39651   39650   39652   39654   39653   39655
   39657   39656   39658   39660   39659   39661   39663   39662   39664
   39666   39665   39667   39669   39668   39670   39672   39671   39673
   39675   39674   39676   39678   39677   39679   39681   39680   39682
   39684   39683   39685   39687   39686   39688   39690   39689   39691
   39693   39692   39694   39696   39695   39697   39699   39698   39700
   39702   39701   39703   39705   39704   39706   39708   39707   39709
   39711   39710   39712   39714   39713   39715   39717   39716   39718
   39720   39719   39721   39723   39722   39724   39726   39725   39727
   39729   39728   39730   39732   39731   39733   39735   39734   39736
   39738   39737   39739   39741   39740   39742   39744   39743   39745
   39747   39746   39748   39750   39749   39751   39753   39752   39754
   39756   39755   39757   39759   39758   39760   39762   39761   39763
   39765   39764   39766   39768   39767   39769   39771   39770   39772
   39774   39773   39775   39777   39776   39778   39780   39779   39781
   39783   39782   39784   39786   39785   39787   39789   39788   39790
   39792   39791   39793   39795   39794   39796   39798   39797   39799
   39801   39800   39802   39804   39803   39805   39807   39806   39808
   39810   39809   39811   39813   39812   39814   39816   39815   39817
   39819   39818   39820   39822   39821   39823   39825   39824   39826
   39828   39827   39829   39831   39830   39832   39834   39833   39835
   39837   39836   39838   39840   39839   39841   39843   39842   39844
   39846   39845   39847   39849   39848   39850   39852   39851   39853
   39855   39854   39856   39858   39857   39859   39861   39860   39862
   39864   39863   39865   39867   39866   39868   39870   39869   39871
   39873   39872   39874   39876   39875   39877   39879   39878   39880
   39882   39881   39883   39885   39884   39886   39888   39887   39889
   39891   39890   39892   39894   39893   39895   39897   39896   39898
   39900   39899   39901   39903   39902   39904   39906   39905   39907
   39909   39908   39910   39912   39911   39913   39915   39914   39916
   39918   39917   39919   39921   39920   39922   39924   39923   39925
   39927   39926   39928   39930   39929   39931   39933   39932   39934
   39936   39935   39937   39939   39938   39940   39942   39941   39943
   39945   39944   39946   39948   39947   39949   39951   39950   39952
   39954   39953   39955   39957   39956   39958   39960   39959   39961
   39963   39962   39964   39966   39965   39967   39969   39968   39970
   39972   39971   39973   39975   39974   39976   39978   39977   39979
   39981   39980   39982   39984   39983   39985   39987   39986   39988
   39990   39989   39991   39993   39992   39994   39996   39995   39997
   39999   39998   40000   40002   40001   40003   40005   40004   40006
   40008   40007   40009   40011   40010   40012   40014   40013   40015
   40017   40016   40018   40020   40019   40021   40023   40022   40024
   40026   40025   40027   40029   40028   40030   40032   40031   40033
   40035   40034   40036   40038   40037   40039   40041   40040   40042
   40044   40043   40045   40047   40046   40048   40050   40049   40051
   40053   40052   40054   40056   40055   40057   40059   40058   40060
   40062   40061   40063   40065   40064   40066   40068   40067   40069
   40071   40070   40072   40074   40073   40075   40077   40076   40078
   40080   40079   40081   40083   40082   40084   40086   40085   40087
   40089   40088   40090   40092   40091   40093   40095   40094   40096
   40098   40097   40099   40101   40100   40102   40104   40103   40105
   40107   40106   40108   40110   40109   40111   40113   40112   40114
   40116   40115   40117   40119   40118   40120   40122   40121   40123
   40125   40124   40126   40128   40127   40129   40131   40130   40132
   40134   40133   40135   40137   40136   40138   40140   40139   40141
   40143   40142   40144   40146   40145   40147   40149   40148   40150
   40152   40151   40153   40155   40154   40156   40158   40157   40159
   40161   40160   40162   40164   40163   40165   40167   40166   40168
   40170   40169   40171   40173   40172   40174   40176   40175   40177
   40179   40178   40180   40182   40181   40183   40185   40184   40186
   40188   40187   40189   40191   40190   40192   40194   40193   40195
   40197   40196   40198   40200   40199   40201   40203   40202   40204
   40206   40205   40207   40209   40208   40210   40212   40211   40213
   40215   40214   40216   40218   40217   40219   40221   40220   40222
   40224   40223   40225   40227   40226   40228   40230   40229   40231
   40233   40232   40234   40236   40235   40237   40239   40238   40240
   40242   40241   40243   40245   40244   40246   40248   40247   40249
   40251   40250   40252   40254   40253   40255   40257   40256   40258
   40260   40259   40261   40263   40262   40264   40266   40265   40267
   40269   40268   40270   40272   40271   40273   40275   40274   40276
   40278   40277   40279   40281   40280   40282   40284   40283   40285
   40287   40286   40288   40290   40289   40291   40293   40292   40294
   40296   40295   40297   40299   40298   40300   40302   40301   40303
   40305   40304   40306   40308   40307   40309   40311   40310   40312
   40314   40313   40315   40317   40316   40318   40320   40319   40321
   40323   40322   40324   40326   40325   40327   40329   40328   40330
   40332   40331   40333   40335   40334   40336   40338   40337   40339
   40341   40340   40342   40344   40343   40345   40347   40346   40348
   40350   40349   40351   40353   40352   40354   40356   40355   40357
   40359   40358   40360   40362   40361   40363   40365   40364   40366
   40368   40367   40369   40371   40370   40372   40374   40373   40375
   40377   40376   40378   40380   40379   40381   40383   40382   40384
   40386   40385   40387   40389   40388   40390   40392   40391   40393
   40395   40394   40396   40398   40397   40399   40401   40400   40402
   40404   40403   40405   40407   40406   40408   40410   40409   40411
   40413   40412   40414   40416   40415   40417   40419   40418   40420
   40422   40421   40423   40425   40424   40426   40428   40427   40429
   40431   40430   40432   40434   40433   40435   40437   40436   40438
   40440   40439   40441   40443   40442   40444   40446   40445   40447
   40449   40448   40450   40452   40451   40453   40455   40454   40456
   40458   40457   40459   40461   40460   40462   40464   40463   40465
   40467   40466   40468   40470   40469   40471   40473   40472   40474
   40476   40475   40477   40479   40478   40480   40482   40481   40483
   40485   40484   40486   40488   40487   40489   40491   40490   40492
   40494   40493   40495   40497   40496   40498   40500   40499   40501
   40503   40502   40504   40506   40505   40507   40509   40508   40510
   40512   40511   40513   40515   40514   40516   40518   40517   40519
   40521   40520   40522   40524   40523   40525   40527   40526   40528
   40530   40529   40531   40533   40532   40534   40536   40535   40537
   40539   40538   40540   40542   40541   40543   40545   40544   40546
   40548   40547   40549   40551   40550   40552   40554   40553   40555
   40557   40556   40558   40560   40559   40561   40563   40562   40564
   40566   40565   40567   40569   40568   40570   40572   40571   40573
   40575   40574   40576   40578   40577   40579   40581   40580   40582
   40584   40583   40585   40587   40586   40588   40590   40589   40591
   40593   40592   40594   40596   40595   40597   40599   40598   40600
   40602   40601   40603   40605   40604   40606   40608   40607   40609
   40611   40610   40612   40614   40613   40615   40617   40616   40618
   40620   40619   40621   40623   40622   40624   40626   40625   40627
   40629   40628   40630   40632   40631   40633   40635   40634   40636
   40638   40637   40639   40641   40640   40642   40644   40643   40645
   40647   40646   40648   40650   40649   40651   40653   40652   40654
   40656   40655   40657   40659   40658   40660   40662   40661   40663
   40665   40664   40666   40668   40667   40669   40671   40670   40672
   40674   40673   40675   40677   40676   40678   40680   40679   40681
   40683   40682   40684   40686   40685   40687   40689   40688   40690
   40692   40691   40693   40695   40694   40696   40698   40697   40699
   40701   40700   40702   40704   40703   40705   40707   40706   40708
   40710   40709   40711   40713   40712   40714   40716   40715   40717
   40719   40718   40720   40722   40721   40723   40725   40724   40726
   40728   40727   40729   40731   40730   40732   40734   40733   40735
   40737   40736   40738   40740   40739   40741   40743   40742   40744
   40746   40745   40747   40749   40748   40750   40752   40751   40753
   40755   40754   40756   40758   40757   40759   40761   40760   40762
   40764   40763   40765   40767   40766   40768   40770   40769   40771
   40773   40772   40774   40776   40775   40777   40779   40778   40780
   40782   40781   40783   40785   40784   40786   40788   40787   40789
   40791   40790   40792   40794   40793   40795   40797   40796   40798
   40800   40799   40801   40803   40802   40804   40806   40805   40807
   40809   40808   40810   40812   40811   40813   40815   40814   40816
   40818   40817   40819   40821   40820   40822   40824   40823   40825
   40827   40826   40828   40830   40829   40831   40833   40832   40834
   40836   40835   40837   40839   40838   40840   40842   40841   40843
   40845   40844   40846   40848   40847   40849   40851   40850   40852
   40854   40853   40855   40857   40856   40858   40860   40859   40861
   40863   40862   40864   40866   40865   40867   40869   40868   40870
   40872   40871   40873   40875   40874   40876   40878   40877   40879
   40881   40880   40882   40884   40883   40885   40887   40886   40888
   40890   40889   40891   40893   40892   40894   40896   40895   40897
   40899   40898   40900   40902   40901   40903   40905   40904   40906
   40908   40907   40909   40911   40910   40912   40914   40913   40915
   40917   40916   40918   40920   40919   40921   40923   40922   40924
   40926   40925   40927   40929   40928   40930   40932   40931   40933
   40935   40934   40936   40938   40937   40939   40941   40940   40942
   40944   40943   40945   40947   40946   40948   40950   40949   40951
   40953   40952   40954   40956   40955   40957   40959   40958   40960
   40962   40961   40963   40965   40964   40966   40968   40967   40969
   40971   40970   40972   40974   40973   40975   40977   40976   40978
   40980   40979   40981   40983   40982   40984   40986   40985   40987
   40989   40988   40990   40992   40991   40993   40995   40994   40996
   40998   40997   40999   41001   41000   41002   41004   41003   41005
   41007   41006   41008   41010   41009   41011   41013   41012   41014
   41016   41015   41017   41019   41018   41020   41022   41021   41023
   41025   41024   41026   41028   41027   41029   41031   41030   41032
   41034   41033   41035   41037   41036   41038   41040   41039   41041
   41043   41042   41044   41046   41045   41047   41049   41048   41050
   41052   41051   41053   41055   41054   41056   41058   41057   41059
   41061   41060   41062   41064   41063   41065   41067   41066   41068
   41070   41069   41071   41073   41072   41074   41076   41075   41077
   41079   41078   41080   41082   41081   41083   41085   41084   41086
   41088   41087   41089   41091   41090   41092   41094   41093   41095
   41097   41096   41098   41100   41099   41101   41103   41102   41104
   41106   41105   41107   41109   41108   41110   41112   41111   41113
   41115   41114   41116   41118   41117   41119   41121   41120   41122
   41124   41123   41125   41127   41126   41128   41130   41129   41131
   41133   41132   41134   41136   41135   41137   41139   41138   41140
   41142   41141   41143   41145   41144   41146   41148   41147   41149
   41151   41150   41152   41154   41153   41155   41157   41156   41158
   41160   41159   41161   41163   41162   41164   41166   41165   41167
   41169   41168   41170   41172   41171   41173   41175   41174   41176
   41178   41177   41179   41181   41180   41182   41184   41183   41185
   41187   41186   41188   41190   41189   41191   41193   41192   41194
   41196   41195   41197   41199   41198   41200   41202   41201   41203
   41205   41204   41206   41208   41207   41209   41211   41210   41212
   41214   41213   41215   41217   41216   41218   41220   41219   41221
   41223   41222   41224   41226   41225   41227   41229   41228   41230
   41232   41231   41233   41235   41234   41236   41238   41237   41239
   41241   41240   41242   41244   41243   41245   41247   41246   41248
   41250   41249   41251   41253   41252   41254   41256   41255   41257
   41259   41258   41260   41262   41261   41263   41265   41264   41266
   41268   41267   41269   41271   41270   41272   41274   41273   41275
   41277   41276   41278   41280   41279   41281   41283   41282   41284
   41286   41285   41287   41289   41288   41290   41292   41291   41293
   41295   41294   41296   41298   41297   41299   41301   41300   41302
   41304   41303   41305   41307   41306   41308   41310   41309   41311
   41313   41312   41314   41316   41315   41317   41319   41318   41320
   41322   41321   41323   41325   41324   41326   41328   41327   41329
   41331   41330   41332   41334   41333   41335   41337   41336   41338
   41340   41339   41341   41343   41342   41344   41346   41345   41347
   41349   41348   41350   41352   41351   41353   41355   41354   41356
   41358   41357   41359   41361   41360   41362   41364   41363   41365
   41367   41366   41368   41370   41369   41371   41373   41372   41374
   41376   41375   41377   41379   41378   41380   41382   41381   41383
   41385   41384   41386   41388   41387   41389   41391   41390   41392
   41394   41393   41395   41397   41396   41398   41400   41399   41401
   41403   41402   41404   41406   41405   41407   41409   41408   41410
   41412   41411   41413   41415   41414   41416   41418   41417   41419
   41421   41420   41422   41424   41423   41425   41427   41426   41428
   41430   41429   41431   41433   41432   41434   41436   41435   41437
   41439   41438   41440   41442   41441   41443   41445   41444   41446
   41448   41447   41449   41451   41450   41452   41454   41453   41455
   41457   41456   41458   41460   41459   41461   41463   41462   41464
   41466   41465   41467   41469   41468   41470   41472   41471   41473
   41475   41474   41476   41478   41477   41479   41481   41480   41482
   41484   41483   41485   41487   41486   41488   41490   41489   41491
   41493   41492   41494   41496   41495   41497   41499   41498   41500
   41502   41501   41503   41505   41504   41506   41508   41507   41509
   41511   41510   41512   41514   41513   41515   41517   41516   41518
   41520   41519   41521   41523   41522   41524   41526   41525   41527
   41529   41528   41530   41532   41531   41533   41535   41534   41536
   41538   41537   41539   41541   41540   41542   41544   41543   41545
   41547   41546   41548   41550   41549   41551   41553   41552   41554
   41556   41555   41557   41559   41558   41560   41562   41561   41563
   41565   41564   41566   41568   41567   41569   41571   41570   41572
   41574   41573   41575   41577   41576   41578   41580   41579   41581
   41583   41582   41584   41586   41585   41587   41589   41588   41590
   41592   41591   41593   41595   41594   41596   41598   41597   41599
   41601   41600   41602   41604   41603   41605   41607   41606   41608
   41610   41609   41611   41613   41612   41614   41616   41615   41617
   41619   41618   41620   41622   41621   41623   41625   41624   41626
   41628   41627   41629   41631   41630   41632   41634   41633   41635
   41637   41636   41638   41640   41639   41641   41643   41642   41644
   41646   41645   41647   41649   41648   41650   41652   41651   41653
   41655   41654   41656   41658   41657   41659   41661   41660   41662
   41664   41663   41665   41667   41666   41668   41670   41669   41671
   41673   41672   41674   41676   41675   41677   41679   41678   41680
   41682   41681   41683   41685   41684   41686   41688   41687   41689
   41691   41690   41692   41694   41693   41695   41697   41696   41698
   41700   41699   41701   41703   41702   41704   41706   41705   41707
   41709   41708   41710   41712   41711   41713   41715   41714   41716
   41718   41717   41719   41721   41720   41722   41724   41723   41725
   41727   41726   41728   41730   41729   41731   41733   41732   41734
   41736   41735   41737   41739   41738   41740   41742   41741   41743
   41745   41744   41746   41748   41747   41749   41751   41750   41752
   41754   41753   41755   41757   41756   41758   41760   41759   41761
   41763   41762   41764   41766   41765   41767   41769   41768   41770
   41772   41771   41773   41775   41774   41776   41778   41777   41779
   41781   41780   41782   41784   41783   41785   41787   41786   41788
   41790   41789   41791   41793   41792   41794   41796   41795   41797
   41799   41798   41800   41802   41801   41803   41805   41804   41806
   41808   41807   41809   41811   41810   41812   41814   41813   41815
   41817   41816   41818   41820   41819   41821   41823   41822   41824
   41826   41825   41827   41829   41828   41830   41832   41831   41833
   41835   41834   41836   41838   41837   41839   41841   41840   41842
   41844   41843   41845   41847   41846   41848   41850   41849   41851
   41853   41852   41854   41856   41855   41857   41859   41858   41860
   41862   41861   41863   41865   41864   41866   41868   41867   41869
   41871   41870   41872   41874   41873   41875   41877   41876   41878
   41880   41879   41881   41883   41882   41884   41886   41885   41887
   41889   41888   41890   41892   41891   41893   41895   41894   41896
   41898   41897   41899   41901   41900   41902   41904   41903   41905
   41907   41906   41908   41910   41909   41911   41913   41912   41914
   41916   41915   41917   41919   41918   41920   41922   41921   41923
   41925   41924   41926   41928   41927   41929   41931   41930   41932
   41934   41933   41935   41937   41936   41938   41940   41939   41941
   41943   41942   41944   41946   41945   41947   41949   41948   41950
   41952   41951   41953   41955   41954   41956   41958   41957   41959
   41961   41960   41962   41964   41963   41965   41967   41966   41968
   41970   41969   41971   41973   41972   41974   41976   41975   41977
   41979   41978   41980   41982   41981   41983   41985   41984   41986
   41988   41987   41989   41991   41990   41992   41994   41993   41995
   41997   41996   41998   42000   41999   42001   42003   42002   42004
   42006   42005   42007   42009   42008   42010   42012   42011   42013
   42015   42014   42016   42018   42017   42019   42021   42020   42022
   42024   42023   42025   42027   42026   42028   42030   42029   42031
   42033   42032   42034   42036   42035   42037   42039   42038   42040
   42042   42041   42043   42045   42044   42046   42048   42047   42049
   42051   42050   42052   42054   42053   42055   42057   42056   42058
   42060   42059   42061   42063   42062   42064   42066   42065   42067
   42069   42068   42070   42072   42071   42073   42075   42074   42076
   42078   42077   42079   42081   42080   42082   42084   42083   42085
   42087   42086   42088   42090   42089   42091   42093   42092   42094
   42096   42095   42097   42099   42098   42100   42102   42101   42103
   42105   42104   42106   42108   42107   42109   42111   42110   42112
   42114   42113   42115   42117   42116   42118   42120   42119   42121
   42123   42122   42124   42126   42125   42127   42129   42128   42130
   42132   42131   42133   42135   42134   42136   42138   42137   42139
   42141   42140   42142   42144   42143   42145   42147   42146   42148
   42150   42149   42151   42153   42152   42154   42156   42155   42157
   42159   42158   42160   42162   42161   42163   42165   42164   42166
   42168   42167   42169   42171   42170   42172   42174   42173   42175
   42177   42176   42178   42180   42179   42181   42183   42182   42184
   42186   42185   42187   42189   42188   42190   42192   42191   42193
   42195   42194   42196   42198   42197   42199   42201   42200   42202
   42204   42203   42205   42207   42206   42208   42210   42209   42211
   42213   42212   42214   42216   42215   42217   42219   42218   42220
   42222   42221   42223   42225   42224   42226   42228   42227   42229
   42231   42230   42232   42234   42233   42235   42237   42236   42238
   42240   42239   42241   42243   42242   42244   42246   42245   42247
   42249   42248   42250   42252   42251   42253   42255   42254   42256
   42258   42257   42259   42261   42260   42262   42264   42263   42265
   42267   42266   42268   42270   42269   42271   42273   42272   42274
   42276   42275   42277   42279   42278   42280   42282   42281   42283
   42285   42284   42286   42288   42287   42289   42291   42290   42292
   42294   42293   42295   42297   42296   42298   42300   42299   42301
   42303   42302   42304   42306   42305   42307   42309   42308   42310
   42312   42311   42313   42315   42314   42316   42318   42317   42319
   42321   42320   42322   42324   42323   42325   42327   42326   42328
   42330   42329   42331   42333   42332   42334   42336   42335   42337
   42339   42338   42340   42342   42341   42343   42345   42344   42346
   42348   42347   42349   42351   42350   42352   42354   42353   42355
   42357   42356   42358   42360   42359   42361   42363   42362   42364
   42366   42365   42367   42369   42368   42370   42372   42371   42373
   42375   42374   42376   42378   42377   42379   42381   42380   42382
   42384   42383   42385   42387   42386   42388   42390   42389   42391
   42393   42392   42394   42396   42395   42397   42399   42398   42400
   42402   42401   42403   42405   42404   42406   42408   42407   42409
   42411   42410   42412   42414   42413   42415   42417   42416   42418
   42420   42419   42421   42423   42422   42424   42426   42425   42427
   42429   42428   42430   42432   42431   42433   42435   42434   42436
   42438   42437   42439   42441   42440   42442   42444   42443   42445
   42447   42446   42448   42450   42449   42451   42453   42452   42454
   42456   42455   42457   42459   42458   42460   42462   42461   42463
   42465   42464   42466   42468   42467   42469   42471   42470   42472
   42474   42473   42475   42477   42476   42478   42480   42479   42481
   42483   42482   42484   42486   42485   42487   42489   42488   42490
   42492   42491   42493   42495   42494   42496   42498   42497   42499
   42501   42500   42502   42504   42503   42505   42507   42506   42508
   42510   42509   42511   42513   42512   42514   42516   42515   42517
   42519   42518   42520   42522   42521   42523   42525   42524   42526
   42528   42527   42529   42531   42530   42532   42534   42533   42535
   42537   42536   42538   42540   42539   42541   42543   42542   42544
   42546   42545   42547   42549   42548   42550   42552   42551   42553
   42555   42554   42556   42558   42557   42559   42561   42560   42562
   42564   42563   42565   42567   42566   42568   42570   42569   42571
   42573   42572   42574   42576   42575   42577   42579   42578   42580
   42582   42581   42583   42585   42584   42586   42588   42587   42589
   42591   42590   42592   42594   42593   42595   42597   42596   42598
   42600   42599   42601   42603   42602   42604   42606   42605   42607
   42609   42608   42610   42612   42611   42613   42615   42614   42616
   42618   42617   42619   42621   42620   42622   42624   42623   42625
   42627   42626   42628   42630   42629   42631   42633   42632   42634
   42636   42635   42637   42639   42638   42640   42642   42641   42643
   42645   42644   42646   42648   42647   42649   42651   42650   42652
   42654   42653   42655   42657   42656   42658   42660   42659   42661
   42663   42662   42664   42666   42665   42667   42669   42668   42670
   42672   42671   42673   42675   42674   42676   42678   42677   42679
   42681   42680   42682   42684   42683   42685   42687   42686   42688
   42690   42689   42691   42693   42692   42694   42696   42695   42697
   42699   42698   42700   42702   42701   42703   42705   42704   42706
   42708   42707   42709   42711   42710   42712   42714   42713   42715
   42717   42716   42718   42720   42719   42721   42723   42722   42724
   42726   42725   42727   42729   42728   42730   42732   42731   42733
   42735   42734   42736   42738   42737   42739   42741   42740   42742
   42744   42743   42745   42747   42746   42748   42750   42749   42751
   42753   42752   42754   42756   42755   42757   42759   42758   42760
   42762   42761   42763   42765   42764   42766   42768   42767   42769
   42771   42770   42772   42774   42773   42775   42777   42776   42778
   42780   42779   42781   42783   42782   42784   42786   42785   42787
   42789   42788   42790   42792   42791   42793   42795   42794   42796
   42798   42797   42799   42801   42800   42802   42804   42803   42805
   42807   42806   42808   42810   42809   42811   42813   42812   42814
   42816   42815   42817   42819   42818   42820   42822   42821   42823
   42825   42824   42826   42828   42827   42829   42831   42830   42832
   42834   42833   42835   42837   42836   42838   42840   42839   42841
   42843   42842   42844   42846   42845   42847   42849   42848   42850
   42852   42851   42853   42855   42854   42856   42858   42857   42859
   42861   42860   42862   42864   42863   42865   42867   42866   42868
   42870   42869   42871   42873   42872   42874   42876   42875   42877
   42879   42878   42880   42882   42881   42883   42885   42884   42886
   42888   42887   42889   42891   42890   42892   42894   42893   42895
   42897   42896   42898   42900   42899   42901   42903   42902   42904
   42906   42905   42907   42909   42908   42910   42912   42911   42913
   42915   42914   42916   42918   42917   42919   42921   42920   42922
   42924   42923   42925   42927   42926   42928   42930   42929   42931
   42933   42932   42934   42936   42935   42937   42939   42938   42940
   42942   42941   42943   42945   42944   42946   42948   42947   42949
   42951   42950   42952   42954   42953   42955   42957   42956   42958
   42960   42959   42961   42963   42962   42964   42966   42965   42967
   42969   42968   42970   42972   42971   42973   42975   42974   42976
   42978   42977   42979   42981   42980   42982   42984   42983   42985
   42987   42986   42988   42990   42989   42991   42993   42992   42994
   42996   42995   42997   42999   42998   43000   43002   43001   43003
   43005   43004   43006   43008   43007   43009   43011   43010   43012
   43014   43013   43015   43017   43016   43018   43020   43019   43021
   43023   43022   43024   43026   43025   43027   43029   43028   43030
   43032   43031   43033   43035   43034   43036   43038   43037   43039
   43041   43040   43042   43044   43043   43045   43047   43046   43048
   43050   43049   43051   43053   43052   43054   43056   43055   43057
   43059   43058   43060   43062   43061   43063   43065   43064   43066
   43068   43067   43069   43071   43070   43072   43074   43073   43075
   43077   43076   43078   43080   43079   43081   43083   43082   43084
   43086   43085   43087   43089   43088   43090   43092   43091   43093
   43095   43094   43096   43098   43097   43099   43101   43100   43102
   43104   43103   43105   43107   43106   43108   43110   43109   43111
   43113   43112   43114   43116   43115   43117   43119   43118   43120
   43122   43121   43123   43125   43124   43126   43128   43127   43129
   43131   43130   43132   43134   43133   43135   43137   43136   43138
   43140   43139   43141   43143   43142   43144   43146   43145   43147
   43149   43148   43150   43152   43151   43153   43155   43154   43156
   43158   43157   43159   43161   43160   43162   43164   43163   43165
   43167   43166   43168   43170   43169   43171   43173   43172   43174
   43176   43175   43177   43179   43178   43180   43182   43181   43183
   43185   43184   43186   43188   43187   43189   43191   43190   43192
   43194   43193   43195   43197   43196   43198   43200   43199   43201
   43203   43202   43204   43206   43205   43207   43209   43208   43210
   43212   43211   43213   43215   43214   43216   43218   43217   43219
   43221   43220   43222   43224   43223   43225   43227   43226   43228
   43230   43229   43231   43233   43232   43234   43236   43235   43237
   43239   43238   43240   43242   43241   43243   43245   43244   43246
   43248   43247   43249   43251   43250   43252   43254   43253   43255
   43257   43256   43258   43260   43259   43261   43263   43262   43264
   43266   43265   43267   43269   43268   43270   43272   43271   43273
   43275   43274   43276   43278   43277   43279   43281   43280   43282
   43284   43283   43285   43287   43286   43288   43290   43289   43291
   43293   43292   43294   43296   43295   43297   43299   43298   43300
   43302   43301   43303   43305   43304   43306   43308   43307   43309
   43311   43310   43312   43314   43313   43315   43317   43316   43318
   43320   43319   43321   43323   43322   43324   43326   43325   43327
   43329   43328   43330   43332   43331   43333   43335   43334   43336
   43338   43337   43339   43341   43340   43342   43344   43343   43345
   43347   43346   43348   43350   43349   43351   43353   43352   43354
   43356   43355   43357   43359   43358   43360   43362   43361   43363
   43365   43364   43366   43368   43367   43369   43371   43370   43372
   43374   43373   43375   43377   43376   43378   43380   43379   43381
   43383   43382   43384   43386   43385   43387   43389   43388   43390
   43392   43391   43393   43395   43394   43396   43398   43397   43399
   43401   43400   43402   43404   43403   43405   43407   43406   43408
   43410   43409   43411   43413   43412   43414   43416   43415   43417
   43419   43418   43420   43422   43421   43423   43425   43424   43426
   43428   43427   43429   43431   43430   43432   43434   43433   43435
   43437   43436   43438   43440   43439   43441   43443   43442   43444
   43446   43445   43447   43449   43448   43450   43452   43451   43453
   43455   43454   43456   43458   43457   43459   43461   43460   43462
   43464   43463   43465   43467   43466   43468   43470   43469   43471
   43473   43472   43474   43476   43475   43477   43479   43478   43480
   43482   43481   43483   43485   43484   43486   43488   43487   43489
   43491   43490   43492   43494   43493   43495   43497   43496   43498
   43500   43499   43501   43503   43502   43504   43506   43505   43507
   43509   43508   43510   43512   43511   43513   43515   43514   43516
   43518   43517   43519   43521   43520   43522   43524   43523   43525
   43527   43526   43528   43530   43529   43531   43533   43532   43534
   43536   43535   43537   43539   43538   43540   43542   43541   43543
   43545   43544   43546   43548   43547   43549   43551   43550   43552
   43554   43553   43555   43557   43556   43558   43560   43559   43561
   43563   43562   43564   43566   43565   43567   43569   43568   43570
   43572   43571   43573   43575   43574   43576   43578   43577   43579
   43581   43580   43582   43584   43583   43585   43587   43586   43588
   43590   43589   43591   43593   43592   43594   43596   43595   43597
   43599   43598   43600   43602   43601   43603   43605   43604   43606
   43608   43607   43609   43611   43610   43612   43614   43613   43615
   43617   43616   43618   43620   43619   43621   43623   43622   43624
   43626   43625   43627   43629   43628   43630   43632   43631   43633
   43635   43634   43636   43638   43637   43639   43641   43640   43642
   43644   43643   43645   43647   43646   43648   43650   43649   43651
   43653   43652   43654   43656   43655   43657   43659   43658   43660
   43662   43661   43663   43665   43664   43666   43668   43667   43669
   43671   43670   43672   43674   43673   43675   43677   43676   43678
   43680   43679   43681   43683   43682   43684   43686   43685   43687
   43689   43688   43690   43692   43691   43693   43695   43694   43696
   43698   43697   43699   43701   43700   43702   43704   43703   43705
   43707   43706   43708   43710   43709   43711   43713   43712   43714
   43716   43715   43717   43719   43718   43720   43722   43721   43723
   43725   43724   43726   43728   43727   43729   43731   43730   43732
   43734   43733   43735   43737   43736   43738   43740   43739   43741
   43743   43742   43744   43746   43745   43747   43749   43748   43750
   43752   43751   43753   43755   43754   43756   43758   43757   43759
   43761   43760   43762   43764   43763   43765   43767   43766   43768
   43770   43769   43771   43773   43772   43774   43776   43775   43777
   43779   43778   43780   43782   43781   43783   43785   43784   43786
   43788   43787   43789   43791   43790   43792   43794   43793   43795
   43797   43796   43798   43800   43799   43801   43803   43802   43804
   43806   43805   43807   43809   43808   43810   43812   43811   43813
   43815   43814   43816   43818   43817   43819   43821   43820   43822
   43824   43823   43825   43827   43826   43828   43830   43829   43831
   43833   43832   43834   43836   43835   43837   43839   43838   43840
   43842   43841   43843   43845   43844   43846   43848   43847   43849
   43851   43850   43852   43854   43853   43855   43857   43856   43858
   43860   43859   43861   43863   43862   43864   43866   43865   43867
   43869   43868   43870   43872   43871   43873   43875   43874   43876
   43878   43877   43879   43881   43880   43882   43884   43883   43885
   43887   43886   43888   43890   43889   43891   43893   43892   43894
   43896   43895   43897   43899   43898   43900   43902   43901   43903
   43905   43904   43906   43908   43907   43909   43911   43910   43912
   43914   43913   43915   43917   43916   43918   43920   43919   43921
   43923   43922   43924   43926   43925   43927   43929   43928   43930
   43932   43931   43933   43935   43934   43936   43938   43937   43939
   43941   43940   43942   43944   43943   43945   43947   43946   43948
   43950   43949   43951   43953   43952   43954   43956   43955   43957
   43959   43958   43960   43962   43961   43963   43965   43964   43966
   43968   43967   43969   43971   43970   43972   43974   43973   43975
   43977   43976   43978   43980   43979   43981   43983   43982   43984
   43986   43985   43987   43989   43988   43990   43992   43991   43993
   43995   43994   43996   43998   43997   43999   44001   44000   44002
   44004   44003   44005   44007   44006   44008   44010   44009   44011
   44013   44012   44014   44016   44015   44017   44019   44018   44020
   44022   44021   44023   44025   44024   44026   44028   44027   44029
   44031   44030   44032   44034   44033   44035   44037   44036   44038
   44040   44039   44041   44043   44042   44044   44046   44045   44047
   44049   44048   44050   44052   44051   44053   44055   44054   44056
   44058   44057   44059   44061   44060   44062   44064   44063   44065
   44067   44066   44068   44070   44069   44071   44073   44072   44074
   44076   44075   44077   44079   44078   44080   44082   44081   44083
   44085   44084   44086   44088   44087   44089   44091   44090   44092
   44094   44093   44095   44097   44096   44098   44100   44099   44101
   44103   44102   44104   44106   44105   44107   44109   44108   44110
   44112   44111   44113   44115   44114   44116   44118   44117   44119
   44121   44120   44122   44124   44123   44125   44127   44126   44128
   44130   44129   44131   44133   44132   44134   44136   44135   44137
   44139   44138   44140   44142   44141   44143   44145   44144   44146
   44148   44147   44149   44151   44150   44152   44154   44153   44155
   44157   44156   44158   44160   44159   44161   44163   44162   44164
   44166   44165   44167   44169   44168   44170   44172   44171   44173
   44175   44174   44176   44178   44177   44179   44181   44180   44182
   44184   44183   44185   44187   44186   44188   44190   44189   44191
   44193   44192   44194   44196   44195   44197   44199   44198   44200
   44202   44201   44203   44205   44204   44206   44208   44207   44209
   44211   44210   44212   44214   44213   44215   44217   44216   44218
   44220   44219   44221   44223   44222   44224   44226   44225   44227
   44229   44228   44230   44232   44231   44233   44235   44234   44236
   44238   44237   44239   44241   44240   44242   44244   44243   44245
   44247   44246   44248   44250   44249   44251   44253   44252   44254
   44256   44255   44257   44259   44258   44260   44262   44261   44263
   44265   44264   44266   44268   44267   44269   44271   44270   44272
   44274   44273   44275   44277   44276   44278   44280   44279   44281
   44283   44282   44284   44286   44285   44287   44289   44288   44290
   44292   44291   44293   44295   44294   44296   44298   44297   44299
   44301   44300   44302   44304   44303   44305   44307   44306   44308
   44310   44309   44311   44313   44312   44314   44316   44315   44317
   44319   44318   44320   44322   44321   44323   44325   44324   44326
   44328   44327   44329   44331   44330   44332   44334   44333   44335
   44337   44336   44338   44340   44339   44341   44343   44342   44344
   44346   44345   44347   44349   44348   44350   44352   44351   44353
   44355   44354   44356   44358   44357   44359   44361   44360   44362
   44364   44363   44365   44367   44366   44368   44370   44369   44371
   44373   44372   44374   44376   44375   44377   44379   44378   44380
   44382   44381   44383   44385   44384   44386   44388   44387   44389
   44391   44390   44392   44394   44393   44395   44397   44396   44398
   44400   44399   44401   44403   44402   44404   44406   44405   44407
   44409   44408   44410   44412   44411   44413   44415   44414   44416
   44418   44417   44419   44421   44420   44422   44424   44423   44425
   44427   44426   44428   44430   44429   44431   44433   44432   44434
   44436   44435   44437   44439   44438   44440   44442   44441   44443
   44445   44444   44446   44448   44447   44449   44451   44450   44452
   44454   44453   44455   44457   44456   44458   44460   44459   44461
   44463   44462   44464   44466   44465   44467   44469   44468   44470
   44472   44471   44473   44475   44474   44476   44478   44477   44479
   44481   44480   44482   44484   44483   44485   44487   44486   44488
   44490   44489   44491   44493   44492   44494   44496   44495   44497
   44499   44498   44500   44502   44501   44503   44505   44504   44506
   44508   44507   44509   44511   44510   44512   44514   44513   44515
   44517   44516   44518   44520   44519   44521   44523   44522   44524
   44526   44525   44527   44529   44528   44530   44532   44531   44533
   44535   44534   44536   44538   44537   44539   44541   44540   44542
   44544   44543   44545   44547   44546   44548   44550   44549   44551
   44553   44552   44554   44556   44555   44557   44559   44558   44560
   44562   44561   44563   44565   44564   44566   44568   44567   44569
   44571   44570   44572   44574   44573   44575   44577   44576   44578
   44580   44579   44581   44583   44582   44584   44586   44585   44587
   44589   44588   44590   44592   44591   44593   44595   44594   44596
   44598   44597   44599   44601   44600   44602   44604   44603   44605
   44607   44606   44608   44610   44609   44611   44613   44612   44614
   44616   44615   44617   44619   44618   44620   44622   44621   44623
   44625   44624   44626   44628   44627   44629   44631   44630   44632
   44634   44633   44635   44637   44636   44638   44640   44639   44641
   44643   44642   44644   44646   44645   44647   44649   44648   44650
   44652   44651   44653   44655   44654   44656   44658   44657   44659
   44661   44660   44662   44664   44663   44665   44667   44666   44668
   44670   44669   44671   44673   44672   44674   44676   44675   44677
   44679   44678   44680   44682   44681   44683   44685   44684   44686
   44688   44687   44689   44691   44690   44692   44694   44693   44695
   44697   44696   44698   44700   44699   44701   44703   44702   44704
   44706   44705   44707   44709   44708   44710   44712   44711   44713
   44715   44714   44716   44718   44717   44719   44721   44720   44722
   44724   44723   44725   44727   44726   44728   44730   44729   44731
   44733   44732   44734   44736   44735   44737   44739   44738   44740
   44742   44741   44743   44745   44744   44746   44748   44747   44749
   44751   44750   44752   44754   44753   44755   44757   44756   44758
   44760   44759   44761   44763   44762   44764   44766   44765   44767
   44769   44768   44770   44772   44771   44773   44775   44774   44776
   44778   44777   44779   44781   44780   44782   44784   44783   44785
   44787   44786   44788   44790   44789   44791   44793   44792   44794
   44796   44795   44797   44799   44798   44800   44802   44801   44803
   44805   44804   44806   44808   44807   44809   44811   44810   44812
   44814   44813   44815   44817   44816   44818   44820   44819   44821
   44823   44822   44824   44826   44825   44827   44829   44828   44830
   44832   44831   44833   44835   44834   44836   44838   44837   44839
   44841   44840   44842   44844   44843   44845   44847   44846   44848
   44850   44849   44851   44853   44852   44854   44856   44855   44857
   44859   44858   44860   44862   44861   44863   44865   44864   44866
   44868   44867   44869   44871   44870   44872   44874   44873   44875
   44877   44876   44878   44880   44879   44881   44883   44882   44884
   44886   44885   44887   44889   44888   44890   44892   44891   44893
   44895   44894   44896   44898   44897   44899   44901   44900   44902
   44904   44903   44905   44907   44906   44908   44910   44909   44911
   44913   44912   44914   44916   44915   44917   44919   44918   44920
   44922   44921   44923   44925   44924   44926   44928   44927   44929
   44931   44930   44932   44934   44933   44935   44937   44936   44938
   44940   44939   44941   44943   44942   44944   44946   44945   44947
   44949   44948   44950   44952   44951   44953   44955   44954   44956
   44958   44957   44959   44961   44960   44962   44964   44963   44965
   44967   44966   44968   44970   44969   44971   44973   44972   44974
   44976   44975   44977   44979   44978   44980   44982   44981   44983
   44985   44984   44986   44988   44987   44989   44991   44990   44992
   44994   44993   44995   44997   44996   44998   45000   44999   45001
   45003   45002   45004   45006   45005   45007   45009   45008   45010
   45012   45011   45013   45015   45014   45016   45018   45017   45019
   45021   45020   45022   45024   45023   45025   45027   45026   45028
   45030   45029   45031   45033   45032   45034   45036   45035   45037
   45039   45038   45040   45042   45041   45043   45045   45044   45046
   45048   45047   45049   45051   45050   45052   45054   45053   45055
   45057   45056   45058   45060   45059   45061   45063   45062   45064
   45066   45065   45067   45069   45068   45070   45072   45071   45073
   45075   45074   45076   45078   45077   45079   45081   45080   45082
   45084   45083   45085   45087   45086   45088   45090   45089   45091
   45093   45092   45094   45096   45095   45097   45099   45098   45100
   45102   45101   45103   45105   45104   45106   45108   45107   45109
   45111   45110   45112   45114   45113   45115   45117   45116   45118
   45120   45119   45121   45123   45122   45124   45126   45125   45127
   45129   45128   45130   45132   45131   45133   45135   45134   45136
   45138   45137   45139   45141   45140   45142   45144   45143   45145
   45147   45146   45148   45150   45149   45151   45153   45152   45154
   45156   45155   45157   45159   45158   45160   45162   45161   45163
   45165   45164   45166   45168   45167   45169   45171   45170   45172
   45174   45173   45175   45177   45176   45178   45180   45179   45181
   45183   45182   45184   45186   45185   45187   45189   45188   45190
   45192   45191   45193   45195   45194   45196   45198   45197   45199
   45201   45200   45202   45204   45203   45205   45207   45206   45208
   45210   45209   45211   45213   45212   45214   45216   45215   45217
   45219   45218   45220   45222   45221   45223   45225   45224   45226
   45228   45227   45229   45231   45230   45232   45234   45233   45235
   45237   45236   45238   45240   45239   45241   45243   45242   45244
   45246   45245   45247   45249   45248   45250   45252   45251   45253
   45255   45254   45256   45258   45257   45259   45261   45260   45262
   45264   45263   45265   45267   45266   45268   45270   45269   45271
   45273   45272   45274   45276   45275   45277   45279   45278   45280
   45282   45281   45283   45285   45284   45286   45288   45287   45289
   45291   45290   45292   45294   45293   45295   45297   45296   45298
   45300   45299   45301   45303   45302   45304   45306   45305   45307
   45309   45308   45310   45312   45311   45313   45315   45314   45316
   45318   45317   45319   45321   45320   45322   45324   45323   45325
   45327   45326   45328   45330   45329   45331   45333   45332   45334
   45336   45335   45337   45339   45338   45340   45342   45341   45343
   45345   45344   45346   45348   45347   45349   45351   45350   45352
   45354   45353   45355   45357   45356   45358   45360   45359   45361
   45363   45362   45364   45366   45365   45367   45369   45368   45370
   45372   45371   45373   45375   45374   45376   45378   45377   45379
   45381   45380   45382   45384   45383   45385   45387   45386   45388
   45390   45389   45391   45393   45392   45394   45396   45395   45397
   45399   45398   45400   45402   45401   45403   45405   45404   45406
   45408   45407   45409   45411   45410   45412   45414   45413   45415
   45417   45416   45418   45420   45419   45421   45423   45422   45424
   45426   45425   45427   45429   45428   45430   45432   45431   45433
   45435   45434   45436   45438   45437   45439   45441   45440   45442
   45444   45443   45445   45447   45446   45448   45450   45449   45451
   45453   45452   45454   45456   45455   45457   45459   45458   45460
   45462   45461   45463   45465   45464   45466   45468   45467   45469
   45471   45470   45472   45474   45473   45475   45477   45476   45478
   45480   45479   45481   45483   45482   45484   45486   45485   45487
   45489   45488   45490   45492   45491   45493   45495   45494   45496
   45498   45497   45499   45501   45500   45502   45504   45503   45505
   45507   45506   45508   45510   45509   45511   45513   45512   45514
   45516   45515   45517   45519   45518   45520   45522   45521   45523
   45525   45524   45526   45528   45527   45529   45531   45530   45532
   45534   45533   45535   45537   45536   45538   45540   45539   45541
   45543   45542   45544   45546   45545   45547   45549   45548   45550
   45552   45551   45553   45555   45554   45556   45558   45557   45559
   45561   45560   45562   45564   45563   45565   45567   45566   45568
   45570   45569   45571   45573   45572   45574   45576   45575   45577
   45579   45578   45580   45582   45581   45583   45585   45584   45586
   45588   45587   45589   45591   45590   45592   45594   45593   45595
   45597   45596   45598   45600   45599   45601   45603   45602   45604
   45606   45605   45607   45609   45608   45610   45612   45611   45613
   45615   45614   45616   45618   45617   45619   45621   45620   45622
   45624   45623   45625   45627   45626   45628   45630   45629   45631
   45633   45632   45634   45636   45635   45637   45639   45638   45640
   45642   45641   45643   45645   45644   45646   45648   45647   45649
   45651   45650   45652   45654   45653   45655   45657   45656   45658
   45660   45659   45661   45663   45662   45664   45666   45665   45667
   45669   45668   45670   45672   45671   45673   45675   45674   45676
   45678   45677   45679   45681   45680   45682   45684   45683   45685
   45687   45686   45688   45690   45689   45691   45693   45692   45694
   45696   45695   45697   45699   45698   45700   45702   45701   45703
   45705   45704   45706   45708   45707   45709   45711   45710   45712
   45714   45713   45715   45717   45716   45718   45720   45719   45721
   45723   45722   45724   45726   45725   45727   45729   45728   45730
   45732   45731   45733   45735   45734   45736   45738   45737   45739
   45741   45740   45742   45744   45743   45745   45747   45746   45748
   45750   45749   45751   45753   45752   45754   45756   45755   45757
   45759   45758   45760   45762   45761   45763   45765   45764   45766
   45768   45767   45769   45771   45770   45772   45774   45773   45775
   45777   45776   45778   45780   45779   45781   45783   45782   45784
   45786   45785   45787   45789   45788   45790   45792   45791   45793
   45795   45794   45796   45798   45797   45799   45801   45800   45802
   45804   45803   45805   45807   45806   45808   45810   45809   45811
   45813   45812   45814   45816   45815   45817   45819   45818   45820
   45822   45821   45823   45825   45824   45826   45828   45827   45829
   45831   45830   45832   45834   45833   45835   45837   45836   45838
   45840   45839   45841   45843   45842   45844   45846   45845   45847
   45849   45848   45850   45852   45851   45853   45855   45854   45856
   45858   45857   45859   45861   45860   45862   45864   45863   45865
   45867   45866   45868   45870   45869   45871   45873   45872   45874
   45876   45875   45877   45879   45878   45880   45882   45881   45883
   45885   45884   45886   45888   45887   45889   45891   45890   45892
   45894   45893   45895   45897   45896   45898   45900   45899   45901
   45903   45902   45904   45906   45905   45907   45909   45908   45910
   45912   45911   45913   45915   45914   45916   45918   45917   45919
   45921   45920   45922   45924   45923   45925   45927   45926   45928
   45930   45929   45931   45933   45932   45934   45936   45935   45937
   45939   45938   45940   45942   45941   45943   45945   45944   45946
   45948   45947   45949   45951   45950   45952   45954   45953   45955
   45957   45956   45958   45960   45959   45961   45963   45962   45964
   45966   45965   45967   45969   45968   45970   45972   45971   45973
   45975   45974   45976   45978   45977   45979   45981   45980   45982
   45984   45983   45985   45987   45986   45988   45990   45989   45991
   45993   45992   45994   45996   45995   45997   45999   45998   46000
   46002   46001   46003   46005   46004   46006   46008   46007   46009
   46011   46010   46012   46014   46013   46015   46017   46016   46018
   46020   46019   46021   46023   46022   46024   46026   46025   46027
   46029   46028   46030   46032   46031   46033   46035   46034   46036
   46038   46037   46039   46041   46040   46042   46044   46043   46045
   46047   46046   46048   46050   46049   46051   46053   46052   46054
   46056   46055   46057   46059   46058   46060   46062   46061   46063
   46065   46064   46066   46068   46067   46069   46071   46070   46072
   46074   46073   46075   46077   46076   46078   46080   46079   46081
   46083   46082   46084   46086   46085   46087   46089   46088   46090
   46092   46091   46093   46095   46094   46096   46098   46097   46099
   46101   46100   46102   46104   46103   46105   46107   46106   46108
   46110   46109   46111   46113   46112   46114   46116   46115   46117
   46119   46118   46120   46122   46121   46123   46125   46124   46126
   46128   46127   46129   46131   46130   46132   46134   46133   46135
   46137   46136   46138   46140   46139   46141   46143   46142   46144
   46146   46145   46147   46149   46148   46150   46152   46151   46153
   46155   46154   46156   46158   46157   46159   46161   46160   46162
   46164   46163   46165   46167   46166   46168   46170   46169   46171
   46173   46172   46174   46176   46175   46177   46179   46178   46180
   46182   46181   46183   46185   46184   46186   46188   46187   46189
   46191   46190   46192   46194   46193   46195   46197   46196   46198
   46200   46199   46201   46203   46202   46204   46206   46205   46207
   46209   46208   46210   46212   46211   46213   46215   46214   46216
   46218   46217   46219   46221   46220   46222   46224   46223   46225
   46227   46226   46228   46230   46229   46231   46233   46232   46234
   46236   46235   46237   46239   46238   46240   46242   46241   46243
   46245   46244   46246   46248   46247   46249   46251   46250   46252
   46254   46253   46255   46257   46256   46258   46260   46259   46261
   46263   46262   46264   46266   46265   46267   46269   46268   46270
   46272   46271   46273   46275   46274   46276   46278   46277   46279
   46281   46280   46282   46284   46283   46285   46287   46286   46288
   46290   46289   46291   46293   46292   46294   46296   46295   46297
   46299   46298   46300   46302   46301   46303   46305   46304   46306
   46308   46307   46309   46311   46310   46312   46314   46313   46315
   46317   46316   46318   46320   46319   46321   46323   46322   46324
   46326   46325   46327   46329   46328   46330   46332   46331   46333
   46335   46334   46336   46338   46337   46339   46341   46340   46342
   46344   46343   46345   46347   46346   46348   46350   46349   46351
   46353   46352   46354   46356   46355   46357   46359   46358   46360
   46362   46361   46363   46365   46364   46366   46368   46367   46369
   46371   46370   46372   46374   46373   46375   46377   46376   46378
   46380   46379   46381   46383   46382   46384   46386   46385   46387
   46389   46388   46390   46392   46391   46393   46395   46394   46396
   46398   46397   46399   46401   46400   46402   46404   46403   46405
   46407   46406   46408   46410   46409   46411   46413   46412   46414
   46416   46415   46417   46419   46418   46420   46422   46421   46423
   46425   46424   46426   46428   46427   46429   46431   46430   46432
   46434   46433   46435   46437   46436   46438   46440   46439   46441
   46443   46442   46444   46446   46445   46447   46449   46448   46450
   46452   46451   46453   46455   46454   46456   46458   46457   46459
   46461   46460   46462   46464   46463   46465   46467   46466   46468
   46470   46469   46471   46473   46472   46474   46476   46475   46477
   46479   46478   46480   46482   46481   46483   46485   46484   46486
   46488   46487   46489   46491   46490   46492   46494   46493   46495
   46497   46496   46498   46500   46499   46501   46503   46502   46504
   46506   46505   46507   46509   46508   46510   46512   46511   46513
   46515   46514   46516   46518   46517   46519   46521   46520   46522
   46524   46523   46525   46527   46526   46528   46530   46529   46531
   46533   46532   46534   46536   46535   46537   46539   46538   46540
   46542   46541   46543   46545   46544   46546   46548   46547   46549
   46551   46550   46552   46554   46553   46555   46557   46556   46558
   46560   46559   46561   46563   46562   46564   46566   46565   46567
   46569   46568   46570   46572   46571   46573   46575   46574   46576
   46578   46577   46579   46581   46580   46582   46584   46583   46585
   46587   46586   46588   46590   46589   46591   46593   46592   46594
   46596   46595   46597   46599   46598   46600   46602   46601   46603
   46605   46604   46606   46608   46607   46609   46611   46610   46612
   46614   46613   46615   46617   46616   46618   46620   46619   46621
   46623   46622   46624   46626   46625   46627   46629   46628   46630
   46632   46631   46633   46635   46634   46636   46638   46637   46639
   46641   46640   46642   46644   46643   46645   46647   46646   46648
   46650   46649   46651   46653   46652   46654   46656   46655   46657
   46659   46658   46660   46662   46661   46663   46665   46664   46666
   46668   46667   46669   46671   46670   46672   46674   46673   46675
   46677   46676   46678   46680   46679   46681   46683   46682   46684
   46686   46685   46687   46689   46688   46690   46692   46691   46693
   46695   46694   46696   46698   46697   46699   46701   46700   46702
   46704   46703   46705   46707   46706   46708   46710   46709   46711
   46713   46712   46714   46716   46715   46717   46719   46718   46720
   46722   46721   46723   46725   46724   46726   46728   46727   46729
   46731   46730   46732   46734   46733   46735   46737   46736   46738
   46740   46739   46741   46743   46742   46744   46746   46745   46747
   46749   46748   46750   46752   46751   46753   46755   46754   46756
   46758   46757   46759   46761   46760   46762   46764   46763   46765
   46767   46766   46768   46770   46769   46771   46773   46772   46774
   46776   46775   46777   46779   46778   46780   46782   46781   46783
   46785   46784   46786   46788   46787   46789   46791   46790   46792
   46794   46793   46795   46797   46796   46798   46800   46799   46801
   46803   46802   46804   46806   46805   46807   46809   46808   46810
   46812   46811   46813   46815   46814   46816   46818   46817   46819
   46821   46820   46822   46824   46823   46825   46827   46826   46828
   46830   46829   46831   46833   46832   46834   46836   46835   46837
   46839   46838   46840   46842   46841   46843   46845   46844   46846
   46848   46847   46849   46851   46850   46852   46854   46853   46855
   46857   46856   46858   46860   46859   46861   46863   46862   46864
   46866   46865   46867   46869   46868   46870   46872   46871   46873
   46875   46874   46876   46878   46877   46879   46881   46880   46882
   46884   46883   46885   46887   46886   46888   46890   46889   46891
   46893   46892   46894   46896   46895   46897   46899   46898   46900
   46902   46901   46903   46905   46904   46906   46908   46907   46909
   46911   46910   46912   46914   46913   46915   46917   46916   46918
   46920   46919   46921   46923   46922   46924   46926   46925   46927
   46929   46928   46930   46932   46931   46933   46935   46934   46936
   46938   46937   46939   46941   46940   46942   46944   46943   46945
   46947   46946   46948   46950   46949   46951   46953   46952   46954
   46956   46955   46957   46959   46958   46960   46962   46961   46963
   46965   46964   46966   46968   46967   46969   46971   46970   46972
   46974   46973   46975   46977   46976   46978   46980   46979   46981
   46983   46982   46984   46986   46985   46987   46989   46988   46990
   46992   46991   46993   46995   46994   46996   46998   46997   46999
   47001   47000   47002   47004   47003   47005   47007   47006   47008
   47010   47009   47011   47013   47012   47014   47016   47015   47017
   47019   47018   47020   47022   47021   47023   47025   47024   47026
   47028   47027   47029   47031   47030   47032   47034   47033   47035
   47037   47036   47038   47040   47039   47041   47043   47042   47044
   47046   47045   47047   47049   47048   47050   47052   47051   47053
   47055   47054   47056   47058   47057   47059   47061   47060   47062
   47064   47063   47065   47067   47066   47068   47070   47069   47071
   47073   47072   47074   47076   47075   47077   47079   47078   47080
   47082   47081   47083   47085   47084   47086   47088   47087   47089
   47091   47090   47092   47094   47093   47095   47097   47096   47098
   47100   47099   47101   47103   47102   47104   47106   47105   47107
   47109   47108   47110   47112   47111   47113   47115   47114   47116
   47118   47117   47119   47121   47120   47122   47124   47123   47125
   47127   47126   47128   47130   47129   47131   47133   47132   47134
   47136   47135   47137   47139   47138   47140   47142   47141   47143
   47145   47144   47146   47148   47147   47149   47151   47150   47152
   47154   47153   47155   47157   47156   47158   47160   47159   47161
   47163   47162   47164   47166   47165   47167   47169   47168   47170
   47172   47171   47173   47175   47174   47176   47178   47177   47179
   47181   47180   47182   47184   47183   47185   47187   47186   47188
   47190   47189   47191   47193   47192   47194   47196   47195   47197
   47199   47198   47200   47202   47201   47203   47205   47204   47206
   47208   47207   47209   47211   47210   47212   47214   47213   47215
   47217   47216   47218   47220   47219   47221   47223   47222   47224
   47226   47225   47227   47229   47228   47230   47232   47231   47233
   47235   47234   47236   47238   47237   47239   47241   47240   47242
   47244   47243   47245   47247   47246   47248   47250   47249   47251
   47253   47252   47254   47256   47255   47257   47259   47258   47260
   47262   47261   47263   47265   47264   47266   47268   47267   47269
   47271   47270   47272   47274   47273   47275   47277   47276   47278
   47280   47279   47281   47283   47282   47284   47286   47285   47287
   47289   47288   47290   47292   47291   47293   47295   47294   47296
   47298   47297   47299   47301   47300   47302   47304   47303   47305
   47307   47306   47308   47310   47309   47311   47313   47312   47314
   47316   47315   47317   47319   47318   47320   47322   47321   47323
   47325   47324   47326   47328   47327   47329   47331   47330   47332
   47334   47333   47335   47337   47336   47338   47340   47339   47341
   47343   47342   47344   47346   47345   47347   47349   47348   47350
   47352   47351   47353   47355   47354   47356   47358   47357   47359
   47361   47360   47362   47364   47363   47365   47367   47366   47368
   47370   47369   47371   47373   47372   47374   47376   47375   47377
   47379   47378   47380   47382   47381   47383   47385   47384   47386
   47388   47387   47389   47391   47390   47392   47394   47393   47395
   47397   47396   47398   47400   47399   47401   47403   47402   47404
   47406   47405   47407   47409   47408   47410   47412   47411   47413
   47415   47414   47416   47418   47417   47419   47421   47420   47422
   47424   47423   47425   47427   47426   47428   47430   47429   47431
   47433   47432   47434   47436   47435   47437   47439   47438   47440
   47442   47441   47443   47445   47444   47446   47448   47447   47449
   47451   47450   47452   47454   47453   47455   47457   47456   47458
   47460   47459   47461   47463   47462   47464   47466   47465   47467
   47469   47468   47470   47472   47471   47473   47475   47474   47476
   47478   47477   47479   47481   47480   47482   47484   47483   47485
   47487   47486   47488   47490   47489   47491   47493   47492   47494
   47496   47495   47497   47499   47498   47500   47502   47501   47503
   47505   47504   47506   47508   47507   47509   47511   47510   47512
   47514   47513   47515   47517   47516   47518   47520   47519   47521
   47523   47522   47524   47526   47525   47527   47529   47528   47530
   47532   47531   47533   47535   47534   47536   47538   47537   47539
   47541   47540   47542   47544   47543   47545   47547   47546   47548
   47550   47549   47551   47553   47552   47554   47556   47555   47557
   47559   47558   47560   47562   47561   47563   47565   47564   47566
   47568   47567   47569   47571   47570   47572   47574   47573   47575
   47577   47576   47578   47580   47579   47581   47583   47582   47584
   47586   47585   47587   47589   47588   47590   47592   47591   47593
   47595   47594   47596   47598   47597   47599   47601   47600   47602
   47604   47603   47605   47607   47606   47608   47610   47609   47611
   47613   47612   47614   47616   47615   47617   47619   47618   47620
   47622   47621   47623   47625   47624   47626   47628   47627   47629
   47631   47630   47632   47634   47633   47635   47637   47636   47638
   47640   47639   47641   47643   47642   47644   47646   47645   47647
   47649   47648   47650   47652   47651   47653   47655   47654   47656
   47658   47657   47659   47661   47660   47662   47664   47663   47665
   47667   47666   47668   47670   47669   47671   47673   47672   47674
   47676   47675   47677   47679   47678   47680   47682   47681   47683
   47685   47684   47686   47688   47687   47689   47691   47690   47692
   47694   47693   47695   47697   47696   47698   47700   47699   47701
   47703   47702   47704   47706   47705   47707   47709   47708   47710
   47712   47711   47713   47715   47714   47716   47718   47717   47719
   47721   47720   47722   47724   47723   47725   47727   47726   47728
   47730   47729   47731   47733   47732   47734   47736   47735   47737
   47739   47738   47740   47742   47741   47743   47745   47744   47746
   47748   47747   47749   47751   47750   47752   47754   47753   47755
   47757   47756   47758   47760   47759   47761   47763   47762   47764
   47766   47765   47767   47769   47768   47770   47772   47771   47773
   47775   47774   47776   47778   47777   47779   47781   47780   47782
   47784   47783   47785   47787   47786   47788   47790   47789   47791
   47793   47792   47794   47796   47795   47797   47799   47798   47800
   47802   47801   47803   47805   47804   47806   47808   47807   47809
   47811   47810   47812   47814   47813   47815   47817   47816   47818
   47820   47819   47821   47823   47822   47824   47826   47825   47827
   47829   47828   47830   47832   47831   47833   47835   47834   47836
   47838   47837   47839   47841   47840   47842   47844   47843   47845
   47847   47846   47848   47850   47849   47851   47853   47852   47854
   47856   47855   47857   47859   47858   47860   47862   47861   47863
   47865   47864   47866   47868   47867   47869   47871   47870   47872
   47874   47873   47875   47877   47876   47878   47880   47879   47881
   47883   47882   47884   47886   47885   47887   47889   47888   47890
   47892   47891   47893   47895   47894   47896   47898   47897   47899
   47901   47900   47902   47904   47903   47905   47907   47906   47908
   47910   47909   47911   47913   47912   47914   47916   47915   47917
   47919   47918   47920   47922   47921   47923   47925   47924   47926
   47928   47927   47929   47931   47930   47932   47934   47933   47935
   47937   47936   47938   47940   47939   47941   47943   47942   47944
   47946   47945   47947   47949   47948   47950   47952   47951   47953
   47955   47954   47956   47958   47957   47959   47961   47960   47962
   47964   47963   47965   47967   47966   47968   47970   47969   47971
   47973   47972   47974   47976   47975   47977   47979   47978   47980
   47982   47981   47983   47985   47984   47986   47988   47987   47989
   47991   47990   47992   47994   47993   47995   47997   47996   47998
   48000   47999   48001   48003   48002   48004   48006   48005   48007
   48009   48008   48010   48012   48011   48013   48015   48014   48016
   48018   48017   48019   48021   48020   48022   48024   48023   48025
   48027   48026   48028   48030   48029   48031   48033   48032   48034
   48036   48035   48037   48039   48038   48040   48042   48041   48043
   48045   48044   48046   48048   48047   48049   48051   48050   48052
   48054   48053   48055   48057   48056   48058   48060   48059   48061
   48063   48062   48064   48066   48065   48067   48069   48068   48070
   48072   48071   48073   48075   48074   48076   48078   48077   48079
   48081   48080   48082   48084   48083   48085   48087   48086   48088
   48090   48089   48091   48093   48092   48094   48096   48095   48097
   48099   48098   48100   48102   48101   48103   48105   48104   48106
   48108   48107   48109   48111   48110   48112   48114   48113   48115
   48117   48116   48118   48120   48119   48121   48123   48122   48124
   48126   48125   48127   48129   48128   48130   48132   48131   48133
   48135   48134   48136   48138   48137   48139   48141   48140   48142
   48144   48143   48145   48147   48146   48148   48150   48149   48151
   48153   48152   48154   48156   48155   48157   48159   48158   48160
   48162   48161   48163   48165   48164   48166   48168   48167   48169
   48171   48170   48172   48174   48173   48175   48177   48176   48178
   48180   48179   48181   48183   48182   48184   48186   48185   48187
   48189   48188   48190   48192   48191   48193   48195   48194   48196
   48198   48197   48199   48201   48200   48202   48204   48203   48205
   48207   48206   48208   48210   48209   48211   48213   48212   48214
   48216   48215   48217   48219   48218   48220   48222   48221   48223
   48225   48224   48226   48228   48227   48229   48231   48230   48232
   48234   48233   48235   48237   48236   48238   48240   48239   48241
   48243   48242   48244   48246   48245   48247   48249   48248   48250
   48252   48251   48253   48255   48254   48256   48258   48257   48259
   48261   48260   48262   48264   48263   48265   48267   48266   48268
   48270   48269   48271   48273   48272   48274   48276   48275   48277
   48279   48278   48280   48282   48281   48283   48285   48284   48286
   48288   48287   48289   48291   48290   48292   48294   48293   48295
   48297   48296   48298   48300   48299   48301   48303   48302   48304
   48306   48305   48307   48309   48308   48310   48312   48311   48313
   48315   48314   48316   48318   48317   48319   48321   48320   48322
   48324   48323   48325   48327   48326   48328   48330   48329   48331
   48333   48332   48334   48336   48335   48337   48339   48338   48340
   48342   48341   48343   48345   48344   48346   48348   48347   48349
   48351   48350   48352   48354   48353   48355   48357   48356   48358
   48360   48359   48361   48363   48362   48364   48366   48365   48367
   48369   48368   48370   48372   48371   48373   48375   48374   48376
   48378   48377   48379   48381   48380   48382   48384   48383   48385
   48387   48386   48388   48390   48389   48391   48393   48392   48394
   48396   48395   48397   48399   48398   48400   48402   48401   48403
   48405   48404   48406   48408   48407   48409   48411   48410   48412
   48414   48413   48415   48417   48416   48418   48420   48419   48421
   48423   48422   48424   48426   48425   48427   48429   48428   48430
   48432   48431   48433   48435   48434   48436   48438   48437   48439
   48441   48440   48442   48444   48443   48445   48447   48446   48448
   48450   48449   48451   48453   48452   48454   48456   48455   48457
   48459   48458   48460   48462   48461   48463   48465   48464   48466
   48468   48467   48469   48471   48470   48472   48474   48473   48475
   48477   48476   48478   48480   48479   48481   48483   48482   48484
   48486   48485   48487   48489   48488   48490   48492   48491   48493
   48495   48494   48496   48498   48497   48499   48501   48500   48502
   48504   48503   48505   48507   48506   48508   48510   48509   48511
   48513   48512   48514   48516   48515   48517   48519   48518   48520
   48522   48521   48523   48525   48524   48526   48528   48527   48529
   48531   48530   48532   48534   48533   48535   48537   48536   48538
   48540   48539   48541   48543   48542   48544   48546   48545   48547
   48549   48548   48550   48552   48551   48553   48555   48554   48556
   48558   48557   48559   48561   48560   48562   48564   48563   48565
   48567   48566   48568   48570   48569   48571   48573   48572   48574
   48576   48575   48577   48579   48578   48580   48582   48581   48583
   48585   48584   48586   48588   48587   48589   48591   48590   48592
   48594   48593   48595   48597   48596   48598   48600   48599   48601
   48603   48602   48604   48606   48605   48607   48609   48608   48610
   48612   48611   48613   48615   48614   48616   48618   48617   48619
   48621   48620   48622   48624   48623   48625   48627   48626   48628
   48630   48629   48631   48633   48632   48634   48636   48635   48637
   48639   48638   48640   48642   48641   48643   48645   48644   48646
   48648   48647   48649   48651   48650   48652   48654   48653   48655
   48657   48656   48658   48660   48659   48661   48663   48662   48664
   48666   48665   48667   48669   48668   48670   48672   48671   48673
   48675   48674   48676   48678   48677   48679   48681   48680   48682
   48684   48683   48685   48687   48686   48688   48690   48689   48691
   48693   48692   48694   48696   48695   48697   48699   48698   48700
   48702   48701   48703   48705   48704   48706   48708   48707   48709
   48711   48710   48712   48714   48713   48715   48717   48716   48718
   48720   48719   48721   48723   48722   48724   48726   48725   48727
   48729   48728   48730   48732   48731   48733   48735   48734   48736
   48738   48737   48739   48741   48740   48742   48744   48743   48745
   48747   48746   48748   48750   48749   48751   48753   48752   48754
   48756   48755   48757   48759   48758   48760   48762   48761   48763
   48765   48764   48766   48768   48767   48769   48771   48770   48772
   48774   48773   48775   48777   48776   48778   48780   48779   48781
   48783   48782   48784   48786   48785   48787   48789   48788   48790
   48792   48791   48793   48795   48794   48796   48798   48797   48799
   48801   48800   48802   48804   48803   48805   48807   48806   48808
   48810   48809   48811   48813   48812   48814   48816   48815   48817
   48819   48818   48820   48822   48821   48823   48825   48824   48826
   48828   48827   48829   48831   48830   48832   48834   48833   48835
   48837   48836   48838   48840   48839   48841   48843   48842   48844
   48846   48845   48847   48849   48848   48850   48852   48851   48853
   48855   48854   48856   48858   48857   48859   48861   48860   48862
   48864   48863   48865   48867   48866   48868   48870   48869   48871
   48873   48872   48874   48876   48875   48877   48879   48878   48880
   48882   48881   48883   48885   48884   48886   48888   48887   48889
   48891   48890   48892   48894   48893   48895   48897   48896   48898
   48900   48899   48901   48903   48902   48904   48906   48905   48907
   48909   48908   48910   48912   48911   48913   48915   48914   48916
   48918   48917   48919   48921   48920   48922   48924   48923   48925
   48927   48926   48928   48930   48929   48931   48933   48932   48934
   48936   48935   48937   48939   48938   48940   48942   48941   48943
   48945   48944   48946   48948   48947   48949   48951   48950   48952
   48954   48953   48955   48957   48956   48958   48960   48959   48961
   48963   48962   48964   48966   48965   48967   48969   48968   48970
   48972   48971   48973   48975   48974   48976   48978   48977   48979
   48981   48980   48982   48984   48983   48985   48987   48986   48988
   48990   48989   48991   48993   48992   48994   48996   48995   48997
   48999   48998   49000   49002   49001   49003   49005   49004   49006
   49008   49007   49009   49011   49010   49012   49014   49013   49015
   49017   49016   49018   49020   49019   49021   49023   49022   49024
   49026   49025   49027   49029   49028   49030   49032   49031   49033
   49035   49034   49036   49038   49037   49039   49041   49040   49042
   49044   49043   49045   49047   49046   49048   49050   49049   49051
   49053   49052   49054   49056   49055   49057   49059   49058   49060
   49062   49061   49063   49065   49064   49066   49068   49067   49069
   49071   49070   49072   49074   49073   49075   49077   49076   49078
   49080   49079   49081   49083   49082   49084   49086   49085   49087
   49089   49088   49090   49092   49091   49093   49095   49094   49096
   49098   49097   49099   49101   49100   49102   49104   49103   49105
   49107   49106   49108   49110   49109   49111   49113   49112   49114
   49116   49115   49117   49119   49118   49120   49122   49121   49123
   49125   49124   49126   49128   49127   49129   49131   49130   49132
   49134   49133   49135   49137   49136   49138   49140   49139   49141
   49143   49142   49144   49146   49145   49147   49149   49148   49150
   49152   49151   49153   49155   49154   49156   49158   49157   49159
   49161   49160   49162   49164   49163   49165   49167   49166   49168
   49170   49169   49171   49173   49172   49174   49176   49175   49177
   49179   49178   49180   49182   49181   49183   49185   49184   49186
   49188   49187   49189   49191   49190   49192   49194   49193   49195
   49197   49196   49198   49200   49199   49201   49203   49202   49204
   49206   49205   49207   49209   49208   49210   49212   49211   49213
   49215   49214   49216   49218   49217   49219   49221   49220   49222
   49224   49223   49225   49227   49226   49228   49230   49229   49231
   49233   49232   49234   49236   49235   49237   49239   49238   49240
   49242   49241   49243   49245   49244   49246   49248   49247   49249
   49251   49250   49252   49254   49253   49255   49257   49256   49258
   49260   49259   49261   49263   49262   49264   49266   49265   49267
   49269   49268   49270   49272   49271   49273   49275   49274   49276
   49278   49277   49279   49281   49280   49282   49284   49283   49285
   49287   49286   49288   49290   49289   49291   49293   49292   49294
   49296   49295   49297   49299   49298   49300   49302   49301   49303
   49305   49304   49306   49308   49307   49309   49311   49310   49312
   49314   49313   49315   49317   49316   49318   49320   49319   49321
   49323   49322   49324   49326   49325   49327   49329   49328   49330
   49332   49331   49333   49335   49334   49336   49338   49337   49339
   49341   49340   49342   49344   49343   49345   49347   49346   49348
   49350   49349   49351   49353   49352   49354   49356   49355   49357
   49359   49358   49360   49362   49361   49363   49365   49364   49366
   49368   49367   49369   49371   49370   49372   49374   49373   49375
   49377   49376   49378   49380   49379   49381   49383   49382   49384
   49386   49385   49387   49389   49388   49390   49392   49391   49393
   49395   49394   49396   49398   49397   49399   49401   49400   49402
   49404   49403   49405   49407   49406   49408   49410   49409   49411
   49413   49412   49414   49416   49415   49417   49419   49418   49420
   49422   49421   49423   49425   49424   49426   49428   49427   49429
   49431   49430   49432   49434   49433   49435   49437   49436   49438
   49440   49439   49441   49443   49442   49444   49446   49445   49447
   49449   49448   49450   49452   49451   49453   49455   49454   49456
   49458   49457   49459   49461   49460   49462   49464   49463   49465
   49467   49466   49468   49470   49469   49471   49473   49472   49474
   49476   49475   49477   49479   49478   49480   49482   49481   49483
   49485   49484   49486   49488   49487   49489   49491   49490   49492
   49494   49493   49495   49497   49496   49498   49500   49499   49501
   49503   49502   49504   49506   49505   49507   49509   49508   49510
   49512   49511   49513   49515   49514   49516   49518   49517   49519
   49521   49520   49522   49524   49523   49525   49527   49526   49528
   49530   49529   49531   49533   49532   49534   49536   49535   49537
   49539   49538   49540   49542   49541   49543   49545   49544   49546
   49548   49547   49549   49551   49550   49552   49554   49553   49555
   49557   49556   49558   49560   49559   49561   49563   49562   49564
   49566   49565   49567   49569   49568   49570   49572   49571   49573
   49575   49574   49576   49578   49577   49579   49581   49580   49582
   49584   49583   49585   49587   49586   49588   49590   49589   49591
   49593   49592   49594   49596   49595   49597   49599   49598   49600
   49602   49601   49603   49605   49604   49606   49608   49607   49609
   49611   49610   49612   49614   49613   49615   49617   49616   49618
   49620   49619   49621   49623   49622   49624   49626   49625   49627
   49629   49628   49630   49632   49631   49633   49635   49634   49636
   49638   49637   49639   49641   49640   49642   49644   49643   49645
   49647   49646   49648   49650   49649   49651   49653   49652   49654
   49656   49655   49657   49659   49658   49660   49662   49661   49663
   49665   49664   49666   49668   49667   49669   49671   49670   49672
   49674   49673   49675   49677   49676   49678   49680   49679   49681
   49683   49682   49684   49686   49685   49687   49689   49688   49690
   49692   49691   49693   49695   49694   49696   49698   49697   49699
   49701   49700   49702   49704   49703   49705   49707   49706   49708
   49710   49709   49711   49713   49712   49714   49716   49715   49717
   49719   49718   49720   49722   49721   49723   49725   49724   49726
   49728   49727   49729   49731   49730   49732   49734   49733   49735
   49737   49736   49738   49740   49739   49741   49743   49742   49744
   49746   49745   49747   49749   49748   49750   49752   49751   49753
   49755   49754   49756   49758   49757   49759   49761   49760   49762
   49764   49763   49765   49767   49766   49768   49770   49769   49771
   49773   49772   49774   49776   49775   49777   49779   49778   49780
   49782   49781   49783   49785   49784   49786   49788   49787   49789
   49791   49790   49792   49794   49793   49795   49797   49796   49798
   49800   49799   49801   49803   49802   49804   49806   49805   49807
   49809   49808   49810   49812   49811   49813   49815   49814   49816
   49818   49817   49819   49821   49820   49822   49824   49823   49825
   49827   49826   49828   49830   49829   49831   49833   49832   49834
   49836   49835   49837   49839   49838   49840   49842   49841   49843
   49845   49844   49846   49848   49847   49849   49851   49850   49852
   49854   49853   49855   49857   49856   49858   49860   49859   49861
   49863   49862   49864   49866   49865   49867   49869   49868   49870
   49872   49871   49873   49875   49874   49876   49878   49877   49879
   49881   49880   49882   49884   49883   49885   49887   49886   49888
   49890   49889   49891   49893   49892   49894   49896   49895   49897
   49899   49898   49900   49902   49901   49903   49905   49904   49906
   49908   49907   49909   49911   49910   49912   49914   49913   49915
   49917   49916   49918   49920   49919   49921   49923   49922   49924
   49926   49925   49927   49929   49928   49930   49932   49931   49933
   49935   49934   49936   49938   49937   49939   49941   49940   49942
   49944   49943   49945   49947   49946   49948   49950   49949   49951
   49953   49952   49954   49956   49955   49957   49959   49958   49960
   49962   49961   49963   49965   49964   49966   49968   49967   49969
   49971   49970   49972   49974   49973   49975   49977   49976   49978
   49980   49979   49981   49983   49982   49984   49986   49985   49987
   49989   49988   49990   49992   49991   49993   49995   49994   49996
   49998   49997   49999   50001   50000   50002   50004   50003   50005
   50007   50006   50008   50010   50009   50011   50013   50012   50014
   50016   50015   50017   50019   50018   50020   50022   50021   50023
   50025   50024   50026   50028   50027   50029   50031   50030   50032
   50034   50033   50035   50037   50036   50038   50040   50039   50041
   50043   50042   50044   50046   50045   50047   50049   50048   50050
   50052   50051   50053   50055   50054   50056   50058   50057   50059
   50061   50060   50062   50064   50063   50065   50067   50066   50068
   50070   50069   50071   50073   50072   50074   50076   50075   50077
   50079   50078   50080   50082   50081   50083   50085   50084   50086
   50088   50087   50089   50091   50090   50092   50094   50093   50095
   50097   50096   50098   50100   50099   50101   50103   50102   50104
   50106   50105   50107   50109   50108   50110   50112   50111   50113
   50115   50114   50116   50118   50117   50119   50121   50120   50122
   50124   50123   50125   50127   50126   50128   50130   50129   50131
   50133   50132   50134   50136   50135   50137   50139   50138   50140
   50142   50141   50143   50145   50144   50146   50148   50147   50149
   50151   50150   50152   50154   50153   50155   50157   50156   50158
   50160   50159   50161   50163   50162   50164   50166   50165   50167
   50169   50168   50170   50172   50171   50173   50175   50174   50176
   50178   50177   50179   50181   50180   50182   50184   50183   50185
   50187   50186   50188   50190   50189   50191   50193   50192   50194
   50196   50195   50197   50199   50198   50200   50202   50201   50203
   50205   50204   50206   50208   50207   50209   50211   50210   50212
   50214   50213   50215   50217   50216   50218   50220   50219   50221
   50223   50222   50224   50226   50225   50227   50229   50228   50230
   50232   50231   50233   50235   50234   50236   50238   50237   50239
   50241   50240   50242   50244   50243   50245   50247   50246   50248
   50250   50249   50251   50253   50252   50254   50256   50255   50257
   50259   50258   50260   50262   50261   50263   50265   50264   50266
   50268   50267   50269   50271   50270   50272   50274   50273   50275
   50277   50276   50278   50280   50279   50281   50283   50282   50284
   50286   50285   50287   50289   50288   50290   50292   50291   50293
   50295   50294   50296   50298   50297   50299   50301   50300   50302
   50304   50303   50305   50307   50306   50308   50310   50309   50311
   50313   50312   50314   50316   50315   50317   50319   50318   50320
   50322   50321   50323   50325   50324   50326   50328   50327   50329
   50331   50330   50332   50334   50333   50335   50337   50336   50338
   50340   50339   50341   50343   50342   50344   50346   50345   50347
   50349   50348   50350   50352   50351   50353   50355   50354   50356
   50358   50357   50359   50361   50360   50362   50364   50363   50365
   50367   50366   50368   50370   50369   50371   50373   50372   50374
   50376   50375   50377   50379   50378   50380   50382   50381   50383
   50385   50384   50386   50388   50387   50389   50391   50390   50392
   50394   50393   50395   50397   50396   50398   50400   50399   50401
   50403   50402   50404   50406   50405   50407   50409   50408   50410
   50412   50411   50413   50415   50414   50416   50418   50417   50419
   50421   50420   50422   50424   50423   50425   50427   50426   50428
   50430   50429   50431   50433   50432   50434   50436   50435   50437
   50439   50438   50440   50442   50441   50443   50445   50444   50446
   50448   50447   50449   50451   50450   50452   50454   50453   50455
   50457   50456   50458   50460   50459   50461   50463   50462   50464
   50466   50465   50467   50469   50468   50470   50472   50471   50473
   50475   50474   50476   50478   50477   50479   50481   50480   50482
   50484   50483   50485   50487   50486   50488   50490   50489   50491
   50493   50492   50494   50496   50495   50497   50499   50498   50500
   50502   50501   50503   50505   50504   50506   50508   50507   50509
   50511   50510   50512   50514   50513   50515   50517   50516   50518
   50520   50519   50521   50523   50522   50524   50526   50525   50527
   50529   50528   50530   50532   50531   50533   50535   50534   50536
   50538   50537   50539   50541   50540   50542   50544   50543   50545
   50547   50546   50548   50550   50549   50551   50553   50552   50554
   50556   50555   50557   50559   50558   50560   50562   50561   50563
   50565   50564   50566   50568   50567   50569   50571   50570   50572
   50574   50573   50575   50577   50576   50578   50580   50579   50581
   50583   50582   50584   50586   50585   50587   50589   50588   50590
   50592   50591   50593   50595   50594   50596   50598   50597   50599
   50601   50600   50602   50604   50603   50605   50607   50606   50608
   50610   50609   50611   50613   50612   50614   50616   50615   50617
   50619   50618   50620   50622   50621   50623   50625   50624   50626
   50628   50627   50629   50631   50630   50632   50634   50633   50635
   50637   50636   50638   50640   50639   50641   50643   50642   50644
   50646   50645   50647   50649   50648   50650   50652   50651   50653
   50655   50654   50656   50658   50657   50659   50661   50660   50662
   50664   50663   50665   50667   50666   50668   50670   50669   50671
   50673   50672   50674   50676   50675   50677   50679   50678   50680
   50682   50681   50683   50685   50684   50686   50688   50687   50689
   50691   50690   50692   50694   50693   50695   50697   50696   50698
   50700   50699   50701   50703   50702   50704   50706   50705   50707
   50709   50708   50710   50712   50711   50713   50715   50714   50716
   50718   50717   50719   50721   50720   50722   50724   50723   50725
   50727   50726   50728   50730   50729   50731   50733   50732   50734
   50736   50735   50737   50739   50738   50740   50742   50741   50743
   50745   50744   50746   50748   50747   50749   50751   50750   50752
   50754   50753   50755   50757   50756   50758   50760   50759   50761
   50763   50762   50764   50766   50765   50767   50769   50768   50770
   50772   50771   50773   50775   50774   50776   50778   50777   50779
   50781   50780   50782   50784   50783   50785   50787   50786   50788
   50790   50789   50791   50793   50792   50794   50796   50795   50797
   50799   50798   50800   50802   50801   50803   50805   50804   50806
   50808   50807   50809   50811   50810   50812   50814   50813   50815
   50817   50816   50818   50820   50819   50821   50823   50822   50824
   50826   50825   50827   50829   50828   50830   50832   50831   50833
   50835   50834   50836   50838   50837   50839   50841   50840   50842
   50844   50843   50845   50847   50846   50848   50850   50849   50851
   50853   50852   50854   50856   50855   50857   50859   50858   50860
   50862   50861   50863   50865   50864   50866   50868   50867   50869
   50871   50870   50872   50874   50873   50875   50877   50876   50878
   50880   50879   50881   50883   50882   50884   50886   50885   50887
   50889   50888   50890   50892   50891   50893   50895   50894   50896
   50898   50897   50899   50901   50900   50902   50904   50903   50905
   50907   50906   50908   50910   50909   50911   50913   50912   50914
   50916   50915   50917   50919   50918   50920   50922   50921   50923
   50925   50924   50926   50928   50927   50929   50931   50930   50932
   50934   50933   50935   50937   50936   50938   50940   50939   50941
   50943   50942   50944   50946   50945   50947   50949   50948   50950
   50952   50951   50953   50955   50954   50956   50958   50957   50959
   50961   50960   50962   50964   50963   50965   50967   50966   50968
   50970   50969   50971   50973   50972   50974   50976   50975   50977
   50979   50978   50980   50982   50981   50983   50985   50984   50986
   50988   50987   50989   50991   50990   50992   50994   50993   50995
   50997   50996   50998   51000   50999   51001   51003   51002   51004
   51006   51005   51007   51009   51008   51010   51012   51011   51013
   51015   51014   51016   51018   51017   51019   51021   51020   51022
   51024   51023   51025   51027   51026   51028   51030   51029   51031
   51033   51032   51034   51036   51035   51037   51039   51038   51040
   51042   51041   51043   51045   51044   51046   51048   51047   51049
   51051   51050   51052   51054   51053   51055   51057   51056   51058
   51060   51059   51061   51063   51062   51064   51066   51065   51067
   51069   51068   51070   51072   51071   51073   51075   51074   51076
   51078   51077   51079   51081   51080   51082   51084   51083   51085
   51087   51086   51088   51090   51089   51091   51093   51092   51094
   51096   51095   51097   51099   51098   51100   51102   51101   51103
   51105   51104   51106   51108   51107   51109   51111   51110   51112
   51114   51113   51115   51117   51116   51118   51120   51119   51121
   51123   51122   51124   51126   51125   51127   51129   51128   51130
   51132   51131   51133   51135   51134   51136   51138   51137   51139
   51141   51140   51142   51144   51143   51145   51147   51146   51148
   51150   51149   51151   51153   51152   51154   51156   51155   51157
   51159   51158   51160   51162   51161   51163   51165   51164   51166
   51168   51167   51169   51171   51170   51172   51174   51173   51175
   51177   51176   51178   51180   51179   51181   51183   51182   51184
   51186   51185   51187   51189   51188   51190   51192   51191   51193
   51195   51194   51196   51198   51197   51199   51201   51200   51202
   51204   51203   51205   51207   51206   51208   51210   51209   51211
   51213   51212   51214   51216   51215   51217   51219   51218   51220
   51222   51221   51223   51225   51224   51226   51228   51227   51229
   51231   51230   51232   51234   51233   51235   51237   51236   51238
   51240   51239   51241   51243   51242   51244   51246   51245   51247
   51249   51248   51250   51252   51251   51253   51255   51254   51256
   51258   51257   51259   51261   51260   51262   51264   51263   51265
   51267   51266   51268   51270   51269   51271   51273   51272   51274
   51276   51275   51277   51279   51278   51280   51282   51281   51283
   51285   51284   51286   51288   51287   51289   51291   51290   51292
   51294   51293   51295   51297   51296   51298   51300   51299   51301
   51303   51302   51304   51306   51305   51307   51309   51308   51310
   51312   51311   51313   51315   51314   51316   51318   51317   51319
   51321   51320   51322   51324   51323   51325   51327   51326   51328
   51330   51329   51331   51333   51332   51334   51336   51335   51337
   51339   51338   51340   51342   51341   51343   51345   51344   51346
   51348   51347   51349   51351   51350   51352   51354   51353   51355
   51357   51356   51358   51360   51359   51361   51363   51362   51364
   51366   51365   51367   51369   51368   51370   51372   51371   51373
   51375   51374   51376   51378   51377   51379   51381   51380   51382
   51384   51383   51385   51387   51386   51388   51390   51389   51391
   51393   51392   51394   51396   51395   51397   51399   51398   51400
   51402   51401   51403   51405   51404   51406   51408   51407   51409
   51411   51410   51412   51414   51413   51415   51417   51416   51418
   51420   51419   51421   51423   51422   51424   51426   51425   51427
   51429   51428   51430   51432   51431   51433   51435   51434   51436
   51438   51437   51439   51441   51440   51442   51444   51443   51445
   51447   51446   51448   51450   51449   51451   51453   51452   51454
   51456   51455   51457   51459   51458   51460   51462   51461   51463
   51465   51464   51466   51468   51467   51469   51471   51470   51472
   51474   51473   51475   51477   51476   51478   51480   51479   51481
   51483   51482   51484   51486   51485   51487   51489   51488   51490
   51492   51491   51493   51495   51494   51496   51498   51497   51499
   51501   51500   51502   51504   51503   51505   51507   51506   51508
   51510   51509   51511   51513   51512   51514   51516   51515   51517
   51519   51518   51520   51522   51521   51523   51525   51524   51526
   51528   51527   51529   51531   51530   51532   51534   51533   51535
   51537   51536   51538   51540   51539   51541   51543   51542   51544
   51546   51545   51547   51549   51548   51550   51552   51551   51553
   51555   51554   51556   51558   51557   51559   51561   51560   51562
   51564   51563   51565   51567   51566   51568   51570   51569   51571
   51573   51572   51574   51576   51575   51577   51579   51578   51580
   51582   51581   51583   51585   51584   51586   51588   51587   51589
   51591   51590   51592   51594   51593   51595   51597   51596   51598
   51600   51599   51601   51603   51602   51604   51606   51605   51607
   51609   51608   51610   51612   51611   51613   51615   51614   51616
   51618   51617   51619   51621   51620   51622   51624   51623   51625
   51627   51626   51628   51630   51629   51631   51633   51632   51634
   51636   51635   51637   51639   51638   51640   51642   51641   51643
   51645   51644   51646   51648   51647   51649   51651   51650   51652
   51654   51653   51655   51657   51656   51658   51660   51659   51661
   51663   51662   51664   51666   51665   51667   51669   51668   51670
   51672   51671   51673   51675   51674   51676   51678   51677   51679
   51681   51680   51682   51684   51683   51685   51687   51686   51688
   51690   51689   51691   51693   51692   51694   51696   51695   51697
   51699   51698   51700   51702   51701   51703   51705   51704   51706
   51708   51707   51709   51711   51710   51712   51714   51713   51715
   51717   51716   51718   51720   51719   51721   51723   51722   51724
   51726   51725   51727   51729   51728   51730   51732   51731   51733
   51735   51734   51736   51738   51737   51739   51741   51740   51742
   51744   51743   51745   51747   51746   51748   51750   51749   51751
   51753   51752   51754   51756   51755   51757   51759   51758   51760
   51762   51761   51763   51765   51764   51766   51768   51767   51769
   51771   51770   51772   51774   51773   51775   51777   51776   51778
   51780   51779   51781   51783   51782   51784   51786   51785   51787
   51789   51788   51790   51792   51791   51793   51795   51794   51796
   51798   51797   51799   51801   51800   51802   51804   51803   51805
   51807   51806   51808   51810   51809   51811   51813   51812   51814
   51816   51815   51817   51819   51818   51820   51822   51821   51823
   51825   51824   51826   51828   51827   51829   51831   51830   51832
   51834   51833   51835   51837   51836   51838   51840   51839   51841
   51843   51842   51844   51846   51845   51847   51849   51848   51850
   51852   51851   51853   51855   51854   51856   51858   51857   51859
   51861   51860   51862   51864   51863   51865   51867   51866   51868
   51870   51869   51871   51873   51872   51874   51876   51875   51877
   51879   51878   51880   51882   51881   51883   51885   51884   51886
   51888   51887   51889   51891   51890   51892   51894   51893   51895
   51897   51896   51898   51900   51899   51901   51903   51902   51904
   51906   51905   51907   51909   51908   51910   51912   51911   51913
   51915   51914   51916   51918   51917   51919   51921   51920   51922
   51924   51923   51925   51927   51926   51928   51930   51929   51931
   51933   51932   51934   51936   51935   51937   51939   51938   51940
   51942   51941   51943   51945   51944   51946   51948   51947   51949
   51951   51950   51952   51954   51953   51955   51957   51956   51958
   51960   51959   51961   51963   51962   51964   51966   51965   51967
   51969   51968   51970   51972   51971   51973   51975   51974   51976
   51978   51977   51979   51981   51980   51982   51984   51983   51985
   51987   51986   51988   51990   51989   51991   51993   51992   51994
   51996   51995   51997   51999   51998   52000   52002   52001   52003
   52005   52004   52006   52008   52007   52009   52011   52010   52012
   52014   52013   52015   52017   52016   52018   52020   52019   52021
   52023   52022   52024   52026   52025   52027   52029   52028   52030
   52032   52031   52033   52035   52034   52036   52038   52037   52039
   52041   52040   52042   52044   52043   52045   52047   52046   52048
   52050   52049   52051   52053   52052   52054   52056   52055   52057
   52059   52058   52060   52062   52061   52063   52065   52064   52066
   52068   52067   52069   52071   52070   52072   52074   52073   52075
   52077   52076   52078   52080   52079   52081   52083   52082   52084
   52086   52085   52087   52089   52088   52090   52092   52091   52093
   52095   52094   52096   52098   52097   52099   52101   52100   52102
   52104   52103   52105   52107   52106   52108   52110   52109   52111
   52113   52112   52114   52116   52115   52117   52119   52118   52120
   52122   52121   52123   52125   52124   52126   52128   52127   52129
   52131   52130   52132   52134   52133   52135   52137   52136   52138
   52140   52139   52141   52143   52142   52144   52146   52145   52147
   52149   52148   52150   52152   52151   52153   52155   52154   52156
   52158   52157   52159   52161   52160   52162   52164   52163   52165
   52167   52166   52168   52170   52169   52171   52173   52172   52174
   52176   52175   52177   52179   52178   52180   52182   52181   52183
   52185   52184   52186   52188   52187   52189   52191   52190   52192
   52194   52193   52195   52197   52196   52198   52200   52199   52201
   52203   52202   52204   52206   52205   52207   52209   52208   52210
   52212   52211   52213   52215   52214   52216   52218   52217   52219
   52221   52220   52222   52224   52223   52225   52227   52226   52228
   52230   52229   52231   52233   52232   52234   52236   52235   52237
   52239   52238   52240   52242   52241   52243   52245   52244   52246
   52248   52247   52249   52251   52250   52252   52254   52253   52255
   52257   52256   52258   52260   52259   52261   52263   52262   52264
   52266   52265   52267   52269   52268   52270   52272   52271   52273
   52275   52274   52276   52278   52277   52279   52281   52280   52282
   52284   52283   52285   52287   52286   52288   52290   52289   52291
   52293   52292   52294   52296   52295   52297   52299   52298   52300
   52302   52301   52303   52305   52304   52306   52308   52307   52309
   52311   52310   52312   52314   52313   52315   52317   52316   52318
   52320   52319   52321   52323   52322   52324   52326   52325   52327
   52329   52328   52330   52332   52331   52333   52335   52334   52336
   52338   52337   52339   52341   52340   52342   52344   52343   52345
   52347   52346   52348   52350   52349   52351   52353   52352   52354
   52356   52355   52357   52359   52358   52360   52362   52361   52363
   52365   52364   52366   52368   52367   52369   52371   52370   52372
   52374   52373   52375   52377   52376   52378   52380   52379   52381
   52383   52382   52384   52386   52385   52387   52389   52388   52390
   52392   52391   52393   52395   52394   52396   52398   52397   52399
   52401   52400   52402   52404   52403   52405   52407   52406   52408
   52410   52409   52411   52413   52412   52414   52416   52415   52417
   52419   52418   52420   52422   52421   52423   52425   52424   52426
   52428   52427   52429   52431   52430   52432   52434   52433   52435
   52437   52436   52438   52440   52439   52441   52443   52442   52444
   52446   52445   52447   52449   52448   52450   52452   52451   52453
   52455   52454   52456   52458   52457   52459   52461   52460   52462
   52464   52463   52465   52467   52466   52468   52470   52469   52471
   52473   52472   52474   52476   52475   52477   52479   52478   52480
   52482   52481   52483   52485   52484   52486   52488   52487   52489
   52491   52490   52492   52494   52493   52495   52497   52496   52498
   52500   52499   52501   52503   52502   52504   52506   52505   52507
   52509   52508   52510   52512   52511   52513   52515   52514   52516
   52518   52517   52519   52521   52520   52522   52524   52523   52525
   52527   52526   52528   52530   52529   52531   52533   52532   52534
   52536   52535   52537   52539   52538   52540   52542   52541   52543
   52545   52544   52546   52548   52547   52549   52551   52550   52552
   52554   52553   52555   52557   52556   52558   52560   52559   52561
   52563   52562   52564   52566   52565   52567   52569   52568   52570
   52572   52571   52573   52575   52574   52576   52578   52577   52579
   52581   52580   52582   52584   52583   52585   52587   52586   52588
   52590   52589   52591   52593   52592   52594   52596   52595   52597
   52599   52598   52600   52602   52601   52603   52605   52604   52606
   52608   52607   52609   52611   52610   52612   52614   52613   52615
   52617   52616   52618   52620   52619   52621   52623   52622   52624
   52626   52625   52627   52629   52628   52630   52632   52631   52633
   52635   52634   52636   52638   52637   52639   52641   52640   52642
   52644   52643   52645   52647   52646   52648   52650   52649   52651
   52653   52652   52654   52656   52655   52657   52659   52658   52660
   52662   52661   52663   52665   52664   52666   52668   52667   52669
   52671   52670   52672   52674   52673   52675   52677   52676   52678
   52680   52679   52681   52683   52682   52684   52686   52685   52687
   52689   52688   52690   52692   52691   52693   52695   52694   52696
   52698   52697   52699   52701   52700   52702   52704   52703   52705
   52707   52706   52708   52710   52709   52711   52713   52712   52714
   52716   52715   52717   52719   52718   52720   52722   52721   52723
   52725   52724   52726   52728   52727   52729   52731   52730   52732
   52734   52733   52735   52737   52736   52738   52740   52739   52741
   52743   52742   52744   52746   52745   52747   52749   52748   52750
   52752   52751   52753   52755   52754   52756   52758   52757   52759
   52761   52760   52762   52764   52763   52765   52767   52766   52768
   52770   52769   52771   52773   52772   52774   52776   52775   52777
   52779   52778   52780   52782   52781   52783   52785   52784   52786
   52788   52787   52789   52791   52790   52792   52794   52793   52795
   52797   52796   52798   52800   52799   52801   52803   52802   52804
   52806   52805   52807   52809   52808   52810   52812   52811   52813
   52815   52814   52816   52818   52817   52819   52821   52820   52822
   52824   52823   52825   52827   52826   52828   52830   52829   52831
   52833   52832   52834   52836   52835   52837   52839   52838   52840
   52842   52841   52843   52845   52844   52846   52848   52847   52849
   52851   52850   52852   52854   52853   52855   52857   52856   52858
   52860   52859   52861   52863   52862   52864   52866   52865   52867
   52869   52868   52870   52872   52871   52873   52875   52874   52876
   52878   52877   52879   52881   52880   52882   52884   52883   52885
   52887   52886   52888   52890   52889   52891   52893   52892   52894
   52896   52895   52897   52899   52898   52900   52902   52901   52903
   52905   52904   52906   52908   52907   52909   52911   52910   52912
   52914   52913   52915   52917   52916   52918   52920   52919   52921
   52923   52922   52924   52926   52925   52927   52929   52928   52930
   52932   52931   52933   52935   52934   52936   52938   52937   52939
   52941   52940   52942   52944   52943   52945   52947   52946   52948
   52950   52949   52951   52953   52952   52954   52956   52955   52957
   52959   52958   52960   52962   52961   52963   52965   52964   52966
   52968   52967   52969   52971   52970   52972   52974   52973   52975
   52977   52976   52978   52980   52979   52981   52983   52982   52984
   52986   52985   52987   52989   52988   52990   52992   52991   52993
   52995   52994   52996   52998   52997   52999   53001   53000   53002
   53004   53003   53005   53007   53006   53008   53010   53009   53011
   53013   53012   53014   53016   53015   53017   53019   53018   53020
   53022   53021   53023   53025   53024   53026   53028   53027   53029
   53031   53030   53032   53034   53033   53035   53037   53036   53038
   53040   53039   53041   53043   53042   53044   53046   53045   53047
   53049   53048   53050   53052   53051   53053   53055   53054   53056
   53058   53057   53059   53061   53060   53062   53064   53063   53065
   53067   53066   53068   53070   53069   53071   53073   53072   53074
   53076   53075   53077   53079   53078   53080   53082   53081   53083
   53085   53084   53086   53088   53087   53089   53091   53090   53092
   53094   53093   53095   53097   53096   53098   53100   53099   53101
   53103   53102   53104   53106   53105   53107   53109   53108   53110
   53112   53111   53113   53115   53114   53116   53118   53117   53119
   53121   53120   53122   53124   53123   53125   53127   53126   53128
   53130   53129   53131   53133   53132   53134   53136   53135   53137
   53139   53138   53140   53142   53141   53143   53145   53144   53146
   53148   53147   53149   53151   53150   53152   53154   53153   53155
   53157   53156   53158   53160   53159   53161   53163   53162   53164
   53166   53165   53167   53169   53168   53170   53172   53171   53173
   53175   53174   53176   53178   53177   53179   53181   53180   53182
   53184   53183   53185   53187   53186   53188   53190   53189   53191
   53193   53192   53194   53196   53195   53197   53199   53198   53200
   53202   53201   53203   53205   53204   53206   53208   53207   53209
   53211   53210   53212   53214   53213   53215   53217   53216   53218
   53220   53219   53221   53223   53222   53224   53226   53225   53227
   53229   53228   53230   53232   53231   53233   53235   53234   53236
   53238   53237   53239   53241   53240   53242   53244   53243   53245
   53247   53246   53248   53250   53249   53251   53253   53252   53254
   53256   53255   53257   53259   53258   53260   53262   53261   53263
   53265   53264   53266   53268   53267   53269   53271   53270   53272
   53274   53273   53275   53277   53276   53278   53280   53279   53281
   53283   53282   53284   53286   53285   53287   53289   53288   53290
   53292   53291   53293   53295   53294   53296   53298   53297   53299
   53301   53300   53302   53304   53303   53305   53307   53306   53308
   53310   53309   53311   53313   53312   53314   53316   53315   53317
   53319   53318   53320   53322   53321   53323   53325   53324   53326
   53328   53327   53329   53331   53330   53332   53334   53333   53335
   53337   53336   53338   53340   53339   53341   53343   53342   53344
   53346   53345   53347   53349   53348   53350   53352   53351   53353
   53355   53354   53356   53358   53357   53359   53361   53360   53362
   53364   53363   53365   53367   53366   53368   53370   53369   53371
   53373   53372   53374   53376   53375   53377   53379   53378   53380
   53382   53381   53383   53385   53384   53386   53388   53387   53389
   53391   53390   53392   53394   53393   53395   53397   53396   53398
   53400   53399   53401   53403   53402   53404   53406   53405   53407
   53409   53408   53410   53412   53411   53413   53415   53414   53416
   53418   53417   53419   53421   53420   53422   53424   53423   53425
   53427   53426   53428   53430   53429   53431   53433   53432   53434
   53436   53435   53437   53439   53438   53440   53442   53441   53443
   53445   53444   53446   53448   53447   53449   53451   53450   53452
   53454   53453   53455   53457   53456   53458   53460   53459   53461
   53463   53462   53464   53466   53465   53467   53469   53468   53470
   53472   53471   53473   53475   53474   53476   53478   53477   53479
   53481   53480   53482   53484   53483   53485   53487   53486   53488
   53490   53489   53491   53493   53492   53494   53496   53495   53497
   53499   53498   53500   53502   53501   53503   53505   53504   53506
   53508   53507   53509   53511   53510   53512   53514   53513   53515
   53517   53516   53518   53520   53519   53521   53523   53522   53524
   53526   53525   53527   53529   53528   53530   53532   53531   53533
   53535   53534   53536   53538   53537   53539   53541   53540   53542
   53544   53543   53545   53547   53546   53548   53550   53549   53551
   53553   53552   53554   53556   53555   53557   53559   53558   53560
   53562   53561   53563   53565   53564   53566   53568   53567   53569
   53571   53570   53572   53574   53573   53575   53577   53576   53578
   53580   53579   53581   53583   53582   53584   53586   53585   53587
   53589   53588   53590   53592   53591   53593   53595   53594   53596
   53598   53597   53599   53601   53600   53602   53604   53603   53605
   53607   53606   53608   53610   53609   53611   53613   53612   53614
   53616   53615   53617   53619   53618   53620   53622   53621   53623
   53625   53624   53626   53628   53627   53629   53631   53630   53632
   53634   53633   53635   53637   53636   53638   53640   53639   53641
   53643   53642   53644   53646   53645   53647   53649   53648   53650
   53652   53651   53653   53655   53654   53656   53658   53657   53659
   53661   53660   53662   53664   53663   53665   53667   53666   53668
   53670   53669   53671   53673   53672   53674   53676   53675   53677
   53679   53678   53680   53682   53681   53683   53685   53684   53686
   53688   53687   53689   53691   53690   53692   53694   53693   53695
   53697   53696   53698   53700   53699   53701   53703   53702   53704
   53706   53705   53707   53709   53708   53710   53712   53711   53713
   53715   53714   53716   53718   53717   53719   53721   53720   53722
   53724   53723   53725   53727   53726   53728   53730   53729   53731
   53733   53732   53734   53736   53735   53737   53739   53738   53740
   53742   53741   53743   53745   53744   53746   53748   53747   53749
   53751   53750   53752   53754   53753   53755   53757   53756   53758
   53760   53759   53761   53763   53762   53764   53766   53765   53767
   53769   53768   53770   53772   53771   53773   53775   53774   53776
   53778   53777   53779   53781   53780   53782   53784   53783   53785
   53787   53786   53788   53790   53789   53791   53793   53792   53794
   53796   53795   53797   53799   53798   53800   53802   53801   53803
   53805   53804   53806   53808   53807   53809   53811   53810   53812
   53814   53813   53815   53817   53816   53818   53820   53819   53821
   53823   53822   53824   53826   53825   53827   53829   53828   53830
   53832   53831   53833   53835   53834   53836   53838   53837   53839
   53841   53840   53842   53844   53843   53845   53847   53846   53848
   53850   53849   53851   53853   53852   53854   53856   53855   53857
   53859   53858   53860   53862   53861   53863   53865   53864   53866
   53868   53867   53869   53871   53870   53872   53874   53873   53875
   53877   53876   53878   53880   53879   53881   53883   53882   53884
   53886   53885   53887   53889   53888   53890   53892   53891   53893
   53895   53894   53896   53898   53897   53899   53901   53900   53902
   53904   53903   53905   53907   53906   53908   53910   53909   53911
   53913   53912   53914   53916   53915   53917   53919   53918   53920
   53922   53921   53923   53925   53924   53926   53928   53927   53929
   53931   53930   53932   53934   53933   53935   53937   53936   53938
   53940   53939   53941   53943   53942   53944   53946   53945   53947
   53949   53948   53950   53952   53951   53953   53955   53954   53956
   53958   53957   53959   53961   53960   53962   53964   53963   53965
   53967   53966   53968   53970   53969   53971   53973   53972   53974
   53976   53975   53977   53979   53978   53980   53982   53981   53983
   53985   53984   53986   53988   53987   53989   53991   53990   53992
   53994   53993   53995   53997   53996   53998   54000   53999   54001
   54003   54002   54004   54006   54005   54007   54009   54008   54010
   54012   54011   54013   54015   54014   54016   54018   54017   54019
   54021   54020   54022   54024   54023   54025   54027   54026   54028
   54030   54029   54031   54033   54032   54034   54036   54035   54037
   54039   54038   54040   54042   54041   54043   54045   54044   54046
   54048   54047   54049   54051   54050   54052   54054   54053   54055
   54057   54056   54058   54060   54059   54061   54063   54062   54064
   54066   54065   54067   54069   54068   54070   54072   54071   54073
   54075   54074   54076   54078   54077   54079   54081   54080   54082
   54084   54083   54085   54087   54086   54088   54090   54089   54091
   54093   54092   54094   54096   54095   54097   54099   54098   54100
   54102   54101   54103   54105   54104   54106   54108   54107   54109
   54111   54110   54112   54114   54113   54115   54117   54116   54118
   54120   54119   54121   54123   54122   54124   54126   54125   54127
   54129   54128   54130   54132   54131   54133   54135   54134   54136
   54138   54137   54139   54141   54140   54142   54144   54143   54145
   54147   54146   54148   54150   54149   54151   54153   54152   54154
   54156   54155   54157   54159   54158   54160   54162   54161   54163
   54165   54164   54166   54168   54167   54169   54171   54170   54172
   54174   54173   54175   54177   54176   54178   54180   54179   54181
   54183   54182   54184   54186   54185   54187   54189   54188   54190
   54192   54191   54193   54195   54194   54196   54198   54197   54199
   54201   54200   54202   54204   54203   54205   54207   54206   54208
   54210   54209   54211   54213   54212   54214   54216   54215   54217
   54219   54218   54220   54222   54221   54223   54225   54224   54226
   54228   54227   54229   54231   54230   54232   54234   54233   54235
   54237   54236   54238   54240   54239   54241   54243   54242   54244
   54246   54245   54247   54249   54248   54250   54252   54251   54253
   54255   54254   54256   54258   54257   54259   54261   54260   54262
   54264   54263   54265   54267   54266   54268   54270   54269   54271
   54273   54272   54274   54276   54275   54277   54279   54278   54280
   54282   54281   54283   54285   54284   54286   54288   54287   54289
   54291   54290   54292   54294   54293   54295   54297   54296   54298
   54300   54299   54301   54303   54302   54304   54306   54305   54307
   54309   54308   54310   54312   54311   54313   54315   54314   54316
   54318   54317   54319   54321   54320   54322   54324   54323   54325
   54327   54326   54328   54330   54329   54331   54333   54332   54334
   54336   54335   54337   54339   54338   54340   54342   54341   54343
   54345   54344   54346   54348   54347   54349   54351   54350   54352
   54354   54353   54355   54357   54356   54358   54360   54359   54361
   54363   54362   54364   54366   54365   54367   54369   54368   54370
   54372   54371   54373   54375   54374   54376   54378   54377   54379
   54381   54380   54382   54384   54383   54385   54387   54386   54388
   54390   54389   54391   54393   54392   54394   54396   54395   54397
   54399   54398   54400   54402   54401   54403   54405   54404   54406
   54408   54407   54409   54411   54410   54412   54414   54413   54415
   54417   54416   54418   54420   54419   54421   54423   54422   54424
   54426   54425   54427   54429   54428   54430   54432   54431   54433
   54435   54434   54436   54438   54437   54439   54441   54440   54442
   54444   54443   54445   54447   54446   54448   54450   54449   54451
   54453   54452   54454   54456   54455   54457   54459   54458   54460
   54462   54461   54463   54465   54464   54466   54468   54467   54469
   54471   54470   54472   54474   54473   54475   54477   54476   54478
   54480   54479   54481   54483   54482   54484   54486   54485   54487
   54489   54488   54490   54492   54491   54493   54495   54494   54496
   54498   54497   54499   54501   54500   54502   54504   54503   54505
   54507   54506   54508   54510   54509   54511   54513   54512   54514
   54516   54515   54517   54519   54518   54520   54522   54521   54523
   54525   54524   54526   54528   54527   54529   54531   54530   54532
   54534   54533   54535   54537   54536   54538   54540   54539   54541
   54543   54542   54544   54546   54545   54547   54549   54548   54550
   54552   54551   54553   54555   54554   54556   54558   54557   54559
   54561   54560   54562   54564   54563   54565   54567   54566   54568
   54570   54569   54571   54573   54572   54574   54576   54575   54577
   54579   54578   54580   54582   54581   54583   54585   54584   54586
   54588   54587   54589   54591   54590   54592   54594   54593   54595
   54597   54596   54598   54600   54599   54601   54603   54602   54604
   54606   54605   54607   54609   54608   54610   54612   54611   54613
   54615   54614   54616   54618   54617   54619   54621   54620   54622
   54624   54623   54625   54627   54626   54628   54630   54629   54631
   54633   54632   54634   54636   54635   54637   54639   54638   54640
   54642   54641   54643   54645   54644   54646   54648   54647   54649
   54651   54650   54652   54654   54653   54655   54657   54656   54658
   54660   54659   54661   54663   54662   54664   54666   54665   54667
   54669   54668   54670   54672   54671   54673   54675   54674   54676
   54678   54677   54679   54681   54680   54682   54684   54683   54685
   54687   54686   54688   54690   54689   54691   54693   54692   54694
   54696   54695   54697   54699   54698   54700   54702   54701   54703
   54705   54704   54706   54708   54707   54709   54711   54710   54712
   54714   54713   54715   54717   54716   54718   54720   54719   54721
   54723   54722   54724   54726   54725   54727   54729   54728   54730
   54732   54731   54733   54735   54734   54736   54738   54737   54739
   54741   54740   54742   54744   54743   54745   54747   54746   54748
   54750   54749   54751   54753   54752   54754   54756   54755   54757
   54759   54758   54760   54762   54761   54763   54765   54764   54766
   54768   54767   54769   54771   54770   54772   54774   54773   54775
   54777   54776   54778   54780   54779   54781   54783   54782   54784
   54786   54785   54787   54789   54788   54790   54792   54791   54793
   54795   54794   54796   54798   54797   54799   54801   54800   54802
   54804   54803   54805   54807   54806   54808   54810   54809   54811
   54813   54812   54814   54816   54815   54817   54819   54818   54820
   54822   54821   54823   54825   54824   54826   54828   54827   54829
   54831   54830   54832   54834   54833   54835   54837   54836   54838
   54840   54839   54841   54843   54842   54844   54846   54845   54847
   54849   54848   54850   54852   54851   54853   54855   54854   54856
   54858   54857   54859   54861   54860   54862   54864   54863   54865
   54867   54866   54868   54870   54869   54871   54873   54872   54874
   54876   54875   54877   54879   54878   54880   54882   54881   54883
   54885   54884   54886   54888   54887   54889   54891   54890   54892
   54894   54893   54895   54897   54896   54898   54900   54899   54901
   54903   54902   54904   54906   54905   54907   54909   54908   54910
   54912   54911   54913   54915   54914   54916   54918   54917   54919
   54921   54920   54922   54924   54923   54925   54927   54926   54928
   54930   54929   54931   54933   54932   54934   54936   54935   54937
   54939   54938   54940   54942   54941   54943   54945   54944   54946
   54948   54947   54949   54951   54950   54952   54954   54953   54955
   54957   54956   54958   54960   54959   54961   54963   54962   54964
   54966   54965   54967   54969   54968   54970   54972   54971   54973
   54975   54974   54976   54978   54977   54979   54981   54980   54982
   54984   54983   54985   54987   54986   54988   54990   54989   54991
   54993   54992   54994   54996   54995   54997   54999   54998   55000
   55002   55001   55003   55005   55004   55006   55008   55007   55009
   55011   55010   55012   55014   55013   55015   55017   55016   55018
   55020   55019   55021   55023   55022   55024   55026   55025   55027
   55029   55028   55030   55032   55031   55033   55035   55034   55036
   55038   55037   55039   55041   55040   55042   55044   55043   55045
   55047   55046   55048   55050   55049   55051   55053   55052   55054
   55056   55055   55057   55059   55058   55060   55062   55061   55063
   55065   55064   55066   55068   55067   55069   55071   55070   55072
   55074   55073   55075   55077   55076   55078   55080   55079   55081
   55083   55082   55084   55086   55085   55087   55089   55088   55090
   55092   55091   55093   55095   55094   55096   55098   55097   55099
   55101   55100   55102   55104   55103   55105   55107   55106   55108
   55110   55109   55111   55113   55112   55114   55116   55115   55117
   55119   55118   55120   55122   55121   55123   55125   55124   55126
   55128   55127   55129   55131   55130   55132   55134   55133   55135
   55137   55136   55138   55140   55139   55141   55143   55142   55144
   55146   55145   55147   55149   55148   55150   55152   55151   55153
   55155   55154   55156   55158   55157   55159   55161   55160   55162
   55164   55163   55165   55167   55166   55168   55170   55169   55171
   55173   55172   55174   55176   55175   55177   55179   55178   55180
   55182   55181   55183   55185   55184   55186   55188   55187   55189
   55191   55190   55192   55194   55193   55195   55197   55196   55198
   55200   55199   55201   55203   55202   55204   55206   55205   55207
   55209   55208   55210   55212   55211   55213   55215   55214   55216
   55218   55217   55219   55221   55220   55222   55224   55223   55225
   55227   55226   55228   55230   55229   55231   55233   55232   55234
   55236   55235   55237   55239   55238   55240   55242   55241   55243
   55245   55244   55246   55248   55247   55249   55251   55250   55252
   55254   55253   55255   55257   55256   55258   55260   55259   55261
   55263   55262   55264   55266   55265   55267   55269   55268   55270
   55272   55271   55273   55275   55274   55276   55278   55277   55279
   55281   55280   55282   55284   55283   55285   55287   55286   55288
   55290   55289   55291   55293   55292   55294   55296   55295   55297
   55299   55298   55300   55302   55301   55303   55305   55304   55306
   55308   55307   55309   55311   55310   55312   55314   55313   55315
   55317   55316   55318   55320   55319   55321   55323   55322   55324
   55326   55325   55327   55329   55328   55330   55332   55331   55333
   55335   55334   55336   55338   55337   55339   55341   55340   55342
   55344   55343   55345   55347   55346   55348   55350   55349   55351
   55353   55352   55354   55356   55355   55357   55359   55358   55360
   55362   55361   55363   55365   55364   55366   55368   55367   55369
   55371   55370   55372   55374   55373   55375   55377   55376   55378
   55380   55379   55381   55383   55382   55384   55386   55385   55387
   55389   55388   55390   55392   55391   55393   55395   55394   55396
   55398   55397   55399   55401   55400   55402   55404   55403   55405
   55407   55406   55408   55410   55409   55411   55413   55412   55414
   55416   55415   55417   55419   55418   55420   55422   55421   55423
   55425   55424   55426   55428   55427   55429   55431   55430   55432
   55434   55433   55435   55437   55436   55438   55440   55439   55441
   55443   55442   55444   55446   55445   55447   55449   55448   55450
   55452   55451   55453   55455   55454   55456   55458   55457   55459
   55461   55460   55462   55464   55463   55465   55467   55466   55468
   55470   55469   55471   55473   55472   55474   55476   55475   55477
   55479   55478   55480   55482   55481   55483   55485   55484   55486
   55488   55487   55489   55491   55490   55492   55494   55493   55495
   55497   55496   55498   55500   55499   55501   55503   55502   55504
   55506   55505   55507   55509   55508   55510   55512   55511   55513
   55515   55514   55516   55518   55517   55519   55521   55520   55522
   55524   55523   55525   55527   55526   55528   55530   55529   55531
   55533   55532   55534   55536   55535   55537   55539   55538   55540
   55542   55541   55543   55545   55544   55546   55548   55547   55549
   55551   55550   55552   55554   55553   55555   55557   55556   55558
   55560   55559   55561   55563   55562   55564   55566   55565   55567
   55569   55568   55570   55572   55571   55573   55575   55574   55576
   55578   55577   55579   55581   55580   55582   55584   55583   55585
   55587   55586   55588   55590   55589   55591   55593   55592   55594
   55596   55595   55597   55599   55598   55600   55602   55601   55603
   55605   55604   55606   55608   55607   55609   55611   55610   55612
   55614   55613   55615   55617   55616   55618   55620   55619   55621
   55623   55622   55624   55626   55625   55627   55629   55628   55630
   55632   55631   55633   55635   55634   55636   55638   55637   55639
   55641   55640   55642   55644   55643   55645   55647   55646   55648
   55650   55649   55651   55653   55652   55654   55656   55655   55657
   55659   55658   55660   55662   55661   55663   55665   55664   55666
   55668   55667   55669   55671   55670   55672   55674   55673   55675
   55677   55676   55678   55680   55679   55681   55683   55682   55684
   55686   55685   55687   55689   55688   55690   55692   55691   55693
   55695   55694   55696   55698   55697   55699   55701   55700   55702
   55704   55703   55705   55707   55706   55708   55710   55709   55711
   55713   55712   55714   55716   55715   55717   55719   55718   55720
   55722   55721   55723   55725   55724   55726   55728   55727   55729
   55731   55730   55732   55734   55733   55735   55737   55736   55738
   55740   55739   55741   55743   55742   55744   55746   55745   55747
   55749   55748   55750   55752   55751   55753   55755   55754   55756
   55758   55757   55759   55761   55760   55762   55764   55763   55765
   55767   55766   55768   55770   55769   55771   55773   55772   55774
   55776   55775   55777   55779   55778   55780   55782   55781   55783
   55785   55784   55786   55788   55787   55789   55791   55790   55792
   55794   55793   55795   55797   55796   55798   55800   55799   55801
   55803   55802   55804   55806   55805   55807   55809   55808   55810
   55812   55811   55813   55815   55814   55816   55818   55817   55819
   55821   55820   55822   55824   55823   55825   55827   55826   55828
   55830   55829   55831   55833   55832   55834   55836   55835   55837
   55839   55838   55840   55842   55841   55843   55845   55844   55846
   55848   55847   55849   55851   55850   55852   55854   55853   55855
   55857   55856   55858   55860   55859   55861   55863   55862   55864
   55866   55865   55867   55869   55868   55870   55872   55871   55873
   55875   55874   55876   55878   55877   55879   55881   55880   55882
   55884   55883   55885   55887   55886   55888   55890   55889   55891
   55893   55892   55894   55896   55895   55897   55899   55898   55900
   55902   55901   55903   55905   55904   55906   55908   55907   55909
   55911   55910   55912   55914   55913   55915   55917   55916   55918
   55920   55919   55921   55923   55922   55924   55926   55925   55927
   55929   55928   55930   55932   55931   55933   55935   55934   55936
   55938   55937   55939   55941   55940   55942   55944   55943   55945
   55947   55946   55948   55950   55949   55951   55953   55952   55954
   55956   55955   55957   55959   55958   55960   55962   55961   55963
   55965   55964   55966   55968   55967   55969   55971   55970   55972
   55974   55973   55975   55977   55976   55978   55980   55979   55981
   55983   55982   55984   55986   55985   55987   55989   55988   55990
   55992   55991   55993   55995   55994   55996   55998   55997   55999
   56001   56000   56002   56004   56003   56005   56007   56006   56008
   56010   56009   56011   56013   56012   56014   56016   56015   56017
   56019   56018   56020   56022   56021   56023   56025   56024   56026
   56028   56027   56029   56031   56030   56032   56034   56033   56035
   56037   56036   56038   56040   56039   56041   56043   56042   56044
   56046   56045   56047   56049   56048   56050   56052   56051   56053
   56055   56054   56056   56058   56057   56059   56061   56060   56062
   56064   56063   56065   56067   56066   56068   56070   56069   56071
   56073   56072   56074   56076   56075   56077   56079   56078   56080
   56082   56081   56083   56085   56084   56086   56088   56087   56089
   56091   56090   56092   56094   56093   56095   56097   56096   56098
   56100   56099   56101   56103   56102   56104   56106   56105   56107
   56109   56108   56110   56112   56111   56113   56115   56114   56116
   56118   56117   56119   56121   56120   56122   56124   56123   56125
   56127   56126   56128   56130   56129   56131   56133   56132   56134
   56136   56135   56137   56139   56138   56140   56142   56141   56143
   56145   56144   56146   56148   56147   56149   56151   56150   56152
   56154   56153   56155   56157   56156   56158   56160   56159   56161
   56163   56162   56164   56166   56165   56167   56169   56168   56170
   56172   56171   56173   56175   56174   56176   56178   56177   56179
   56181   56180   56182   56184   56183   56185   56187   56186   56188
   56190   56189   56191   56193   56192   56194   56196   56195   56197
   56199   56198   56200   56202   56201   56203   56205   56204   56206
   56208   56207   56209   56211   56210   56212   56214   56213   56215
   56217   56216   56218   56220   56219   56221   56223   56222   56224
   56226   56225   56227   56229   56228   56230   56232   56231   56233
   56235   56234   56236   56238   56237   56239   56241   56240   56242
   56244   56243   56245   56247   56246   56248   56250   56249   56251
   56253   56252   56254   56256   56255   56257   56259   56258   56260
   56262   56261   56263   56265   56264   56266   56268   56267   56269
   56271   56270   56272   56274   56273   56275   56277   56276   56278
   56280   56279   56281   56283   56282   56284   56286   56285   56287
   56289   56288   56290   56292   56291   56293   56295   56294   56296
   56298   56297   56299   56301   56300   56302   56304   56303   56305
   56307   56306   56308   56310   56309   56311   56313   56312   56314
   56316   56315   56317   56319   56318   56320   56322   56321   56323
   56325   56324   56326   56328   56327   56329   56331   56330   56332
   56334   56333   56335   56337   56336   56338   56340   56339   56341
   56343   56342   56344   56346   56345   56347   56349   56348   56350
   56352   56351   56353   56355   56354   56356   56358   56357   56359
   56361   56360   56362   56364   56363   56365   56367   56366   56368
   56370   56369   56371   56373   56372   56374   56376   56375   56377
   56379   56378   56380   56382   56381   56383   56385   56384   56386
   56388   56387   56389   56391   56390   56392   56394   56393   56395
   56397   56396   56398   56400   56399   56401   56403   56402   56404
   56406   56405   56407   56409   56408   56410   56412   56411   56413
   56415   56414   56416   56418   56417   56419   56421   56420   56422
   56424   56423   56425   56427   56426   56428   56430   56429   56431
   56433   56432   56434   56436   56435   56437   56439   56438   56440
   56442   56441   56443   56445   56444   56446   56448   56447   56449
   56451   56450   56452   56454   56453   56455   56457   56456   56458
   56460   56459   56461   56463   56462   56464   56466   56465   56467
   56469   56468   56470   56472   56471   56473   56475   56474   56476
   56478   56477   56479   56481   56480   56482   56484   56483   56485
   56487   56486   56488   56490   56489   56491   56493   56492   56494
   56496   56495   56497   56499   56498   56500   56502   56501   56503
   56505   56504   56506   56508   56507   56509   56511   56510   56512
   56514   56513   56515   56517   56516   56518   56520   56519   56521
   56523   56522   56524   56526   56525   56527   56529   56528   56530
   56532   56531   56533   56535   56534   56536   56538   56537   56539
   56541   56540   56542   56544   56543   56545   56547   56546   56548
   56550   56549   56551   56553   56552   56554   56556   56555   56557
   56559   56558   56560   56562   56561   56563   56565   56564   56566
   56568   56567   56569   56571   56570   56572   56574   56573   56575
   56577   56576   56578   56580   56579   56581   56583   56582   56584
   56586   56585   56587   56589   56588   56590   56592   56591   56593
   56595   56594   56596   56598   56597   56599   56601   56600   56602
   56604   56603   56605   56607   56606   56608   56610   56609   56611
   56613   56612   56614   56616   56615   56617   56619   56618   56620
   56622   56621   56623   56625   56624   56626   56628   56627   56629
   56631   56630   56632   56634   56633   56635   56637   56636   56638
   56640   56639   56641   56643   56642   56644   56646   56645   56647
   56649   56648   56650   56652   56651   56653   56655   56654   56656
   56658   56657   56659   56661   56660   56662   56664   56663   56665
   56667   56666   56668   56670   56669   56671   56673   56672   56674
   56676   56675   56677   56679   56678   56680   56682   56681   56683
   56685   56684   56686   56688   56687   56689   56691   56690   56692
   56694   56693   56695   56697   56696   56698   56700   56699   56701
   56703   56702   56704   56706   56705   56707   56709   56708   56710
   56712   56711   56713   56715   56714   56716   56718   56717   56719
   56721   56720   56722   56724   56723   56725   56727   56726   56728
   56730   56729   56731   56733   56732   56734   56736   56735   56737
   56739   56738   56740   56742   56741   56743   56745   56744   56746
   56748   56747   56749   56751   56750   56752   56754   56753   56755
   56757   56756   56758   56760   56759   56761   56763   56762   56764
   56766   56765   56767   56769   56768   56770   56772   56771   56773
   56775   56774   56776   56778   56777   56779   56781   56780   56782
   56784   56783   56785   56787   56786   56788   56790   56789   56791
   56793   56792   56794   56796   56795   56797   56799   56798   56800
   56802   56801   56803   56805   56804   56806   56808   56807   56809
   56811   56810   56812   56814   56813   56815   56817   56816   56818
   56820   56819   56821   56823   56822   56824   56826   56825   56827
   56829   56828   56830   56832   56831   56833   56835   56834   56836
   56838   56837   56839   56841   56840   56842   56844   56843   56845
   56847   56846   56848   56850   56849   56851   56853   56852   56854
   56856   56855   56857   56859   56858   56860   56862   56861   56863
   56865   56864   56866   56868   56867   56869   56871   56870   56872
   56874   56873   56875   56877   56876   56878   56880   56879   56881
   56883   56882   56884   56886   56885   56887   56889   56888   56890
   56892   56891   56893   56895   56894   56896   56898   56897   56899
   56901   56900   56902   56904   56903   56905   56907   56906   56908
   56910   56909   56911   56913   56912   56914   56916   56915   56917
   56919   56918   56920   56922   56921   56923   56925   56924   56926
   56928   56927   56929   56931   56930   56932   56934   56933   56935
   56937   56936   56938   56940   56939   56941   56943   56942   56944
   56946   56945   56947   56949   56948   56950   56952   56951   56953
   56955   56954   56956   56958   56957   56959   56961   56960   56962
   56964   56963   56965   56967   56966   56968   56970   56969   56971
   56973   56972   56974   56976   56975   56977   56979   56978   56980
   56982   56981   56983   56985   56984   56986   56988   56987   56989
   56991   56990   56992   56994   56993   56995   56997   56996   56998
   57000   56999   57001   57003   57002   57004   57006   57005   57007
   57009   57008   57010   57012   57011   57013   57015   57014   57016
   57018   57017   57019   57021   57020   57022   57024   57023   57025
   57027   57026   57028   57030   57029   57031   57033   57032   57034
   57036   57035   57037   57039   57038   57040   57042   57041   57043
   57045   57044   57046   57048   57047   57049   57051   57050   57052
   57054   57053   57055   57057   57056   57058   57060   57059   57061
   57063   57062   57064   57066   57065   57067   57069   57068   57070
   57072   57071   57073   57075   57074   57076   57078   57077   57079
   57081   57080   57082   57084   57083   57085   57087   57086   57088
   57090   57089   57091   57093   57092   57094   57096   57095   57097
   57099   57098   57100   57102   57101   57103   57105   57104   57106
   57108   57107   57109   57111   57110   57112   57114   57113   57115
   57117   57116   57118   57120   57119   57121   57123   57122   57124
   57126   57125   57127   57129   57128   57130   57132   57131   57133
   57135   57134   57136   57138   57137   57139   57141   57140   57142
   57144   57143   57145   57147   57146   57148   57150   57149   57151
   57153   57152   57154   57156   57155   57157   57159   57158   57160
   57162   57161   57163   57165   57164   57166   57168   57167   57169
   57171   57170   57172   57174   57173   57175   57177   57176   57178
   57180   57179   57181   57183   57182   57184   57186   57185   57187
   57189   57188   57190   57192   57191   57193   57195   57194   57196
   57198   57197   57199   57201   57200   57202   57204   57203   57205
   57207   57206   57208   57210   57209   57211   57213   57212   57214
   57216   57215   57217   57219   57218   57220   57222   57221   57223
   57225   57224   57226   57228   57227   57229   57231   57230   57232
   57234   57233   57235   57237   57236   57238   57240   57239   57241
   57243   57242   57244   57246   57245   57247   57249   57248   57250
   57252   57251   57253   57255   57254   57256   57258   57257   57259
   57261   57260   57262   57264   57263   57265   57267   57266   57268
   57270   57269   57271   57273   57272   57274   57276   57275   57277
   57279   57278   57280   57282   57281   57283   57285   57284   57286
   57288   57287   57289   57291   57290   57292   57294   57293   57295
   57297   57296   57298   57300   57299   57301   57303   57302   57304
   57306   57305   57307   57309   57308   57310   57312   57311   57313
   57315   57314   57316   57318   57317   57319   57321   57320   57322
   57324   57323   57325   57327   57326   57328   57330   57329   57331
   57333   57332   57334   57336   57335   57337   57339   57338   57340
   57342   57341   57343   57345   57344   57346   57348   57347   57349
   57351   57350   57352   57354   57353   57355   57357   57356   57358
   57360   57359   57361   57363   57362   57364   57366   57365   57367
   57369   57368   57370   57372   57371   57373   57375   57374   57376
   57378   57377   57379   57381   57380   57382   57384   57383   57385
   57387   57386   57388   57390   57389   57391   57393   57392   57394
   57396   57395   57397   57399   57398   57400   57402   57401   57403
   57405   57404   57406   57408   57407   57409   57411   57410   57412
   57414   57413   57415   57417   57416   57418   57420   57419   57421
   57423   57422   57424   57426   57425   57427   57429   57428   57430
   57432   57431   57433   57435   57434   57436   57438   57437   57439
   57441   57440   57442   57444   57443   57445   57447   57446   57448
   57450   57449   57451   57453   57452   57454   57456   57455   57457
   57459   57458   57460   57462   57461   57463   57465   57464   57466
   57468   57467   57469   57471   57470   57472   57474   57473   57475
   57477   57476   57478   57480   57479   57481   57483   57482   57484
   57486   57485   57487   57489   57488   57490   57492   57491   57493
   57495   57494   57496   57498   57497   57499   57501   57500   57502
   57504   57503   57505   57507   57506   57508   57510   57509   57511
   57513   57512   57514   57516   57515   57517   57519   57518   57520
   57522   57521   57523   57525   57524   57526   57528   57527   57529
   57531   57530   57532   57534   57533   57535   57537   57536   57538
   57540   57539   57541   57543   57542   57544   57546   57545   57547
   57549   57548   57550   57552   57551   57553   57555   57554   57556
   57558   57557   57559   57561   57560   57562   57564   57563   57565
   57567   57566   57568   57570   57569   57571   57573   57572   57574
   57576   57575   57577   57579   57578   57580   57582   57581   57583
   57585   57584   57586   57588   57587   57589   57591   57590   57592
   57594   57593   57595   57597   57596   57598   57600   57599   57601
   57603   57602   57604   57606   57605   57607   57609   57608   57610
   57612   57611   57613   57615   57614   57616   57618   57617   57619
   57621   57620   57622   57624   57623   57625   57627   57626   57628
   57630   57629   57631   57633   57632   57634   57636   57635   57637
   57639   57638   57640   57642   57641   57643   57645   57644   57646
   57648   57647   57649   57651   57650   57652   57654   57653   57655
   57657   57656   57658   57660   57659   57661   57663   57662   57664
   57666   57665   57667   57669   57668   57670   57672   57671   57673
   57675   57674   57676   57678   57677   57679   57681   57680   57682
   57684   57683   57685   57687   57686   57688   57690   57689   57691
   57693   57692   57694   57696   57695   57697   57699   57698   57700
   57702   57701   57703   57705   57704   57706   57708   57707   57709
   57711   57710   57712   57714   57713   57715   57717   57716   57718
   57720   57719   57721   57723   57722   57724   57726   57725   57727
   57729   57728   57730   57732   57731   57733   57735   57734   57736
   57738   57737   57739   57741   57740   57742   57744   57743   57745
   57747   57746   57748   57750   57749   57751   57753   57752   57754
   57756   57755   57757   57759   57758   57760   57762   57761   57763
   57765   57764   57766   57768   57767   57769   57771   57770   57772
   57774   57773   57775   57777   57776   57778   57780   57779   57781
   57783   57782   57784   57786   57785   57787   57789   57788   57790
   57792   57791   57793   57795   57794   57796   57798   57797   57799
   57801   57800   57802   57804   57803   57805   57807   57806   57808
   57810   57809   57811   57813   57812   57814   57816   57815   57817
   57819   57818   57820   57822   57821   57823   57825   57824   57826
   57828   57827   57829   57831   57830   57832   57834   57833   57835
   57837   57836   57838   57840   57839   57841   57843   57842   57844
   57846   57845   57847   57849   57848   57850   57852   57851   57853
   57855   57854   57856   57858   57857   57859   57861   57860   57862
   57864   57863   57865   57867   57866   57868   57870   57869   57871
   57873   57872   57874   57876   57875   57877   57879   57878   57880
   57882   57881   57883   57885   57884   57886   57888   57887   57889
   57891   57890   57892   57894   57893   57895   57897   57896   57898
   57900   57899   57901   57903   57902   57904   57906   57905   57907
   57909   57908   57910   57912   57911   57913   57915   57914   57916
   57918   57917   57919   57921   57920   57922   57924   57923   57925
   57927   57926   57928   57930   57929   57931   57933   57932   57934
   57936   57935   57937   57939   57938   57940   57942   57941   57943
   57945   57944   57946   57948   57947   57949   57951   57950   57952
   57954   57953   57955   57957   57956   57958   57960   57959   57961
   57963   57962   57964   57966   57965   57967   57969   57968   57970
   57972   57971   57973   57975   57974   57976   57978   57977   57979
   57981   57980   57982   57984   57983   57985   57987   57986   57988
   57990   57989   57991   57993   57992   57994   57996   57995   57997
   57999   57998   58000   58002   58001   58003   58005   58004   58006
   58008   58007   58009   58011   58010   58012   58014   58013   58015
   58017   58016   58018   58020   58019   58021   58023   58022   58024
   58026   58025   58027   58029   58028   58030   58032   58031   58033
   58035   58034   58036   58038   58037   58039   58041   58040   58042
   58044   58043   58045   58047   58046   58048   58050   58049   58051
   58053   58052   58054   58056   58055   58057   58059   58058   58060
   58062   58061   58063   58065   58064   58066   58068   58067   58069
   58071   58070   58072   58074   58073   58075   58077   58076   58078
   58080   58079   58081   58083   58082   58084   58086   58085   58087
   58089   58088   58090   58092   58091   58093   58095   58094   58096
   58098   58097   58099   58101   58100   58102   58104   58103   58105
   58107   58106   58108   58110   58109   58111   58113   58112   58114
   58116   58115   58117   58119   58118   58120   58122   58121   58123
   58125   58124   58126   58128   58127   58129   58131   58130   58132
   58134   58133   58135   58137   58136   58138   58140   58139   58141
   58143   58142   58144   58146   58145   58147   58149   58148   58150
   58152   58151   58153   58155   58154   58156   58158   58157   58159
   58161   58160   58162   58164   58163   58165   58167   58166   58168
   58170   58169   58171   58173   58172   58174   58176   58175   58177
   58179   58178   58180   58182   58181   58183   58185   58184   58186
   58188   58187   58189   58191   58190   58192   58194   58193   58195
   58197   58196   58198   58200   58199   58201   58203   58202   58204
   58206   58205   58207   58209   58208   58210   58212   58211   58213
   58215   58214   58216   58218   58217   58219   58221   58220   58222
   58224   58223   58225   58227   58226   58228   58230   58229   58231
   58233   58232   58234   58236   58235   58237   58239   58238   58240
   58242   58241   58243   58245   58244   58246   58248   58247   58249
   58251   58250   58252   58254   58253   58255   58257   58256   58258
   58260   58259   58261   58263   58262   58264   58266   58265   58267
   58269   58268   58270   58272   58271   58273   58275   58274   58276
   58278   58277   58279   58281   58280   58282   58284   58283   58285
   58287   58286   58288   58290   58289   58291   58293   58292   58294
   58296   58295   58297   58299   58298   58300   58302   58301   58303
   58305   58304   58306   58308   58307   58309   58311   58310   58312
   58314   58313   58315   58317   58316   58318   58320   58319   58321
   58323   58322   58324   58326   58325   58327   58329   58328   58330
   58332   58331   58333   58335   58334   58336   58338   58337   58339
   58341   58340   58342   58344   58343   58345   58347   58346   58348
   58350   58349   58351   58353   58352   58354   58356   58355   58357
   58359   58358   58360   58362   58361   58363   58365   58364   58366
   58368   58367   58369   58371   58370   58372   58374   58373   58375
   58377   58376   58378   58380   58379   58381   58383   58382   58384
   58386   58385   58387   58389   58388   58390   58392   58391   58393
   58395   58394   58396   58398   58397   58399   58401   58400   58402
   58404   58403   58405   58407   58406   58408   58410   58409   58411
   58413   58412   58414   58416   58415   58417   58419   58418   58420
   58422   58421   58423   58425   58424   58426   58428   58427   58429
   58431   58430   58432   58434   58433   58435   58437   58436   58438
   58440   58439   58441   58443   58442   58444   58446   58445   58447
   58449   58448   58450   58452   58451   58453   58455   58454   58456
   58458   58457   58459   58461   58460   58462   58464   58463   58465
   58467   58466   58468   58470   58469   58471   58473   58472   58474
   58476   58475   58477   58479   58478   58480   58482   58481   58483
   58485   58484   58486   58488   58487   58489   58491   58490   58492
   58494   58493   58495   58497   58496   58498   58500   58499   58501
   58503   58502   58504   58506   58505   58507   58509   58508   58510
   58512   58511   58513   58515   58514   58516   58518   58517   58519
   58521   58520   58522   58524   58523   58525   58527   58526   58528
   58530   58529   58531   58533   58532   58534   58536   58535   58537
   58539   58538   58540   58542   58541   58543   58545   58544   58546
   58548   58547   58549   58551   58550   58552   58554   58553   58555
   58557   58556   58558   58560   58559   58561   58563   58562   58564
   58566   58565   58567   58569   58568   58570   58572   58571   58573
   58575   58574   58576   58578   58577   58579   58581   58580   58582
   58584   58583   58585   58587   58586   58588   58590   58589   58591
   58593   58592   58594   58596   58595   58597   58599   58598   58600
   58602   58601   58603   58605   58604   58606   58608   58607   58609
   58611   58610   58612   58614   58613   58615   58617   58616   58618
   58620   58619   58621   58623   58622   58624   58626   58625   58627
   58629   58628   58630   58632   58631   58633   58635   58634   58636
   58638   58637   58639   58641   58640   58642   58644   58643   58645
   58647   58646   58648   58650   58649   58651   58653   58652   58654
   58656   58655   58657   58659   58658   58660   58662   58661   58663
   58665   58664   58666   58668   58667   58669   58671   58670   58672
   58674   58673   58675   58677   58676   58678   58680   58679   58681
   58683   58682   58684   58686   58685   58687   58689   58688   58690
   58692   58691   58693   58695   58694   58696   58698   58697   58699
   58701   58700   58702   58704   58703   58705   58707   58706   58708
   58710   58709   58711   58713   58712   58714   58716   58715   58717
   58719   58718   58720   58722   58721   58723   58725   58724   58726
   58728   58727   58729   58731   58730   58732   58734   58733   58735
   58737   58736   58738   58740   58739   58741   58743   58742   58744
   58746   58745   58747   58749   58748   58750   58752   58751   58753
   58755   58754   58756   58758   58757   58759   58761   58760   58762
   58764   58763   58765   58767   58766   58768   58770   58769   58771
   58773   58772   58774   58776   58775   58777   58779   58778   58780
   58782   58781   58783   58785   58784   58786   58788   58787   58789
   58791   58790   58792   58794   58793   58795   58797   58796   58798
   58800   58799   58801   58803   58802   58804   58806   58805   58807
   58809   58808   58810   58812   58811   58813   58815   58814   58816
   58818   58817   58819   58821   58820   58822   58824   58823   58825
   58827   58826   58828   58830   58829   58831   58833   58832   58834
   58836   58835   58837   58839   58838   58840   58842   58841   58843
   58845   58844   58846   58848   58847   58849   58851   58850   58852
   58854   58853   58855   58857   58856   58858   58860   58859   58861
   58863   58862   58864   58866   58865   58867   58869   58868   58870
   58872   58871   58873   58875   58874   58876   58878   58877   58879
   58881   58880   58882   58884   58883   58885   58887   58886   58888
   58890   58889   58891   58893   58892   58894   58896   58895   58897
   58899   58898   58900   58902   58901   58903   58905   58904   58906
   58908   58907   58909   58911   58910   58912   58914   58913   58915
   58917   58916   58918   58920   58919   58921   58923   58922   58924
   58926   58925   58927   58929   58928   58930   58932   58931   58933
   58935   58934   58936   58938   58937   58939   58941   58940   58942
   58944   58943   58945   58947   58946   58948   58950   58949   58951
   58953   58952   58954   58956   58955   58957   58959   58958   58960
   58962   58961   58963   58965   58964   58966   58968   58967   58969
   58971   58970   58972   58974   58973   58975   58977   58976   58978
   58980   58979   58981   58983   58982   58984   58986   58985   58987
   58989   58988   58990   58992   58991   58993   58995   58994   58996
   58998   58997   58999   59001   59000   59002   59004   59003   59005
   59007   59006   59008   59010   59009   59011   59013   59012   59014
   59016   59015   59017   59019   59018   59020   59022   59021   59023
   59025   59024   59026   59028   59027   59029   59031   59030   59032
   59034   59033   59035   59037   59036   59038   59040   59039   59041
   59043   59042   59044   59046   59045   59047   59049   59048   59050
   59052   59051   59053   59055   59054   59056   59058   59057   59059
   59061   59060   59062   59064   59063   59065   59067   59066   59068
   59070   59069   59071   59073   59072   59074   59076   59075   59077
   59079   59078   59080   59082   59081   59083   59085   59084   59086
   59088   59087   59089   59091   59090   59092   59094   59093   59095
   59097   59096   59098   59100   59099   59101   59103   59102   59104
   59106   59105   59107   59109   59108   59110   59112   59111   59113
   59115   59114   59116   59118   59117   59119   59121   59120   59122
   59124   59123   59125   59127   59126   59128   59130   59129   59131
   59133   59132   59134   59136   59135   59137   59139   59138   59140
   59142   59141   59143   59145   59144   59146   59148   59147   59149
   59151   59150   59152   59154   59153   59155   59157   59156   59158
   59160   59159   59161   59163   59162   59164   59166   59165   59167
   59169   59168   59170   59172   59171   59173   59175   59174   59176
   59178   59177   59179   59181   59180   59182   59184   59183   59185
   59187   59186   59188   59190   59189   59191   59193   59192   59194
   59196   59195   59197   59199   59198   59200   59202   59201   59203
   59205   59204   59206   59208   59207   59209   59211   59210   59212
   59214   59213   59215   59217   59216   59218   59220   59219   59221
   59223   59222   59224   59226   59225   59227   59229   59228   59230
   59232   59231   59233   59235   59234   59236   59238   59237   59239
   59241   59240   59242   59244   59243   59245   59247   59246   59248
   59250   59249   59251   59253   59252   59254   59256   59255   59257
   59259   59258   59260   59262   59261   59263   59265   59264   59266
   59268   59267   59269   59271   59270   59272   59274   59273   59275
   59277   59276   59278   59280   59279   59281   59283   59282   59284
   59286   59285   59287   59289   59288   59290   59292   59291   59293
   59295   59294   59296   59298   59297   59299   59301   59300   59302
   59304   59303   59305   59307   59306   59308   59310   59309   59311
   59313   59312   59314   59316   59315   59317   59319   59318   59320
   59322   59321   59323   59325   59324   59326   59328   59327   59329
   59331   59330   59332   59334   59333   59335   59337   59336   59338
   59340   59339   59341   59343   59342   59344   59346   59345   59347
   59349   59348   59350   59352   59351   59353   59355   59354   59356
   59358   59357   59359   59361   59360   59362   59364   59363   59365
   59367   59366   59368   59370   59369   59371   59373   59372   59374
   59376   59375   59377   59379   59378   59380   59382   59381   59383
   59385   59384   59386   59388   59387   59389   59391   59390   59392
   59394   59393   59395   59397   59396   59398   59400   59399   59401
   59403   59402   59404   59406   59405   59407   59409   59408   59410
   59412   59411   59413   59415   59414   59416   59418   59417   59419
   59421   59420   59422   59424   59423   59425   59427   59426   59428
   59430   59429   59431   59433   59432   59434   59436   59435   59437
   59439   59438   59440   59442   59441   59443   59445   59444   59446
   59448   59447   59449   59451   59450   59452   59454   59453   59455
   59457   59456   59458   59460   59459   59461   59463   59462   59464
   59466   59465   59467   59469   59468   59470   59472   59471   59473
   59475   59474   59476   59478   59477   59479   59481   59480   59482
   59484   59483   59485   59487   59486   59488   59490   59489   59491
   59493   59492   59494   59496   59495   59497   59499   59498   59500
   59502   59501   59503   59505   59504   59506   59508   59507   59509
   59511   59510   59512   59514   59513   59515   59517   59516   59518
   59520   59519   59521   59523   59522   59524   59526   59525   59527
   59529   59528   59530   59532   59531   59533   59535   59534   59536
   59538   59537   59539   59541   59540   59542   59544   59543   59545
   59547   59546   59548   59550   59549   59551   59553   59552   59554
   59556   59555   59557   59559   59558   59560   59562   59561   59563
   59565   59564   59566   59568   59567   59569   59571   59570   59572
   59574   59573   59575   59577   59576   59578   59580   59579   59581
   59583   59582   59584   59586   59585   59587   59589   59588   59590
   59592   59591   59593   59595   59594   59596   59598   59597   59599
   59601   59600   59602   59604   59603   59605   59607   59606   59608
   59610   59609   59611   59613   59612   59614   59616   59615   59617
   59619   59618   59620   59622   59621   59623   59625   59624   59626
   59628   59627   59629   59631   59630   59632   59634   59633   59635
   59637   59636   59638   59640   59639   59641   59643   59642   59644
   59646   59645   59647   59649   59648   59650   59652   59651   59653
   59655   59654   59656   59658   59657   59659   59661   59660   59662
   59664   59663   59665   59667   59666   59668   59670   59669   59671
   59673   59672   59674   59676   59675   59677   59679   59678   59680
   59682   59681   59683   59685   59684   59686   59688   59687   59689
   59691   59690   59692   59694   59693   59695   59697   59696   59698
   59700   59699   59701   59703   59702   59704   59706   59705   59707
   59709   59708   59710   59712   59711   59713   59715   59714   59716
   59718   59717   59719   59721   59720   59722   59724   59723   59725
   59727   59726   59728   59730   59729   59731   59733   59732   59734
   59736   59735   59737   59739   59738   59740   59742   59741   59743
   59745   59744   59746   59748   59747   59749   59751   59750   59752
   59754   59753   59755   59757   59756   59758   59760   59759   59761
   59763   59762   59764   59766   59765   59767   59769   59768   59770
   59772   59771   59773   59775   59774   59776   59778   59777   59779
   59781   59780   59782   59784   59783   59785   59787   59786   59788
   59790   59789   59791   59793   59792   59794   59796   59795   59797
   59799   59798   59800   59802   59801   59803   59805   59804   59806
   59808   59807   59809   59811   59810   59812   59814   59813   59815
   59817   59816   59818   59820   59819   59821   59823   59822   59824
   59826   59825   59827   59829   59828   59830   59832   59831   59833
   59835   59834   59836   59838   59837   59839   59841   59840   59842
   59844   59843   59845   59847   59846   59848   59850   59849   59851
   59853   59852   59854   59856   59855   59857   59859   59858   59860
   59862   59861   59863   59865   59864   59866   59868   59867   59869
   59871   59870   59872   59874   59873   59875   59877   59876   59878
   59880   59879   59881   59883   59882   59884   59886   59885   59887
   59889   59888   59890   59892   59891   59893   59895   59894   59896
   59898   59897   59899   59901   59900   59902   59904   59903   59905
   59907   59906   59908   59910   59909   59911   59913   59912   59914
   59916   59915   59917   59919   59918   59920   59922   59921   59923
   59925   59924   59926   59928   59927   59929   59931   59930   59932
   59934   59933   59935   59937   59936   59938   59940   59939   59941
   59943   59942   59944   59946   59945   59947   59949   59948   59950
   59952   59951   59953   59955   59954   59956   59958   59957   59959
   59961   59960   59962   59964   59963   59965   59967   59966   59968
   59970   59969   59971   59973   59972   59974   59976   59975   59977
   59979   59978   59980   59982   59981   59983   59985   59984   59986
   59988   59987   59989   59991   59990   59992   59994   59993   59995
   59997   59996   59998   60000   59999   60001   60003   60002   60004
   60006   60005   60007   60009   60008   60010   60012   60011   60013
   60015   60014   60016   60018   60017   60019   60021   60020   60022
   60024   60023   60025   60027   60026   60028   60030   60029   60031
   60033   60032   60034   60036   60035   60037   60039   60038   60040
   60042   60041   60043   60045   60044   60046   60048   60047   60049
   60051   60050   60052   60054   60053   60055   60057   60056   60058
   60060   60059   60061   60063   60062   60064   60066   60065   60067
   60069   60068   60070   60072   60071   60073   60075   60074   60076
   60078   60077   60079   60081   60080   60082   60084   60083   60085
   60087   60086   60088   60090   60089   60091   60093   60092   60094
   60096   60095   60097   60099   60098   60100   60102   60101   60103
   60105   60104   60106   60108   60107   60109   60111   60110   60112
   60114   60113   60115   60117   60116   60118   60120   60119   60121
   60123   60122   60124   60126   60125   60127   60129   60128   60130
   60132   60131   60133   60135   60134   60136   60138   60137   60139
   60141   60140   60142   60144   60143   60145   60147   60146   60148
   60150   60149   60151   60153   60152   60154   60156   60155   60157
   60159   60158   60160   60162   60161   60163   60165   60164   60166
   60168   60167   60169   60171   60170   60172   60174   60173   60175
   60177   60176   60178   60180   60179   60181   60183   60182   60184
   60186   60185   60187   60189   60188   60190   60192   60191   60193
   60195   60194   60196   60198   60197   60199   60201   60200   60202
   60204   60203   60205   60207   60206   60208   60210   60209   60211
   60213   60212   60214   60216   60215   60217   60219   60218   60220
   60222   60221   60223   60225   60224   60226   60228   60227   60229
   60231   60230   60232   60234   60233   60235   60237   60236   60238
   60240   60239   60241   60243   60242   60244   60246   60245   60247
   60249   60248   60250   60252   60251   60253   60255   60254   60256
   60258   60257   60259   60261   60260   60262   60264   60263   60265
   60267   60266   60268   60270   60269   60271   60273   60272   60274
   60276   60275   60277   60279   60278   60280   60282   60281   60283
   60285   60284   60286   60288   60287   60289   60291   60290   60292
   60294   60293   60295   60297   60296   60298   60300   60299   60301
   60303   60302   60304   60306   60305   60307   60309   60308   60310
   60312   60311   60313   60315   60314   60316   60318   60317   60319
   60321   60320   60322   60324   60323   60325   60327   60326   60328
   60330   60329   60331   60333   60332   60334   60336   60335   60337
   60339   60338   60340   60342   60341   60343   60345   60344   60346
   60348   60347   60349   60351   60350   60352   60354   60353   60355
   60357   60356   60358   60360   60359   60361   60363   60362   60364
   60366   60365   60367   60369   60368   60370   60372   60371   60373
   60375   60374   60376   60378   60377   60379   60381   60380   60382
   60384   60383   60385   60387   60386   60388   60390   60389   60391
   60393   60392   60394   60396   60395   60397   60399   60398   60400
   60402   60401   60403   60405   60404   60406   60408   60407   60409
   60411   60410   60412   60414   60413   60415   60417   60416   60418
   60420   60419   60421   60423   60422   60424   60426   60425   60427
   60429   60428   60430   60432   60431   60433   60435   60434   60436
   60438   60437   60439   60441   60440   60442   60444   60443   60445
   60447   60446   60448   60450   60449   60451   60453   60452   60454
   60456   60455   60457   60459   60458   60460   60462   60461   60463
   60465   60464   60466   60468   60467   60469   60471   60470   60472
   60474   60473   60475   60477   60476   60478   60480   60479   60481
   60483   60482   60484   60486   60485   60487   60489   60488   60490
   60492   60491   60493   60495   60494   60496   60498   60497   60499
   60501   60500   60502   60504   60503   60505   60507   60506   60508
   60510   60509   60511   60513   60512   60514   60516   60515   60517
   60519   60518   60520   60522   60521   60523   60525   60524   60526
   60528   60527   60529   60531   60530   60532   60534   60533   60535
   60537   60536   60538   60540   60539   60541   60543   60542   60544
   60546   60545   60547   60549   60548   60550   60552   60551   60553
   60555   60554   60556   60558   60557   60559   60561   60560   60562
   60564   60563   60565   60567   60566   60568   60570   60569   60571
   60573   60572   60574   60576   60575   60577   60579   60578   60580
   60582   60581   60583   60585   60584   60586   60588   60587   60589
   60591   60590   60592   60594   60593   60595   60597   60596   60598
   60600   60599   60601   60603   60602   60604   60606   60605   60607
   60609   60608   60610   60612   60611   60613   60615   60614   60616
   60618   60617   60619   60621   60620   60622   60624   60623   60625
   60627   60626   60628   60630   60629   60631   60633   60632   60634
   60636   60635   60637   60639   60638   60640   60642   60641   60643
   60645   60644   60646   60648   60647   60649   60651   60650   60652
   60654   60653   60655   60657   60656   60658   60660   60659   60661
   60663   60662   60664   60666   60665   60667   60669   60668   60670
   60672   60671   60673   60675   60674   60676   60678   60677   60679
   60681   60680   60682   60684   60683   60685   60687   60686   60688
   60690   60689   60691   60693   60692   60694   60696   60695   60697
   60699   60698   60700   60702   60701   60703   60705   60704   60706
   60708   60707   60709   60711   60710   60712   60714   60713   60715
   60717   60716   60718   60720   60719   60721   60723   60722   60724
   60726   60725   60727   60729   60728   60730   60732   60731   60733
   60735   60734   60736   60738   60737   60739   60741   60740   60742
   60744   60743   60745   60747   60746   60748   60750   60749   60751
   60753   60752   60754   60756   60755   60757   60759   60758   60760
   60762   60761   60763   60765   60764   60766   60768   60767   60769
   60771   60770   60772   60774   60773   60775   60777   60776   60778
   60780   60779   60781   60783   60782   60784   60786   60785   60787
   60789   60788   60790   60792   60791   60793   60795   60794   60796
   60798   60797   60799   60801   60800   60802   60804   60803   60805
   60807   60806   60808   60810   60809   60811   60813   60812   60814
   60816   60815   60817   60819   60818   60820   60822   60821   60823
   60825   60824   60826   60828   60827   60829   60831   60830   60832
   60834   60833   60835   60837   60836   60838   60840   60839   60841
   60843   60842   60844   60846   60845   60847   60849   60848   60850
   60852   60851   60853   60855   60854   60856   60858   60857   60859
   60861   60860   60862   60864   60863   60865   60867   60866   60868
   60870   60869   60871   60873   60872   60874   60876   60875   60877
   60879   60878   60880   60882   60881   60883   60885   60884   60886
   60888   60887   60889   60891   60890   60892   60894   60893   60895
   60897   60896   60898   60900   60899   60901   60903   60902   60904
   60906   60905   60907   60909   60908   60910   60912   60911   60913
   60915   60914   60916   60918   60917   60919   60921   60920   60922
   60924   60923   60925   60927   60926   60928   60930   60929   60931
   60933   60932   60934   60936   60935   60937   60939   60938   60940
   60942   60941   60943   60945   60944   60946   60948   60947   60949
   60951   60950   60952   60954   60953   60955   60957   60956   60958
   60960   60959   60961   60963   60962   60964   60966   60965   60967
   60969   60968   60970   60972   60971   60973   60975   60974   60976
   60978   60977   60979   60981   60980   60982   60984   60983   60985
   60987   60986   60988   60990   60989   60991   60993   60992   60994
   60996   60995   60997   60999   60998   61000   61002   61001   61003
   61005   61004   61006   61008   61007   61009   61011   61010   61012
   61014   61013   61015   61017   61016   61018   61020   61019   61021
   61023   61022   61024   61026   61025   61027   61029   61028   61030
   61032   61031   61033   61035   61034   61036   61038   61037   61039
   61041   61040   61042   61044   61043   61045   61047   61046   61048
   61050   61049   61051   61053   61052   61054   61056   61055   61057
   61059   61058   61060   61062   61061   61063   61065   61064   61066
   61068   61067   61069   61071   61070   61072   61074   61073   61075
   61077   61076   61078   61080   61079   61081   61083   61082   61084
   61086   61085   61087   61089   61088   61090   61092   61091   61093
   61095   61094   61096   61098   61097   61099   61101   61100   61102
   61104   61103   61105   61107   61106   61108   61110   61109   61111
   61113   61112   61114   61116   61115   61117   61119   61118   61120
   61122   61121   61123   61125   61124   61126   61128   61127   61129
   61131   61130   61132   61134   61133   61135   61137   61136   61138
   61140   61139   61141   61143   61142   61144   61146   61145   61147
   61149   61148   61150   61152   61151   61153   61155   61154   61156
   61158   61157   61159   61161   61160   61162   61164   61163   61165
   61167   61166   61168   61170   61169   61171   61173   61172   61174
   61176   61175   61177   61179   61178   61180   61182   61181   61183
   61185   61184   61186   61188   61187   61189   61191   61190   61192
   61194   61193   61195   61197   61196   61198   61200   61199   61201
   61203   61202   61204   61206   61205   61207   61209   61208   61210
   61212   61211   61213   61215   61214   61216   61218   61217   61219
   61221   61220   61222   61224   61223   61225   61227   61226   61228
   61230   61229   61231   61233   61232   61234   61236   61235   61237
   61239   61238   61240   61242   61241   61243   61245   61244   61246
   61248   61247   61249   61251   61250   61252   61254   61253   61255
   61257   61256   61258   61260   61259   61261   61263   61262   61264
   61266   61265   61267   61269   61268   61270   61272   61271   61273
   61275   61274   61276   61278   61277   61279   61281   61280   61282
   61284   61283   61285   61287   61286   61288   61290   61289   61291
   61293   61292   61294   61296   61295   61297   61299   61298   61300
   61302   61301   61303   61305   61304   61306   61308   61307   61309
   61311   61310   61312   61314   61313   61315   61317   61316   61318
   61320   61319   61321   61323   61322   61324   61326   61325   61327
   61329   61328   61330   61332   61331   61333   61335   61334   61336
   61338   61337   61339   61341   61340   61342   61344   61343   61345
   61347   61346   61348   61350   61349   61351   61353   61352   61354
   61356   61355   61357   61359   61358   61360   61362   61361   61363
   61365   61364   61366   61368   61367   61369   61371   61370   61372
   61374   61373   61375   61377   61376   61378   61380   61379   61381
   61383   61382   61384   61386   61385   61387   61389   61388   61390
   61392   61391   61393   61395   61394   61396   61398   61397   61399
   61401   61400   61402   61404   61403   61405   61407   61406   61408
   61410   61409   61411   61413   61412   61414   61416   61415   61417
   61419   61418   61420   61422   61421   61423   61425   61424   61426
   61428   61427   61429   61431   61430   61432   61434   61433   61435
   61437   61436   61438   61440   61439   61441   61443   61442   61444
   61446   61445   61447   61449   61448   61450   61452   61451   61453
   61455   61454   61456   61458   61457   61459   61461   61460   61462
   61464   61463   61465   61467   61466   61468   61470   61469   61471
   61473   61472   61474   61476   61475   61477   61479   61478   61480
   61482   61481   61483   61485   61484   61486   61488   61487   61489
   61491   61490   61492   61494   61493   61495   61497   61496   61498
   61500   61499   61501   61503   61502   61504   61506   61505   61507
   61509   61508   61510   61512   61511   61513   61515   61514   61516
   61518   61517   61519   61521   61520   61522   61524   61523   61525
   61527   61526   61528   61530   61529   61531   61533   61532   61534
   61536   61535   61537   61539   61538   61540   61542   61541   61543
   61545   61544   61546   61548   61547   61549   61551   61550   61552
   61554   61553   61555   61557   61556   61558   61560   61559   61561
   61563   61562   61564   61566   61565   61567   61569   61568   61570
   61572   61571   61573   61575   61574   61576   61578   61577   61579
   61581   61580   61582   61584   61583   61585   61587   61586   61588
   61590   61589   61591   61593   61592   61594   61596   61595   61597
   61599   61598   61600   61602   61601   61603   61605   61604   61606
   61608   61607   61609   61611   61610   61612   61614   61613   61615
   61617   61616   61618   61620   61619   61621   61623   61622   61624
   61626   61625   61627   61629   61628   61630   61632   61631   61633
   61635   61634   61636   61638   61637   61639   61641   61640   61642
   61644   61643   61645   61647   61646   61648   61650   61649   61651
   61653   61652   61654   61656   61655   61657   61659   61658   61660
   61662   61661   61663   61665   61664   61666   61668   61667   61669
   61671   61670   61672   61674   61673   61675   61677   61676   61678
   61680   61679   61681   61683   61682   61684   61686   61685   61687
   61689   61688   61690   61692   61691   61693   61695   61694   61696
   61698   61697   61699   61701   61700   61702   61704   61703   61705
   61707   61706   61708   61710   61709   61711   61713   61712   61714
   61716   61715   61717   61719   61718   61720   61722   61721   61723
   61725   61724   61726   61728   61727   61729   61731   61730   61732
   61734   61733   61735   61737   61736   61738   61740   61739   61741
   61743   61742   61744   61746   61745   61747   61749   61748   61750
   61752   61751   61753   61755   61754   61756   61758   61757   61759
   61761   61760   61762   61764   61763   61765   61767   61766   61768
   61770   61769   61771   61773   61772   61774   61776   61775   61777
   61779   61778   61780   61782   61781   61783   61785   61784   61786
   61788   61787   61789   61791   61790   61792   61794   61793   61795
   61797   61796   61798   61800   61799   61801   61803   61802   61804
   61806   61805   61807   61809   61808   61810   61812   61811   61813
   61815   61814   61816   61818   61817   61819   61821   61820   61822
   61824   61823   61825   61827   61826   61828   61830   61829   61831
   61833   61832   61834   61836   61835   61837   61839   61838   61840
   61842   61841   61843   61845   61844   61846   61848   61847   61849
   61851   61850   61852   61854   61853   61855   61857   61856   61858
   61860   61859   61861   61863   61862   61864   61866   61865   61867
   61869   61868   61870   61872   61871   61873   61875   61874   61876
   61878   61877   61879   61881   61880   61882   61884   61883   61885
   61887   61886   61888   61890   61889   61891   61893   61892   61894
   61896   61895   61897   61899   61898   61900   61902   61901   61903
   61905   61904   61906   61908   61907   61909   61911   61910   61912
   61914   61913   61915   61917   61916   61918   61920   61919   61921
   61923   61922   61924   61926   61925   61927   61929   61928   61930
   61932   61931   61933   61935   61934   61936   61938   61937   61939
   61941   61940   61942   61944   61943   61945   61947   61946   61948
   61950   61949   61951   61953   61952   61954   61956   61955   61957
   61959   61958   61960   61962   61961   61963   61965   61964   61966
   61968   61967   61969   61971   61970   61972   61974   61973   61975
   61977   61976   61978   61980   61979   61981   61983   61982   61984
   61986   61985   61987   61989   61988   61990   61992   61991   61993
   61995   61994   61996   61998   61997   61999   62001   62000   62002
   62004   62003   62005   62007   62006   62008   62010   62009   62011
   62013   62012   62014   62016   62015   62017   62019   62018   62020
   62022   62021   62023   62025   62024   62026   62028   62027   62029
   62031   62030   62032   62034   62033   62035   62037   62036   62038
   62040   62039   62041   62043   62042   62044   62046   62045   62047
   62049   62048   62050   62052   62051   62053   62055   62054   62056
   62058   62057   62059   62061   62060   62062   62064   62063   62065
   62067   62066   62068   62070   62069   62071   62073   62072   62074
   62076   62075   62077   62079   62078   62080   62082   62081   62083
   62085   62084   62086   62088   62087   62089   62091   62090   62092
   62094   62093   62095   62097   62096   62098   62100   62099   62101
   62103   62102   62104   62106   62105   62107   62109   62108   62110
   62112   62111   62113   62115   62114   62116   62118   62117   62119
   62121   62120   62122   62124   62123   62125   62127   62126   62128
   62130   62129   62131   62133   62132   62134   62136   62135   62137
   62139   62138   62140   62142   62141   62143   62145   62144   62146
   62148   62147   62149   62151   62150   62152   62154   62153   62155
   62157   62156   62158   62160   62159   62161   62163   62162   62164
   62166   62165   62167   62169   62168   62170   62172   62171   62173
   62175   62174   62176   62178   62177   62179   62181   62180   62182
   62184   62183   62185   62187   62186   62188   62190   62189   62191
   62193   62192   62194   62196   62195   62197   62199   62198   62200
   62202   62201   62203   62205   62204   62206   62208   62207   62209
   62211   62210   62212   62214   62213   62215   62217   62216   62218
   62220   62219   62221   62223   62222   62224   62226   62225   62227
   62229   62228   62230   62232   62231   62233   62235   62234   62236
   62238   62237   62239   62241   62240   62242   62244   62243   62245
   62247   62246   62248   62250   62249   62251   62253   62252   62254
   62256   62255   62257   62259   62258   62260   62262   62261   62263
   62265   62264   62266   62268   62267   62269   62271   62270   62272
   62274   62273   62275   62277   62276   62278   62280   62279   62281
   62283   62282   62284   62286   62285   62287   62289   62288   62290
   62292   62291   62293   62295   62294   62296   62298   62297   62299
   62301   62300   62302   62304   62303   62305   62307   62306   62308
   62310   62309   62311   62313   62312   62314   62316   62315   62317
   62319   62318   62320   62322   62321   62323   62325   62324   62326
   62328   62327   62329   62331   62330   62332   62334   62333   62335
   62337   62336   62338   62340   62339   62341   62343   62342   62344
   62346   62345   62347   62349   62348   62350   62352   62351   62353
   62355   62354   62356   62358   62357   62359   62361   62360   62362
   62364   62363   62365   62367   62366   62368   62370   62369   62371
   62373   62372   62374   62376   62375   62377   62379   62378   62380
   62382   62381   62383   62385   62384   62386   62388   62387   62389
   62391   62390   62392   62394   62393   62395   62397   62396   62398
   62400   62399   62401   62403   62402   62404   62406   62405   62407
   62409   62408   62410   62412   62411   62413   62415   62414   62416
   62418   62417   62419   62421   62420   62422   62424   62423   62425
   62427   62426   62428   62430   62429   62431   62433   62432   62434
   62436   62435   62437   62439   62438   62440   62442   62441   62443
   62445   62444   62446   62448   62447   62449   62451   62450   62452
   62454   62453   62455   62457   62456   62458   62460   62459   62461
   62463   62462   62464   62466   62465   62467   62469   62468   62470
   62472   62471   62473   62475   62474   62476   62478   62477   62479
   62481   62480   62482   62484   62483   62485   62487   62486   62488
   62490   62489   62491   62493   62492   62494   62496   62495   62497
   62499   62498   62500   62502   62501   62503   62505   62504   62506
   62508   62507   62509   62511   62510   62512   62514   62513   62515
   62517   62516   62518   62520   62519   62521   62523   62522   62524
   62526   62525   62527   62529   62528   62530   62532   62531   62533
   62535   62534   62536   62538   62537   62539   62541   62540   62542
   62544   62543   62545   62547   62546   62548   62550   62549   62551
   62553   62552   62554   62556   62555   62557   62559   62558   62560
   62562   62561   62563   62565   62564   62566   62568   62567   62569
   62571   62570   62572   62574   62573   62575   62577   62576   62578
   62580   62579   62581   62583   62582   62584   62586   62585   62587
   62589   62588   62590   62592   62591   62593   62595   62594   62596
   62598   62597   62599   62601   62600   62602   62604   62603   62605
   62607   62606   62608   62610   62609   62611   62613   62612   62614
   62616   62615   62617   62619   62618   62620   62622   62621   62623
   62625   62624   62626   62628   62627   62629   62631   62630   62632
   62634   62633   62635   62637   62636   62638   62640   62639   62641
   62643   62642   62644   62646   62645   62647   62649   62648   62650
   62652   62651   62653   62655   62654   62656   62658   62657   62659
   62661   62660   62662   62664   62663   62665   62667   62666   62668
   62670   62669   62671   62673   62672   62674   62676   62675   62677
   62679   62678   62680   62682   62681   62683   62685   62684   62686
   62688   62687   62689   62691   62690   62692   62694   62693   62695
   62697   62696   62698   62700   62699   62701   62703   62702   62704
   62706   62705   62707   62709   62708   62710   62712   62711   62713
   62715   62714   62716   62718   62717   62719   62721   62720   62722
   62724   62723   62725   62727   62726   62728   62730   62729   62731
   62733   62732   62734   62736   62735   62737   62739   62738   62740
   62742   62741   62743   62745   62744   62746   62748   62747   62749
   62751   62750   62752   62754   62753   62755   62757   62756   62758
   62760   62759   62761   62763   62762   62764   62766   62765   62767
   62769   62768   62770   62772   62771   62773   62775   62774   62776
   62778   62777   62779   62781   62780   62782   62784   62783   62785
   62787   62786   62788   62790   62789   62791   62793   62792   62794
   62796   62795   62797   62799   62798   62800   62802   62801   62803
   62805   62804   62806   62808   62807   62809   62811   62810   62812
   62814   62813   62815   62817   62816   62818   62820   62819   62821
   62823   62822   62824   62826   62825   62827   62829   62828   62830
   62832   62831   62833   62835   62834   62836   62838   62837   62839
   62841   62840   62842   62844   62843   62845   62847   62846   62848
   62850   62849   62851   62853   62852   62854   62856   62855   62857
   62859   62858   62860   62862   62861   62863   62865   62864   62866
   62868   62867   62869   62871   62870   62872   62874   62873   62875
   62877   62876   62878   62880   62879   62881   62883   62882   62884
   62886   62885   62887   62889   62888   62890   62892   62891   62893
   62895   62894   62896   62898   62897   62899   62901   62900   62902
   62904   62903   62905   62907   62906   62908   62910   62909   62911
   62913   62912   62914   62916   62915   62917   62919   62918   62920
   62922   62921   62923   62925   62924   62926   62928   62927   62929
   62931   62930   62932   62934   62933   62935   62937   62936   62938
   62940   62939   62941   62943   62942   62944   62946   62945   62947
   62949   62948   62950   62952   62951   62953   62955   62954   62956
   62958   62957   62959   62961   62960   62962   62964   62963   62965
   62967   62966   62968   62970   62969   62971   62973   62972   62974
   62976   62975   62977   62979   62978   62980   62982   62981   62983
   62985   62984   62986   62988   62987   62989   62991   62990   62992
   62994   62993   62995   62997   62996   62998   63000   62999   63001
   63003   63002   63004   63006   63005   63007   63009   63008   63010
   63012   63011   63013   63015   63014   63016   63018   63017   63019
   63021   63020   63022   63024   63023   63025   63027   63026   63028
   63030   63029   63031   63033   63032   63034   63036   63035   63037
   63039   63038   63040   63042   63041   63043   63045   63044   63046
   63048   63047   63049   63051   63050   63052   63054   63053   63055
   63057   63056   63058   63060   63059   63061   63063   63062   63064
   63066   63065   63067   63069   63068   63070   63072   63071   63073
   63075   63074   63076   63078   63077   63079   63081   63080   63082
   63084   63083   63085   63087   63086   63088   63090   63089   63091
   63093   63092   63094   63096   63095   63097   63099   63098   63100
   63102   63101   63103   63105   63104   63106   63108   63107   63109
   63111   63110   63112   63114   63113   63115   63117   63116   63118
   63120   63119   63121   63123   63122   63124   63126   63125   63127
   63129   63128   63130   63132   63131   63133   63135   63134   63136
   63138   63137   63139   63141   63140   63142   63144   63143   63145
   63147   63146   63148   63150   63149   63151   63153   63152   63154
   63156   63155   63157   63159   63158   63160   63162   63161   63163
   63165   63164   63166   63168   63167   63169   63171   63170   63172
   63174   63173   63175   63177   63176   63178   63180   63179   63181
   63183   63182   63184   63186   63185   63187   63189   63188   63190
   63192   63191   63193   63195   63194   63196   63198   63197   63199
   63201   63200   63202   63204   63203   63205   63207   63206   63208
   63210   63209   63211   63213   63212   63214   63216   63215   63217
   63219   63218   63220   63222   63221   63223   63225   63224   63226
   63228   63227   63229   63231   63230   63232   63234   63233   63235
   63237   63236   63238   63240   63239   63241   63243   63242   63244
   63246   63245   63247   63249   63248   63250   63252   63251   63253
   63255   63254   63256   63258   63257   63259   63261   63260   63262
   63264   63263   63265   63267   63266   63268   63270   63269   63271
   63273   63272   63274   63276   63275   63277   63279   63278   63280
   63282   63281   63283   63285   63284   63286   63288   63287   63289
   63291   63290   63292   63294   63293   63295   63297   63296   63298
   63300   63299   63301   63303   63302   63304   63306   63305   63307
   63309   63308   63310   63312   63311   63313   63315   63314   63316
   63318   63317   63319   63321   63320   63322   63324   63323   63325
   63327   63326   63328   63330   63329   63331   63333   63332   63334
   63336   63335   63337   63339   63338   63340   63342   63341   63343
   63345   63344   63346   63348   63347   63349   63351   63350   63352
   63354   63353   63355   63357   63356   63358   63360   63359   63361
   63363   63362   63364   63366   63365   63367   63369   63368   63370
   63372   63371   63373   63375   63374   63376   63378   63377   63379
   63381   63380   63382   63384   63383   63385   63387   63386   63388
   63390   63389   63391   63393   63392   63394   63396   63395   63397
   63399   63398   63400   63402   63401   63403   63405   63404   63406
   63408   63407   63409   63411   63410   63412   63414   63413   63415
   63417   63416   63418   63420   63419   63421   63423   63422   63424
   63426   63425   63427   63429   63428   63430   63432   63431   63433
   63435   63434   63436   63438   63437   63439   63441   63440   63442
   63444   63443   63445   63447   63446   63448   63450   63449   63451
   63453   63452   63454   63456   63455   63457   63459   63458   63460
   63462   63461   63463   63465   63464   63466   63468   63467   63469
   63471   63470   63472   63474   63473   63475   63477   63476   63478
   63480   63479   63481   63483   63482   63484   63486   63485   63487
   63489   63488   63490   63492   63491   63493   63495   63494   63496
   63498   63497   63499   63501   63500   63502   63504   63503   63505
   63507   63506   63508   63510   63509   63511   63513   63512   63514
   63516   63515   63517   63519   63518   63520   63522   63521   63523
   63525   63524   63526   63528   63527   63529   63531   63530   63532
   63534   63533   63535   63537   63536   63538   63540   63539   63541
   63543   63542   63544   63546   63545   63547   63549   63548   63550
   63552   63551   63553   63555   63554   63556   63558   63557   63559
   63561   63560   63562   63564   63563   63565   63567   63566   63568
   63570   63569   63571   63573   63572   63574   63576   63575   63577
   63579   63578   63580   63582   63581   63583   63585   63584   63586
   63588   63587   63589   63591   63590   63592   63594   63593   63595
   63597   63596   63598   63600   63599   63601   63603   63602   63604
   63606   63605   63607   63609   63608   63610   63612   63611   63613
   63615   63614   63616   63618   63617   63619   63621   63620   63622
   63624   63623   63625   63627   63626   63628   63630   63629   63631
   63633   63632   63634   63636   63635   63637   63639   63638   63640
   63642   63641   63643   63645   63644   63646   63648   63647   63649
   63651   63650   63652   63654   63653   63655   63657   63656   63658
   63660   63659   63661   63663   63662   63664   63666   63665   63667
   63669   63668   63670   63672   63671   63673   63675   63674   63676
   63678   63677   63679   63681   63680   63682   63684   63683   63685
   63687   63686   63688   63690   63689   63691   63693   63692   63694
   63696   63695   63697   63699   63698   63700   63702   63701   63703
   63705   63704   63706   63708   63707   63709   63711   63710   63712
   63714   63713   63715   63717   63716   63718   63720   63719   63721
   63723   63722   63724   63726   63725   63727   63729   63728   63730
   63732   63731   63733   63735   63734   63736   63738   63737   63739
   63741   63740   63742   63744   63743   63745   63747   63746   63748
   63750   63749   63751   63753   63752   63754   63756   63755   63757
   63759   63758   63760   63762   63761   63763   63765   63764   63766
   63768   63767   63769   63771   63770   63772   63774   63773   63775
   63777   63776   63778   63780   63779   63781   63783   63782   63784
   63786   63785   63787   63789   63788   63790   63792   63791   63793
   63795   63794   63796   63798   63797   63799   63801   63800   63802
   63804   63803   63805   63807   63806   63808   63810   63809   63811
   63813   63812   63814   63816   63815   63817   63819   63818   63820
   63822   63821   63823   63825   63824   63826   63828   63827   63829
   63831   63830   63832   63834   63833   63835   63837   63836   63838
   63840   63839   63841   63843   63842   63844   63846   63845   63847
   63849   63848   63850   63852   63851   63853   63855   63854   63856
   63858   63857   63859   63861   63860   63862   63864   63863   63865
   63867   63866   63868   63870   63869   63871   63873   63872   63874
   63876   63875   63877   63879   63878   63880   63882   63881   63883
   63885   63884   63886   63888   63887   63889   63891   63890   63892
   63894   63893   63895   63897   63896   63898   63900   63899   63901
   63903   63902   63904   63906   63905   63907   63909   63908   63910
   63912   63911   63913   63915   63914   63916   63918   63917   63919
   63921   63920   63922   63924   63923   63925   63927   63926   63928
   63930   63929   63931   63933   63932   63934   63936   63935   63937
   63939   63938   63940   63942   63941   63943   63945   63944   63946
   63948   63947   63949   63951   63950   63952   63954   63953   63955
   63957   63956   63958   63960   63959   63961   63963   63962   63964
   63966   63965   63967   63969   63968   63970   63972   63971   63973
   63975   63974   63976   63978   63977   63979   63981   63980   63982
   63984   63983   63985   63987   63986   63988   63990   63989   63991
   63993   63992   63994   63996   63995   63997   63999   63998   64000
   64002   64001   64003   64005   64004   64006   64008   64007   64009
   64011   64010   64012   64014   64013   64015   64017   64016   64018
   64020   64019   64021   64023   64022   64024   64026   64025   64027
   64029   64028   64030   64032   64031   64033   64035   64034   64036
   64038   64037   64039   64041   64040   64042   64044   64043   64045
   64047   64046   64048   64050   64049   64051   64053   64052   64054
   64056   64055   64057   64059   64058   64060   64062   64061   64063
   64065   64064   64066   64068   64067   64069   64071   64070   64072
   64074   64073   64075   64077   64076   64078   64080   64079   64081
   64083   64082   64084   64086   64085   64087   64089   64088   64090
   64092   64091   64093   64095   64094   64096   64098   64097   64099
   64101   64100   64102   64104   64103   64105   64107   64106   64108
   64110   64109   64111   64113   64112   64114   64116   64115   64117
   64119   64118   64120   64122   64121   64123   64125   64124   64126
   64128   64127   64129   64131   64130   64132   64134   64133   64135
   64137   64136   64138   64140   64139   64141   64143   64142   64144
   64146   64145   64147   64149   64148   64150   64152   64151   64153
   64155   64154   64156   64158   64157   64159   64161   64160   64162
   64164   64163   64165   64167   64166   64168   64170   64169   64171
   64173   64172   64174   64176   64175   64177   64179   64178   64180
   64182   64181   64183   64185   64184   64186   64188   64187   64189
   64191   64190   64192   64194   64193   64195   64197   64196   64198
   64200   64199   64201   64203   64202   64204   64206   64205   64207
   64209   64208   64210   64212   64211   64213   64215   64214   64216
   64218   64217   64219   64221   64220   64222   64224   64223   64225
   64227   64226   64228   64230   64229   64231   64233   64232   64234
   64236   64235   64237   64239   64238   64240   64242   64241   64243
   64245   64244   64246   64248   64247   64249   64251   64250   64252
   64254   64253   64255   64257   64256   64258   64260   64259   64261
   64263   64262   64264   64266   64265   64267   64269   64268   64270
   64272   64271   64273   64275   64274   64276   64278   64277   64279
   64281   64280   64282   64284   64283   64285   64287   64286   64288
   64290   64289   64291   64293   64292   64294   64296   64295   64297
   64299   64298   64300   64302   64301   64303   64305   64304   64306
   64308   64307   64309   64311   64310   64312   64314   64313   64315
   64317   64316   64318   64320   64319   64321   64323   64322   64324
   64326   64325   64327   64329   64328   64330   64332   64331   64333
   64335   64334   64336   64338   64337   64339   64341   64340   64342
   64344   64343   64345   64347   64346   64348   64350   64349   64351
   64353   64352   64354   64356   64355   64357   64359   64358   64360
   64362   64361   64363   64365   64364   64366   64368   64367   64369
   64371   64370   64372   64374   64373   64375   64377   64376   64378
   64380   64379   64381   64383   64382   64384   64386   64385   64387
   64389   64388   64390   64392   64391   64393   64395   64394   64396
   64398   64397   64399   64401   64400   64402   64404   64403   64405
   64407   64406   64408   64410   64409   64411   64413   64412   64414
   64416   64415   64417   64419   64418   64420   64422   64421   64423
   64425   64424   64426   64428   64427   64429   64431   64430   64432
   64434   64433   64435   64437   64436   64438   64440   64439   64441
   64443   64442   64444   64446   64445   64447   64449   64448   64450
   64452   64451   64453   64455   64454   64456   64458   64457   64459
   64461   64460   64462   64464   64463   64465   64467   64466   64468
   64470   64469   64471   64473   64472   64474   64476   64475   64477
   64479   64478   64480   64482   64481   64483   64485   64484   64486
   64488   64487   64489   64491   64490   64492   64494   64493   64495
   64497   64496   64498   64500   64499   64501   64503   64502   64504
   64506   64505   64507   64509   64508   64510   64512   64511   64513
   64515   64514   64516   64518   64517   64519   64521   64520   64522
   64524   64523   64525   64527   64526   64528   64530   64529   64531
   64533   64532   64534   64536   64535   64537   64539   64538   64540
   64542   64541   64543   64545   64544   64546   64548   64547   64549
   64551   64550   64552   64554   64553   64555   64557   64556   64558
   64560   64559   64561   64563   64562   64564   64566   64565   64567
   64569   64568   64570   64572   64571   64573   64575   64574   64576
   64578   64577   64579   64581   64580   64582   64584   64583   64585
   64587   64586   64588   64590   64589   64591   64593   64592   64594
   64596   64595   64597   64599   64598   64600   64602   64601   64603
   64605   64604   64606   64608   64607   64609   64611   64610   64612
   64614   64613   64615   64617   64616   64618   64620   64619   64621
   64623   64622   64624   64626   64625   64627   64629   64628   64630
   64632   64631   64633   64635   64634   64636   64638   64637   64639
   64641   64640   64642   64644   64643   64645   64647   64646   64648
   64650   64649   64651   64653   64652   64654   64656   64655   64657
   64659   64658   64660   64662   64661   64663   64665   64664   64666
   64668   64667   64669   64671   64670   64672   64674   64673   64675
   64677   64676   64678   64680   64679   64681   64683   64682   64684
   64686   64685   64687   64689   64688   64690   64692   64691   64693
   64695   64694   64696   64698   64697   64699   64701   64700   64702
   64704   64703   64705   64707   64706   64708   64710   64709   64711
   64713   64712   64714   64716   64715   64717   64719   64718   64720
   64722   64721   64723   64725   64724   64726   64728   64727   64729
   64731   64730   64732   64734   64733   64735   64737   64736   64738
   64740   64739   64741   64743   64742   64744   64746   64745   64747
   64749   64748   64750   64752   64751   64753   64755   64754   64756
   64758   64757   64759   64761   64760   64762   64764   64763   64765
   64767   64766   64768   64770   64769   64771   64773   64772   64774
   64776   64775   64777   64779   64778   64780   64782   64781   64783
   64785   64784   64786   64788   64787   64789   64791   64790   64792
   64794   64793   64795   64797   64796   64798   64800   64799   64801
   64803   64802   64804   64806   64805   64807   64809   64808   64810
   64812   64811   64813   64815   64814   64816   64818   64817   64819
   64821   64820   64822   64824   64823   64825   64827   64826   64828
   64830   64829   64831   64833   64832   64834   64836   64835   64837
   64839   64838   64840   64842   64841   64843   64845   64844   64846
   64848   64847   64849   64851   64850   64852   64854   64853   64855
   64857   64856   64858   64860   64859   64861   64863   64862   64864
   64866   64865   64867   64869   64868   64870   64872   64871   64873
   64875   64874   64876   64878   64877   64879   64881   64880   64882
   64884   64883   64885   64887   64886   64888   64890   64889   64891
   64893   64892   64894   64896   64895   64897   64899   64898   64900
   64902   64901   64903   64905   64904   64906   64908   64907   64909
   64911   64910   64912   64914   64913   64915   64917   64916   64918
   64920   64919   64921   64923   64922   64924   64926   64925   64927
   64929   64928   64930   64932   64931   64933   64935   64934   64936
   64938   64937   64939   64941   64940   64942   64944   64943   64945
   64947   64946   64948   64950   64949   64951   64953   64952   64954
   64956   64955   64957   64959   64958   64960   64962   64961   64963
   64965   64964   64966   64968   64967   64969   64971   64970   64972
   64974   64973   64975   64977   64976   64978   64980   64979   64981
   64983   64982   64984   64986   64985   64987   64989   64988   64990
   64992   64991   64993   64995   64994   64996   64998   64997   64999
   65001   65000   65002   65004   65003   65005   65007   65006   65008
   65010   65009   65011   65013   65012   65014   65016   65015   65017
   65019   65018   65020   65022   65021   65023   65025   65024   65026
   65028   65027   65029   65031   65030   65032   65034   65033   65035
   65037   65036   65038   65040   65039   65041   65043   65042   65044
   65046   65045   65047   65049   65048   65050   65052   65051   65053
   65055   65054   65056   65058   65057   65059   65061   65060   65062
   65064   65063   65065   65067   65066   65068   65070   65069   65071
   65073   65072   65074   65076   65075   65077   65079   65078   65080
   65082   65081   65083   65085   65084   65086   65088   65087   65089
   65091   65090   65092   65094   65093   65095   65097   65096   65098
   65100   65099   65101   65103   65102   65104   65106   65105   65107
   65109   65108   65110   65112   65111   65113   65115   65114   65116
   65118   65117   65119   65121   65120   65122   65124   65123   65125
   65127   65126   65128   65130   65129   65131   65133   65132   65134
   65136   65135   65137   65139   65138   65140   65142   65141   65143
   65145   65144   65146   65148   65147   65149   65151   65150   65152
   65154   65153   65155   65157   65156   65158   65160   65159   65161
   65163   65162   65164   65166   65165   65167   65169   65168   65170
   65172   65171   65173   65175   65174   65176   65178   65177   65179
   65181   65180   65182   65184   65183   65185   65187   65186   65188
   65190   65189   65191   65193   65192   65194   65196   65195   65197
   65199   65198   65200   65202   65201   65203   65205   65204   65206
   65208   65207   65209   65211   65210   65212   65214   65213   65215
   65217   65216   65218   65220   65219   65221   65223   65222   65224
   65226   65225   65227   65229   65228   65230   65232   65231   65233
   65235   65234   65236   65238   65237   65239   65241   65240   65242
   65244   65243   65245   65247   65246   65248   65250   65249   65251
   65253   65252   65254   65256   65255   65257   65259   65258   65260
   65262   65261   65263   65265   65264   65266   65268   65267   65269
   65271   65270   65272   65274   65273   65275   65277   65276   65278
   65280   65279   65281   65283   65282   65284   65286   65285   65287
   65289   65288   65290   65292   65291   65293   65295   65294   65296
   65298   65297   65299   65301   65300   65302   65304   65303   65305
   65307   65306   65308   65310   65309   65311   65313   65312   65314
   65316   65315   65317   65319   65318   65320   65322   65321   65323
   65325   65324   65326   65328   65327   65329   65331   65330   65332
   65334   65333   65335   65337   65336   65338   65340   65339   65341
   65343   65342   65344   65346   65345   65347   65349   65348   65350
   65352   65351   65353   65355   65354   65356   65358   65357   65359
   65361   65360   65362   65364   65363   65365   65367   65366   65368
   65370   65369   65371   65373   65372   65374   65376   65375   65377
   65379   65378   65380   65382   65381   65383   65385   65384   65386
   65388   65387   65389   65391   65390   65392   65394   65393   65395
   65397   65396   65398   65400   65399   65401   65403   65402   65404
   65406   65405   65407   65409   65408   65410   65412   65411   65413
   65415   65414   65416   65418   65417   65419   65421   65420   65422
   65424   65423   65425   65427   65426   65428   65430   65429   65431
   65433   65432   65434   65436   65435   65437   65439   65438   65440
   65442   65441   65443   65445   65444   65446   65448   65447   65449
   65451   65450   65452   65454   65453   65455   65457   65456   65458
   65460   65459   65461   65463   65462   65464   65466   65465   65467
   65469   65468   65470   65472   65471   65473   65475   65474   65476
   65478   65477   65479   65481   65480   65482   65484   65483   65485
   65487   65486   65488   65490   65489   65491   65493   65492   65494
   65496   65495   65497   65499   65498   65500   65502   65501   65503
   65505   65504   65506   65508   65507   65509   65511   65510   65512
   65514   65513   65515   65517   65516   65518   65520   65519   65521
   65523   65522   65524   65526   65525   65527   65529   65528   65530
   65532   65531   65533   65535   65534   65536   65538   65537   65539
   65541   65540   65542   65544   65543   65545   65547   65546   65548
   65550   65549   65551   65553   65552   65554   65556   65555   65557
   65559   65558   65560   65562   65561   65563   65565   65564   65566
   65568   65567   65569   65571   65570   65572   65574   65573   65575
   65577   65576   65578   65580   65579   65581   65583   65582   65584
   65586   65585   65587   65589   65588   65590   65592   65591   65593
   65595   65594   65596   65598   65597   65599   65601   65600   65602
   65604   65603   65605   65607   65606   65608   65610   65609   65611
   65613   65612   65614   65616   65615   65617   65619   65618   65620
   65622   65621   65623   65625   65624   65626   65628   65627   65629
   65631   65630   65632   65634   65633   65635   65637   65636   65638
   65640   65639   65641   65643   65642   65644   65646   65645   65647
   65649   65648   65650   65652   65651   65653   65655   65654   65656
   65658   65657   65659   65661   65660   65662   65664   65663   65665
   65667   65666   65668   65670   65669   65671   65673   65672   65674
   65676   65675   65677   65679   65678   65680   65682   65681   65683
   65685   65684   65686   65688   65687   65689   65691   65690   65692
   65694   65693   65695   65697   65696   65698   65700   65699   65701
   65703   65702   65704   65706   65705   65707   65709   65708   65710
   65712   65711   65713   65715   65714   65716   65718   65717   65719
   65721   65720   65722   65724   65723   65725   65727   65726   65728
   65730   65729   65731   65733   65732   65734   65736   65735   65737
   65739   65738   65740   65742   65741   65743   65745   65744   65746
   65748   65747   65749   65751   65750   65752   65754   65753   65755
   65757   65756   65758   65760   65759   65761   65763   65762   65764
   65766   65765   65767   65769   65768   65770   65772   65771   65773
   65775   65774   65776   65778   65777   65779   65781   65780   65782
   65784   65783   65785   65787   65786   65788   65790   65789   65791
   65793   65792   65794   65796   65795   65797   65799   65798   65800
   65802   65801   65803   65805   65804   65806   65808   65807   65809
   65811   65810   65812   65814   65813   65815   65817   65816   65818
   65820   65819   65821   65823   65822   65824   65826   65825   65827
   65829   65828   65830   65832   65831   65833   65835   65834   65836
   65838   65837   65839   65841   65840   65842   65844   65843   65845
   65847   65846   65848   65850   65849   65851   65853   65852   65854
   65856   65855   65857   65859   65858   65860   65862   65861   65863
   65865   65864   65866   65868   65867   65869   65871   65870   65872
   65874   65873   65875   65877   65876   65878   65880   65879   65881
   65883   65882   65884   65886   65885   65887   65889   65888   65890
   65892   65891   65893   65895   65894   65896   65898   65897   65899
   65901   65900   65902   65904   65903   65905   65907   65906   65908
   65910   65909   65911   65913   65912   65914   65916   65915   65917
   65919   65918   65920   65922   65921   65923   65925   65924   65926
   65928   65927   65929   65931   65930   65932   65934   65933   65935
   65937   65936   65938   65940   65939   65941   65943   65942   65944
   65946   65945   65947   65949   65948   65950   65952   65951   65953
   65955   65954   65956   65958   65957   65959   65961   65960   65962
   65964   65963   65965   65967   65966   65968   65970   65969   65971
   65973   65972   65974   65976   65975   65977   65979   65978   65980
   65982   65981   65983   65985   65984   65986   65988   65987   65989
   65991   65990   65992   65994   65993   65995   65997   65996   65998
   66000   65999   66001   66003   66002   66004   66006   66005   66007
   66009   66008   66010   66012   66011   66013   66015   66014   66016
   66018   66017   66019   66021   66020   66022   66024   66023   66025
   66027   66026   66028   66030   66029   66031   66033   66032   66034
   66036   66035   66037   66039   66038   66040   66042   66041   66043
   66045   66044   66046   66048   66047   66049   66051   66050   66052
   66054   66053   66055   66057   66056   66058   66060   66059   66061
   66063   66062   66064   66066   66065   66067   66069   66068   66070
   66072   66071   66073   66075   66074   66076   66078   66077   66079
   66081   66080   66082   66084   66083   66085   66087   66086   66088
   66090   66089   66091   66093   66092   66094   66096   66095   66097
   66099   66098   66100   66102   66101   66103   66105   66104   66106
   66108   66107   66109   66111   66110   66112   66114   66113   66115
   66117   66116   66118   66120   66119   66121   66123   66122   66124
   66126   66125   66127   66129   66128   66130   66132   66131   66133
   66135   66134   66136   66138   66137   66139   66141   66140   66142
   66144   66143   66145   66147   66146   66148   66150   66149   66151
   66153   66152   66154   66156   66155   66157   66159   66158   66160
   66162   66161   66163   66165   66164   66166   66168   66167   66169
   66171   66170   66172   66174   66173   66175   66177   66176   66178
   66180   66179   66181   66183   66182   66184   66186   66185   66187
   66189   66188   66190   66192   66191   66193   66195   66194   66196
   66198   66197   66199   66201   66200   66202   66204   66203   66205
   66207   66206   66208   66210   66209   66211   66213   66212   66214
   66216   66215   66217   66219   66218   66220   66222   66221   66223
   66225   66224   66226   66228   66227   66229   66231   66230   66232
   66234   66233   66235   66237   66236   66238   66240   66239   66241
   66243   66242   66244   66246   66245   66247   66249   66248   66250
   66252   66251   66253   66255   66254   66256   66258   66257   66259
   66261   66260   66262   66264   66263   66265   66267   66266   66268
   66270   66269   66271   66273   66272   66274   66276   66275   66277
   66279   66278   66280   66282   66281   66283   66285   66284   66286
   66288   66287   66289   66291   66290   66292   66294   66293   66295
   66297   66296   66298   66300   66299   66301   66303   66302   66304
   66306   66305   66307   66309   66308   66310   66312   66311   66313
   66315   66314   66316   66318   66317   66319   66321   66320   66322
   66324   66323   66325   66327   66326   66328   66330   66329   66331
   66333   66332   66334   66336   66335   66337   66339   66338   66340
   66342   66341   66343   66345   66344   66346   66348   66347   66349
   66351   66350   66352   66354   66353   66355   66357   66356   66358
   66360   66359   66361   66363   66362   66364   66366   66365   66367
   66369   66368   66370   66372   66371   66373   66375   66374   66376
   66378   66377   66379   66381   66380   66382   66384   66383   66385
   66387   66386   66388   66390   66389   66391   66393   66392   66394
   66396   66395   66397   66399   66398   66400   66402   66401   66403
   66405   66404   66406   66408   66407   66409   66411   66410   66412
   66414   66413   66415   66417   66416   66418   66420   66419   66421
   66423   66422   66424   66426   66425   66427   66429   66428   66430
   66432   66431   66433   66435   66434   66436   66438   66437   66439
   66441   66440   66442   66444   66443   66445   66447   66446   66448
   66450   66449   66451   66453   66452   66454   66456   66455   66457
   66459   66458   66460   66462   66461   66463   66465   66464   66466
   66468   66467   66469   66471   66470   66472   66474   66473   66475
   66477   66476   66478   66480   66479   66481   66483   66482   66484
   66486   66485   66487   66489   66488   66490   66492   66491   66493
   66495   66494   66496   66498   66497   66499   66501   66500   66502
   66504   66503   66505   66507   66506   66508   66510   66509   66511
   66513   66512   66514   66516   66515   66517   66519   66518   66520
   66522   66521   66523   66525   66524   66526   66528   66527   66529
   66531   66530   66532   66534   66533   66535   66537   66536   66538
   66540   66539   66541   66543   66542   66544   66546   66545   66547
   66549   66548   66550   66552   66551   66553   66555   66554   66556
   66558   66557   66559   66561   66560   66562   66564   66563   66565
   66567   66566   66568   66570   66569   66571   66573   66572   66574
   66576   66575   66577   66579   66578   66580   66582   66581   66583
   66585   66584   66586   66588   66587   66589   66591   66590   66592
   66594   66593   66595   66597   66596   66598   66600   66599   66601
   66603   66602   66604   66606   66605   66607   66609   66608   66610
   66612   66611   66613   66615   66614   66616   66618   66617   66619
   66621   66620   66622   66624   66623   66625   66627   66626   66628
   66630   66629   66631   66633   66632   66634   66636   66635   66637
   66639   66638   66640   66642   66641   66643   66645   66644   66646
   66648   66647   66649   66651   66650   66652   66654   66653   66655
   66657   66656   66658   66660   66659   66661   66663   66662   66664
   66666   66665   66667   66669   66668   66670   66672   66671   66673
   66675   66674   66676   66678   66677   66679   66681   66680   66682
   66684   66683   66685   66687   66686   66688   66690   66689   66691
   66693   66692   66694   66696   66695   66697   66699   66698   66700
   66702   66701   66703   66705   66704   66706   66708   66707   66709
   66711   66710   66712   66714   66713   66715   66717   66716   66718
   66720   66719   66721   66723   66722   66724   66726   66725   66727
   66729   66728   66730   66732   66731   66733   66735   66734   66736
   66738   66737   66739   66741   66740   66742   66744   66743   66745
   66747   66746   66748   66750   66749   66751   66753   66752   66754
   66756   66755   66757   66759   66758   66760   66762   66761   66763
   66765   66764   66766   66768   66767   66769   66771   66770   66772
   66774   66773   66775   66777   66776   66778   66780   66779   66781
   66783   66782   66784   66786   66785   66787   66789   66788   66790
   66792   66791   66793   66795   66794   66796   66798   66797   66799
   66801   66800   66802   66804   66803   66805   66807   66806   66808
   66810   66809   66811   66813   66812   66814   66816   66815   66817
   66819   66818   66820   66822   66821   66823   66825   66824   66826
   66828   66827   66829   66831   66830   66832   66834   66833   66835
   66837   66836   66838   66840   66839   66841   66843   66842   66844
   66846   66845   66847   66849   66848   66850   66852   66851   66853
   66855   66854   66856   66858   66857   66859   66861   66860   66862
   66864   66863   66865   66867   66866   66868   66870   66869   66871
   66873   66872   66874   66876   66875   66877   66879   66878   66880
   66882   66881   66883   66885   66884   66886   66888   66887   66889
   66891   66890   66892   66894   66893   66895   66897   66896   66898
   66900   66899   66901   66903   66902   66904   66906   66905   66907
   66909   66908   66910   66912   66911   66913   66915   66914   66916
   66918   66917   66919   66921   66920   66922   66924   66923   66925
   66927   66926   66928   66930   66929   66931   66933   66932   66934
   66936   66935   66937   66939   66938   66940   66942   66941   66943
   66945   66944   66946   66948   66947   66949   66951   66950   66952
   66954   66953   66955   66957   66956   66958   66960   66959   66961
   66963   66962   66964   66966   66965   66967   66969   66968   66970
   66972   66971   66973   66975   66974   66976   66978   66977   66979
   66981   66980   66982   66984   66983   66985   66987   66986   66988
   66990   66989   66991   66993   66992   66994   66996   66995   66997
   66999   66998   67000   67002   67001   67003   67005   67004   67006
   67008   67007   67009   67011   67010   67012   67014   67013   67015
   67017   67016   67018   67020   67019   67021   67023   67022   67024
   67026   67025   67027   67029   67028   67030   67032   67031   67033
   67035   67034   67036   67038   67037   67039   67041   67040   67042
   67044   67043   67045   67047   67046   67048   67050   67049   67051
   67053   67052   67054   67056   67055   67057   67059   67058   67060
   67062   67061   67063   67065   67064   67066   67068   67067   67069
   67071   67070   67072   67074   67073   67075   67077   67076   67078
   67080   67079   67081   67083   67082   67084   67086   67085   67087
   67089   67088   67090   67092   67091   67093   67095   67094   67096
   67098   67097   67099   67101   67100   67102   67104   67103   67105
   67107   67106   67108   67110   67109   67111   67113   67112   67114
   67116   67115   67117   67119   67118   67120   67122   67121   67123
   67125   67124   67126   67128   67127   67129   67131   67130   67132
   67134   67133   67135   67137   67136   67138   67140   67139   67141
   67143   67142   67144   67146   67145   67147   67149   67148   67150
   67152   67151   67153   67155   67154   67156   67158   67157   67159
   67161   67160   67162   67164   67163   67165   67167   67166   67168
   67170   67169   67171   67173   67172   67174   67176   67175   67177
   67179   67178   67180   67182   67181   67183   67185   67184   67186
   67188   67187   67189   67191   67190   67192   67194   67193   67195
   67197   67196   67198   67200   67199   67201   67203   67202   67204
   67206   67205   67207   67209   67208   67210   67212   67211   67213
   67215   67214   67216   67218   67217   67219   67221   67220   67222
   67224   67223   67225   67227   67226   67228   67230   67229   67231
   67233   67232   67234   67236   67235   67237   67239   67238   67240
   67242   67241   67243   67245   67244   67246   67248   67247   67249
   67251   67250   67252   67254   67253   67255   67257   67256   67258
   67260   67259   67261   67263   67262   67264   67266   67265   67267
   67269   67268   67270   67272   67271   67273   67275   67274   67276
   67278   67277   67279   67281   67280   67282   67284   67283   67285
   67287   67286   67288   67290   67289   67291   67293   67292   67294
   67296   67295   67297   67299   67298   67300   67302   67301   67303
   67305   67304   67306   67308   67307   67309   67311   67310   67312
   67314   67313   67315   67317   67316   67318   67320   67319   67321
   67323   67322   67324   67326   67325   67327   67329   67328   67330
   67332   67331   67333   67335   67334   67336   67338   67337   67339
   67341   67340   67342   67344   67343   67345   67347   67346   67348
   67350   67349   67351   67353   67352   67354   67356   67355   67357
   67359   67358   67360   67362   67361   67363   67365   67364   67366
   67368   67367   67369   67371   67370   67372   67374   67373   67375
   67377   67376   67378   67380   67379   67381   67383   67382   67384
   67386   67385   67387   67389   67388   67390   67392   67391   67393
   67395   67394   67396   67398   67397   67399   67401   67400   67402
   67404   67403   67405   67407   67406   67408   67410   67409   67411
   67413   67412   67414   67416   67415   67417   67419   67418   67420
   67422   67421   67423   67425   67424   67426   67428   67427   67429
   67431   67430   67432   67434   67433   67435   67437   67436   67438
   67440   67439   67441   67443   67442   67444   67446   67445   67447
   67449   67448   67450   67452   67451   67453   67455   67454   67456
   67458   67457   67459   67461   67460   67462   67464   67463   67465
   67467   67466   67468   67470   67469   67471   67473   67472   67474
   67476   67475   67477   67479   67478   67480   67482   67481   67483
   67485   67484   67486   67488   67487   67489   67491   67490   67492
   67494   67493   67495   67497   67496   67498   67500   67499   67501
   67503   67502   67504   67506   67505   67507   67509   67508   67510
   67512   67511   67513   67515   67514   67516   67518   67517   67519
   67521   67520   67522   67524   67523   67525   67527   67526   67528
   67530   67529   67531   67533   67532   67534   67536   67535   67537
   67539   67538   67540   67542   67541   67543   67545   67544   67546
   67548   67547   67549   67551   67550   67552   67554   67553   67555
   67557   67556   67558   67560   67559   67561   67563   67562   67564
   67566   67565   67567   67569   67568   67570   67572   67571   67573
   67575   67574   67576   67578   67577   67579   67581   67580   67582
   67584   67583   67585   67587   67586   67588   67590   67589   67591
   67593   67592   67594   67596   67595   67597   67599   67598   67600
   67602   67601   67603   67605   67604   67606   67608   67607   67609
   67611   67610   67612   67614   67613   67615   67617   67616   67618
   67620   67619   67621   67623   67622   67624   67626   67625   67627
   67629   67628   67630   67632   67631   67633   67635   67634   67636
   67638   67637   67639   67641   67640   67642   67644   67643   67645
   67647   67646   67648   67650   67649   67651   67653   67652   67654
   67656   67655   67657   67659   67658   67660   67662   67661   67663
   67665   67664   67666   67668   67667   67669   67671   67670   67672
   67674   67673   67675   67677   67676   67678   67680   67679   67681
   67683   67682   67684   67686   67685   67687   67689   67688   67690
   67692   67691   67693   67695   67694   67696   67698   67697   67699
   67701   67700   67702   67704   67703   67705   67707   67706   67708
   67710   67709   67711   67713   67712   67714   67716   67715   67717
   67719   67718   67720   67722   67721   67723   67725   67724   67726
   67728   67727   67729   67731   67730   67732   67734   67733   67735
   67737   67736   67738   67740   67739   67741   67743   67742   67744
   67746   67745   67747   67749   67748   67750   67752   67751   67753
   67755   67754   67756   67758   67757   67759   67761   67760   67762
   67764   67763   67765   67767   67766   67768   67770   67769   67771
   67773   67772   67774   67776   67775   67777   67779   67778   67780
   67782   67781   67783   67785   67784   67786   67788   67787   67789
   67791   67790   67792   67794   67793   67795   67797   67796   67798
   67800   67799   67801   67803   67802   67804   67806   67805   67807
   67809   67808   67810   67812   67811   67813   67815   67814   67816
   67818   67817   67819   67821   67820   67822   67824   67823   67825
   67827   67826   67828   67830   67829   67831   67833   67832   67834
   67836   67835   67837   67839   67838   67840   67842   67841   67843
   67845   67844   67846   67848   67847   67849   67851   67850   67852
   67854   67853   67855   67857   67856   67858   67860   67859   67861
   67863   67862   67864   67866   67865   67867   67869   67868   67870
   67872   67871   67873   67875   67874   67876   67878   67877   67879
   67881   67880   67882   67884   67883   67885   67887   67886   67888
   67890   67889   67891   67893   67892   67894   67896   67895   67897
   67899   67898   67900   67902   67901   67903   67905   67904   67906
   67908   67907   67909   67911   67910   67912   67914   67913   67915
   67917   67916   67918   67920   67919   67921   67923   67922   67924
   67926   67925   67927   67929   67928   67930   67932   67931   67933
   67935   67934   67936   67938   67937   67939   67941   67940   67942
   67944   67943   67945   67947   67946   67948   67950   67949   67951
   67953   67952   67954   67956   67955   67957   67959   67958   67960
   67962   67961   67963   67965   67964   67966   67968   67967   67969
   67971   67970   67972   67974   67973   67975   67977   67976   67978
   67980   67979   67981   67983   67982   67984   67986   67985   67987
   67989   67988   67990   67992   67991   67993   67995   67994   67996
   67998   67997   67999   68001   68000   68002   68004   68003   68005
   68007   68006   68008   68010   68009   68011   68013   68012   68014
   68016   68015   68017   68019   68018   68020   68022   68021   68023
   68025   68024   68026   68028   68027   68029   68031   68030   68032
   68034   68033   68035   68037   68036   68038   68040   68039   68041
   68043   68042   68044   68046   68045   68047   68049   68048   68050
   68052   68051   68053   68055   68054   68056   68058   68057   68059
   68061   68060   68062   68064   68063   68065   68067   68066   68068
   68070   68069   68071   68073   68072   68074   68076   68075   68077
   68079   68078   68080   68082   68081   68083   68085   68084   68086
   68088   68087   68089   68091   68090   68092   68094   68093   68095
   68097   68096   68098   68100   68099   68101   68103   68102   68104
   68106   68105   68107   68109   68108   68110   68112   68111   68113
   68115   68114   68116   68118   68117   68119   68121   68120   68122
   68124   68123   68125   68127   68126   68128   68130   68129   68131
   68133   68132   68134   68136   68135   68137   68139   68138   68140
   68142   68141   68143   68145   68144   68146   68148   68147   68149
   68151   68150   68152   68154   68153   68155   68157   68156   68158
   68160   68159   68161   68163   68162   68164   68166   68165   68167
   68169   68168   68170   68172   68171   68173   68175   68174   68176
   68178   68177   68179   68181   68180   68182   68184   68183   68185
   68187   68186   68188   68190   68189   68191   68193   68192   68194
   68196   68195   68197   68199   68198   68200   68202   68201   68203
   68205   68204   68206   68208   68207   68209   68211   68210   68212
   68214   68213   68215   68217   68216   68218   68220   68219   68221
   68223   68222   68224   68226   68225   68227   68229   68228   68230
   68232   68231   68233   68235   68234   68236   68238   68237   68239
   68241   68240   68242   68244   68243   68245   68247   68246   68248
   68250   68249   68251   68253   68252   68254   68256   68255   68257
   68259   68258   68260   68262   68261   68263   68265   68264   68266
   68268   68267   68269   68271   68270   68272   68274   68273   68275
   68277   68276   68278   68280   68279   68281   68283   68282   68284
   68286   68285   68287   68289   68288   68290   68292   68291   68293
   68295   68294   68296   68298   68297   68299   68301   68300   68302
   68304   68303   68305   68307   68306   68308   68310   68309   68311
   68313   68312   68314   68316   68315   68317   68319   68318   68320
   68322   68321   68323   68325   68324   68326   68328   68327   68329
   68331   68330   68332   68334   68333   68335   68337   68336   68338
   68340   68339   68341   68343   68342   68344   68346   68345   68347
   68349   68348   68350   68352   68351   68353   68355   68354   68356
   68358   68357   68359   68361   68360   68362   68364   68363   68365
   68367   68366   68368   68370   68369   68371   68373   68372   68374
   68376   68375   68377   68379   68378   68380   68382   68381   68383
   68385   68384   68386   68388   68387   68389   68391   68390   68392
   68394   68393   68395   68397   68396   68398   68400   68399   68401
   68403   68402   68404   68406   68405   68407   68409   68408   68410
   68412   68411   68413   68415   68414   68416   68418   68417   68419
   68421   68420   68422   68424   68423   68425   68427   68426   68428
   68430   68429   68431   68433   68432   68434   68436   68435   68437
   68439   68438   68440   68442   68441   68443   68445   68444   68446
   68448   68447   68449   68451   68450   68452   68454   68453   68455
   68457   68456   68458   68460   68459   68461   68463   68462   68464
   68466   68465   68467   68469   68468   68470   68472   68471   68473
   68475   68474   68476   68478   68477   68479   68481   68480   68482
   68484   68483   68485   68487   68486   68488   68490   68489   68491
   68493   68492   68494   68496   68495   68497   68499   68498   68500
   68502   68501   68503   68505   68504   68506   68508   68507   68509
   68511   68510   68512   68514   68513   68515   68517   68516   68518
   68520   68519   68521   68523   68522   68524   68526   68525   68527
   68529   68528   68530   68532   68531   68533   68535   68534   68536
   68538   68537   68539   68541   68540   68542   68544   68543   68545
   68547   68546   68548   68550   68549   68551   68553   68552   68554
   68556   68555   68557   68559   68558   68560   68562   68561   68563
   68565   68564   68566   68568   68567   68569   68571   68570   68572
   68574   68573   68575   68577   68576   68578   68580   68579   68581
   68583   68582   68584   68586   68585   68587   68589   68588   68590
   68592   68591   68593   68595   68594   68596   68598   68597   68599
   68601   68600   68602   68604   68603   68605   68607   68606   68608
   68610   68609   68611   68613   68612   68614   68616   68615   68617
   68619   68618   68620   68622   68621   68623   68625   68624   68626
   68628   68627   68629   68631   68630   68632   68634   68633   68635
   68637   68636   68638   68640   68639   68641   68643   68642   68644
   68646   68645   68647   68649   68648   68650   68652   68651   68653
   68655   68654   68656   68658   68657   68659   68661   68660   68662
   68664   68663   68665   68667   68666   68668   68670   68669   68671
   68673   68672   68674   68676   68675   68677   68679   68678   68680
   68682   68681   68683   68685   68684   68686   68688   68687   68689
   68691   68690   68692   68694   68693   68695   68697   68696   68698
   68700   68699   68701   68703   68702   68704   68706   68705   68707
   68709   68708   68710   68712   68711   68713   68715   68714   68716
   68718   68717   68719   68721   68720   68722   68724   68723   68725
   68727   68726   68728   68730   68729   68731   68733   68732   68734
   68736   68735   68737   68739   68738   68740   68742   68741   68743
   68745   68744   68746   68748   68747   68749   68751   68750   68752
   68754   68753   68755   68757   68756   68758   68760   68759   68761
   68763   68762   68764   68766   68765   68767   68769   68768   68770
   68772   68771   68773   68775   68774   68776   68778   68777   68779
   68781   68780   68782   68784   68783   68785   68787   68786   68788
   68790   68789   68791   68793   68792   68794   68796   68795   68797
   68799   68798   68800   68802   68801   68803   68805   68804   68806
   68808   68807   68809   68811   68810   68812   68814   68813   68815
   68817   68816   68818   68820   68819   68821   68823   68822   68824
   68826   68825   68827   68829   68828   68830   68832   68831   68833
   68835   68834   68836   68838   68837   68839   68841   68840   68842
   68844   68843   68845   68847   68846   68848   68850   68849   68851
   68853   68852   68854   68856   68855   68857   68859   68858   68860
   68862   68861   68863   68865   68864   68866   68868   68867   68869
   68871   68870   68872   68874   68873   68875   68877   68876   68878
   68880   68879   68881   68883   68882   68884   68886   68885   68887
   68889   68888   68890   68892   68891   68893   68895   68894   68896
   68898   68897   68899   68901   68900   68902   68904   68903   68905
   68907   68906   68908   68910   68909   68911   68913   68912   68914
   68916   68915   68917   68919   68918   68920   68922   68921   68923
   68925   68924   68926   68928   68927   68929   68931   68930   68932
   68934   68933   68935   68937   68936   68938   68940   68939   68941
   68943   68942   68944   68946   68945   68947   68949   68948   68950
   68952   68951   68953   68955   68954   68956   68958   68957   68959
   68961   68960   68962   68964   68963   68965   68967   68966   68968
   68970   68969   68971   68973   68972   68974   68976   68975   68977
   68979   68978   68980   68982   68981   68983   68985   68984   68986
   68988   68987   68989   68991   68990   68992   68994   68993   68995
   68997   68996   68998   69000   68999   69001   69003   69002   69004
   69006   69005   69007   69009   69008   69010   69012   69011   69013
   69015   69014   69016   69018   69017   69019   69021   69020   69022
   69024   69023   69025   69027   69026   69028   69030   69029   69031
   69033   69032   69034   69036   69035   69037   69039   69038   69040
   69042   69041   69043   69045   69044   69046   69048   69047   69049
   69051   69050   69052   69054   69053   69055   69057   69056   69058
   69060   69059   69061   69063   69062   69064   69066   69065   69067
   69069   69068   69070   69072   69071   69073   69075   69074   69076
   69078   69077   69079   69081   69080   69082   69084   69083   69085
   69087   69086   69088   69090   69089   69091   69093   69092   69094
   69096   69095   69097   69099   69098   69100   69102   69101   69103
   69105   69104   69106   69108   69107   69109   69111   69110   69112
   69114   69113   69115   69117   69116   69118   69120   69119   69121
   69123   69122   69124   69126   69125   69127   69129   69128   69130
   69132   69131   69133   69135   69134   69136   69138   69137   69139
   69141   69140   69142   69144   69143   69145   69147   69146   69148
   69150   69149   69151   69153   69152   69154   69156   69155   69157
   69159   69158   69160   69162   69161   69163   69165   69164   69166
   69168   69167   69169   69171   69170   69172   69174   69173   69175
   69177   69176   69178   69180   69179   69181   69183   69182   69184
   69186   69185   69187   69189   69188   69190   69192   69191   69193
   69195   69194   69196   69198   69197   69199   69201   69200   69202
   69204   69203   69205   69207   69206   69208   69210   69209   69211
   69213   69212   69214   69216   69215   69217   69219   69218   69220
   69222   69221   69223   69225   69224   69226   69228   69227   69229
   69231   69230   69232   69234   69233   69235   69237   69236   69238
   69240   69239   69241   69243   69242   69244   69246   69245   69247
   69249   69248   69250   69252   69251   69253   69255   69254   69256
   69258   69257   69259   69261   69260   69262   69264   69263   69265
   69267   69266   69268   69270   69269   69271   69273   69272   69274
   69276   69275   69277   69279   69278   69280   69282   69281   69283
   69285   69284   69286   69288   69287   69289   69291   69290   69292
   69294   69293   69295   69297   69296   69298   69300   69299   69301
   69303   69302   69304   69306   69305   69307   69309   69308   69310
   69312   69311   69313   69315   69314   69316   69318   69317   69319
   69321   69320   69322   69324   69323   69325   69327   69326   69328
   69330   69329   69331   69333   69332   69334   69336   69335   69337
   69339   69338   69340   69342   69341   69343   69345   69344   69346
   69348   69347   69349   69351   69350   69352   69354   69353   69355
   69357   69356   69358   69360   69359   69361   69363   69362   69364
   69366   69365   69367   69369   69368   69370   69372   69371   69373
   69375   69374   69376   69378   69377   69379   69381   69380   69382
   69384   69383   69385   69387   69386   69388   69390   69389   69391
   69393   69392   69394   69396   69395   69397   69399   69398   69400
   69402   69401   69403   69405   69404   69406   69408   69407   69409
   69411   69410   69412   69414   69413   69415   69417   69416   69418
   69420   69419   69421   69423   69422   69424   69426   69425   69427
   69429   69428   69430   69432   69431   69433   69435   69434   69436
   69438   69437   69439   69441   69440   69442   69444   69443   69445
   69447   69446   69448   69450   69449   69451   69453   69452   69454
   69456   69455   69457   69459   69458   69460   69462   69461   69463
   69465   69464   69466   69468   69467   69469   69471   69470   69472
   69474   69473   69475   69477   69476   69478   69480   69479   69481
   69483   69482   69484   69486   69485   69487   69489   69488   69490
   69492   69491   69493   69495   69494   69496   69498   69497   69499
   69501   69500   69502   69504   69503   69505   69507   69506   69508
   69510   69509   69511   69513   69512   69514   69516   69515   69517
   69519   69518   69520   69522   69521   69523   69525   69524   69526
   69528   69527   69529   69531   69530   69532   69534   69533   69535
   69537   69536   69538   69540   69539   69541   69543   69542   69544
   69546   69545   69547   69549   69548   69550   69552   69551   69553
   69555   69554   69556   69558   69557   69559   69561   69560   69562
   69564   69563   69565   69567   69566   69568   69570   69569   69571
   69573   69572   69574   69576   69575   69577   69579   69578   69580
   69582   69581   69583   69585   69584   69586   69588   69587   69589
   69591   69590   69592   69594   69593   69595   69597   69596   69598
   69600   69599   69601   69603   69602   69604   69606   69605   69607
   69609   69608   69610   69612   69611   69613   69615   69614   69616
   69618   69617   69619   69621   69620   69622   69624   69623   69625
   69627   69626   69628   69630   69629   69631   69633   69632   69634
   69636   69635   69637   69639   69638   69640   69642   69641   69643
   69645   69644   69646   69648   69647   69649   69651   69650   69652
   69654   69653   69655   69657   69656   69658   69660   69659   69661
   69663   69662   69664   69666   69665   69667   69669   69668   69670
   69672   69671   69673   69675   69674   69676   69678   69677   69679
   69681   69680   69682   69684   69683   69685   69687   69686   69688
   69690   69689   69691   69693   69692   69694   69696   69695   69697
   69699   69698   69700   69702   69701   69703   69705   69704   69706
   69708   69707   69709   69711   69710   69712   69714   69713   69715
   69717   69716   69718   69720   69719   69721   69723   69722   69724
   69726   69725   69727   69729   69728   69730   69732   69731   69733
   69735   69734   69736   69738   69737   69739   69741   69740   69742
   69744   69743   69745   69747   69746   69748   69750   69749   69751
   69753   69752   69754   69756   69755   69757   69759   69758   69760
   69762   69761   69763   69765   69764   69766   69768   69767   69769
   69771   69770   69772   69774   69773   69775   69777   69776   69778
   69780   69779   69781   69783   69782   69784   69786   69785   69787
   69789   69788   69790   69792   69791   69793   69795   69794   69796
   69798   69797   69799   69801   69800   69802   69804   69803   69805
   69807   69806   69808   69810   69809   69811   69813   69812   69814
   69816   69815   69817   69819   69818   69820   69822   69821   69823
   69825   69824   69826   69828   69827   69829   69831   69830   69832
   69834   69833   69835   69837   69836   69838   69840   69839   69841
   69843   69842   69844   69846   69845   69847   69849   69848   69850
   69852   69851   69853   69855   69854   69856   69858   69857   69859
   69861   69860   69862   69864   69863   69865   69867   69866   69868
   69870   69869   69871   69873   69872   69874   69876   69875   69877
   69879   69878   69880   69882   69881   69883   69885   69884   69886
   69888   69887   69889   69891   69890   69892   69894   69893   69895
   69897   69896   69898   69900   69899   69901   69903   69902   69904
   69906   69905   69907   69909   69908   69910   69912   69911   69913
   69915   69914   69916   69918   69917   69919   69921   69920   69922
   69924   69923   69925   69927   69926   69928   69930   69929   69931
   69933   69932   69934   69936   69935   69937   69939   69938   69940
   69942   69941   69943   69945   69944   69946   69948   69947   69949
   69951   69950   69952   69954   69953   69955   69957   69956   69958
   69960   69959   69961   69963   69962   69964   69966   69965   69967
   69969   69968   69970   69972   69971   69973   69975   69974   69976
   69978   69977   69979   69981   69980   69982   69984   69983   69985
   69987   69986   69988   69990   69989   69991   69993   69992   69994
   69996   69995   69997   69999   69998   70000   70002   70001   70003
   70005   70004   70006   70008   70007   70009   70011   70010   70012
   70014   70013   70015   70017   70016   70018   70020   70019   70021
   70023   70022   70024   70026   70025   70027   70029   70028   70030
   70032   70031   70033   70035   70034   70036   70038   70037   70039
   70041   70040   70042   70044   70043   70045   70047   70046   70048
   70050   70049   70051   70053   70052   70054   70056   70055   70057
   70059   70058   70060   70062   70061   70063   70065   70064   70066
   70068   70067   70069   70071   70070   70072   70074   70073   70075
   70077   70076   70078   70080   70079   70081   70083   70082   70084
   70086   70085   70087   70089   70088   70090   70092   70091   70093
   70095   70094   70096   70098   70097   70099   70101   70100   70102
   70104   70103   70105   70107   70106   70108   70110   70109   70111
   70113   70112   70114   70116   70115   70117   70119   70118   70120
   70122   70121   70123   70125   70124   70126   70128   70127   70129
   70131   70130   70132   70134   70133   70135   70137   70136   70138
   70140   70139   70141   70143   70142   70144   70146   70145   70147
   70149   70148   70150   70152   70151   70153   70155   70154   70156
   70158   70157   70159   70161   70160   70162   70164   70163   70165
   70167   70166   70168   70170   70169   70171   70173   70172   70174
   70176   70175   70177   70179   70178   70180   70182   70181   70183
   70185   70184   70186   70188   70187   70189   70191   70190   70192
   70194   70193   70195   70197   70196   70198   70200   70199   70201
   70203   70202   70204   70206   70205   70207   70209   70208   70210
   70212   70211   70213   70215   70214   70216   70218   70217   70219
   70221   70220   70222   70224   70223   70225   70227   70226   70228
   70230   70229   70231   70233   70232   70234   70236   70235   70237
   70239   70238   70240   70242   70241   70243   70245   70244   70246
   70248   70247   70249   70251   70250   70252   70254   70253   70255
   70257   70256   70258   70260   70259   70261   70263   70262   70264
   70266   70265   70267   70269   70268   70270   70272   70271   70273
   70275   70274   70276   70278   70277   70279   70281   70280   70282
   70284   70283   70285   70287   70286   70288   70290   70289   70291
   70293   70292   70294   70296   70295   70297   70299   70298   70300
   70302   70301   70303   70305   70304   70306   70308   70307   70309
   70311   70310   70312   70314   70313   70315   70317   70316   70318
   70320   70319   70321   70323   70322   70324   70326   70325   70327
   70329   70328   70330   70332   70331   70333   70335   70334   70336
   70338   70337   70339   70341   70340   70342   70344   70343   70345
   70347   70346   70348   70350   70349   70351   70353   70352   70354
   70356   70355   70357   70359   70358   70360   70362   70361   70363
   70365   70364   70366   70368   70367   70369   70371   70370   70372
   70374   70373   70375   70377   70376   70378   70380   70379   70381
   70383   70382   70384   70386   70385   70387   70389   70388   70390
   70392   70391   70393   70395   70394   70396   70398   70397   70399
   70401   70400   70402   70404   70403   70405   70407   70406   70408
   70410   70409   70411   70413   70412   70414   70416   70415   70417
   70419   70418   70420   70422   70421   70423   70425   70424   70426
   70428   70427   70429   70431   70430   70432   70434   70433   70435
   70437   70436   70438   70440   70439   70441   70443   70442   70444
   70446   70445   70447   70449   70448   70450   70452   70451   70453
   70455   70454   70456   70458   70457   70459   70461   70460   70462
   70464   70463   70465   70467   70466   70468   70470   70469   70471
   70473   70472   70474   70476   70475   70477   70479   70478   70480
   70482   70481   70483   70485   70484   70486   70488   70487   70489
   70491   70490   70492   70494   70493   70495   70497   70496   70498
   70500   70499   70501   70503   70502   70504   70506   70505   70507
   70509   70508   70510   70512   70511   70513   70515   70514   70516
   70518   70517   70519   70521   70520   70522   70524   70523   70525
   70527   70526   70528   70530   70529   70531   70533   70532   70534
   70536   70535   70537   70539   70538   70540   70542   70541   70543
   70545   70544   70546   70548   70547   70549   70551   70550   70552
   70554   70553   70555   70557   70556   70558   70560   70559   70561
   70563   70562   70564   70566   70565   70567   70569   70568   70570
   70572   70571   70573   70575   70574   70576   70578   70577   70579
   70581   70580   70582   70584   70583   70585   70587   70586   70588
   70590   70589   70591   70593   70592   70594   70596   70595   70597
   70599   70598   70600   70602   70601   70603   70605   70604   70606
   70608   70607   70609   70611   70610   70612   70614   70613   70615
   70617   70616   70618   70620   70619   70621   70623   70622   70624
   70626   70625   70627   70629   70628   70630   70632   70631   70633
   70635   70634   70636   70638   70637   70639   70641   70640   70642
   70644   70643   70645   70647   70646   70648   70650   70649   70651
   70653   70652   70654   70656   70655   70657   70659   70658   70660
   70662   70661   70663   70665   70664   70666   70668   70667   70669
   70671   70670   70672   70674   70673   70675   70677   70676   70678
   70680   70679   70681   70683   70682   70684   70686   70685   70687
   70689   70688   70690   70692   70691   70693   70695   70694   70696
   70698   70697   70699   70701   70700   70702   70704   70703   70705
   70707   70706   70708   70710   70709   70711   70713   70712   70714
   70716   70715   70717   70719   70718   70720   70722   70721   70723
   70725   70724   70726   70728   70727   70729   70731   70730   70732
   70734   70733   70735   70737   70736   70738   70740   70739   70741
   70743   70742   70744   70746   70745   70747   70749   70748   70750
   70752   70751   70753   70755   70754   70756   70758   70757   70759
   70761   70760   70762   70764   70763   70765   70767   70766   70768
   70770   70769   70771   70773   70772   70774   70776   70775   70777
   70779   70778   70780   70782   70781   70783   70785   70784   70786
   70788   70787   70789   70791   70790   70792   70794   70793   70795
   70797   70796   70798   70800   70799   70801   70803   70802   70804
   70806   70805   70807   70809   70808   70810   70812   70811   70813
   70815   70814   70816   70818   70817   70819   70821   70820   70822
   70824   70823   70825   70827   70826   70828   70830   70829   70831
   70833   70832   70834   70836   70835   70837   70839   70838   70840
   70842   70841   70843   70845   70844   70846   70848   70847   70849
   70851   70850   70852   70854   70853   70855   70857   70856   70858
   70860   70859   70861   70863   70862   70864   70866   70865   70867
   70869   70868   70870   70872   70871   70873   70875   70874   70876
   70878   70877   70879   70881   70880   70882   70884   70883   70885
   70887   70886   70888   70890   70889   70891   70893   70892   70894
   70896   70895   70897   70899   70898   70900   70902   70901   70903
   70905   70904   70906   70908   70907   70909   70911   70910   70912
   70914   70913   70915   70917   70916   70918   70920   70919   70921
   70923   70922   70924   70926   70925   70927   70929   70928   70930
   70932   70931   70933   70935   70934   70936   70938   70937   70939
   70941   70940   70942   70944   70943   70945   70947   70946   70948
   70950   70949   70951   70953   70952   70954   70956   70955   70957
   70959   70958   70960   70962   70961   70963   70965   70964   70966
   70968   70967   70969   70971   70970   70972   70974   70973   70975
   70977   70976   70978   70980   70979   70981   70983   70982   70984
   70986   70985   70987   70989   70988   70990   70992   70991   70993
   70995   70994   70996   70998   70997   70999   71001   71000   71002
   71004   71003   71005   71007   71006   71008   71010   71009   71011
   71013   71012   71014   71016   71015   71017   71019   71018   71020
   71022   71021   71023   71025   71024   71026   71028   71027   71029
   71031   71030   71032   71034   71033   71035   71037   71036   71038
   71040   71039   71041   71043   71042   71044   71046   71045   71047
   71049   71048   71050   71052   71051   71053   71055   71054   71056
   71058   71057   71059   71061   71060   71062   71064   71063   71065
   71067   71066   71068   71070   71069   71071   71073   71072   71074
   71076   71075   71077   71079   71078   71080   71082   71081   71083
   71085   71084   71086   71088   71087   71089   71091   71090   71092
   71094   71093   71095   71097   71096   71098   71100   71099   71101
   71103   71102   71104   71106   71105   71107   71109   71108   71110
   71112   71111   71113   71115   71114   71116   71118   71117   71119
   71121   71120   71122   71124   71123   71125   71127   71126   71128
   71130   71129   71131   71133   71132   71134   71136   71135   71137
   71139   71138   71140   71142   71141   71143   71145   71144   71146
   71148   71147   71149   71151   71150   71152   71154   71153   71155
   71157   71156   71158   71160   71159   71161   71163   71162   71164
   71166   71165   71167   71169   71168   71170   71172   71171   71173
   71175   71174   71176   71178   71177   71179   71181   71180   71182
   71184   71183   71185   71187   71186   71188   71190   71189   71191
   71193   71192   71194   71196   71195   71197   71199   71198   71200
   71202   71201   71203   71205   71204   71206   71208   71207   71209
   71211   71210   71212   71214   71213   71215   71217   71216   71218
   71220   71219   71221   71223   71222   71224   71226   71225   71227
   71229   71228   71230   71232   71231   71233   71235   71234   71236
   71238   71237   71239   71241   71240   71242   71244   71243   71245
   71247   71246   71248   71250   71249   71251   71253   71252   71254
   71256   71255   71257   71259   71258   71260   71262   71261   71263
   71265   71264   71266   71268   71267   71269   71271   71270   71272
   71274   71273   71275   71277   71276   71278   71280   71279   71281
   71283   71282   71284   71286   71285   71287   71289   71288   71290
   71292   71291   71293   71295   71294   71296   71298   71297   71299
   71301   71300   71302   71304   71303   71305   71307   71306   71308
   71310   71309   71311   71313   71312   71314   71316   71315   71317
   71319   71318   71320   71322   71321   71323   71325   71324   71326
   71328   71327   71329   71331   71330   71332   71334   71333   71335
   71337   71336   71338   71340   71339   71341   71343   71342   71344
   71346   71345   71347   71349   71348   71350   71352   71351   71353
   71355   71354   71356   71358   71357   71359   71361   71360   71362
   71364   71363   71365   71367   71366   71368   71370   71369   71371
   71373   71372   71374   71376   71375   71377   71379   71378   71380
   71382   71381   71383   71385   71384   71386   71388   71387   71389
   71391   71390   71392   71394   71393   71395   71397   71396   71398
   71400   71399   71401   71403   71402   71404   71406   71405   71407
   71409   71408   71410   71412   71411   71413   71415   71414   71416
   71418   71417   71419   71421   71420   71422   71424   71423   71425
   71427   71426   71428   71430   71429   71431   71433   71432   71434
   71436   71435   71437   71439   71438   71440   71442   71441   71443
   71445   71444   71446   71448   71447   71449   71451   71450   71452
   71454   71453   71455   71457   71456   71458   71460   71459   71461
   71463   71462   71464   71466   71465   71467   71469   71468   71470
   71472   71471   71473   71475   71474   71476   71478   71477   71479
   71481   71480   71482   71484   71483   71485   71487   71486   71488
   71490   71489   71491   71493   71492   71494   71496   71495   71497
   71499   71498   71500   71502   71501   71503   71505   71504   71506
   71508   71507   71509   71511   71510   71512   71514   71513   71515
   71517   71516   71518   71520   71519   71521   71523   71522   71524
   71526   71525   71527   71529   71528   71530   71532   71531   71533
   71535   71534   71536   71538   71537   71539   71541   71540   71542
   71544   71543   71545   71547   71546   71548   71550   71549   71551
   71553   71552   71554   71556   71555   71557   71559   71558   71560
   71562   71561   71563   71565   71564   71566   71568   71567   71569
   71571   71570   71572   71574   71573   71575   71577   71576   71578
   71580   71579   71581   71583   71582   71584   71586   71585   71587
   71589   71588   71590   71592   71591   71593   71595   71594   71596
   71598   71597   71599   71601   71600   71602   71604   71603   71605
   71607   71606   71608   71610   71609   71611   71613   71612   71614
   71616   71615   71617   71619   71618   71620   71622   71621   71623
   71625   71624   71626   71628   71627   71629   71631   71630   71632
   71634   71633   71635   71637   71636   71638   71640   71639   71641
   71643   71642   71644   71646   71645   71647   71649   71648   71650
   71652   71651   71653   71655   71654   71656   71658   71657   71659
   71661   71660   71662   71664   71663   71665   71667   71666   71668
   71670   71669   71671   71673   71672   71674   71676   71675   71677
   71679   71678   71680   71682   71681   71683   71685   71684   71686
   71688   71687   71689   71691   71690   71692   71694   71693   71695
   71697   71696   71698   71700   71699   71701   71703   71702   71704
   71706   71705   71707   71709   71708   71710   71712   71711   71713
   71715   71714   71716   71718   71717   71719   71721   71720   71722
   71724   71723   71725   71727   71726   71728   71730   71729   71731
   71733   71732   71734   71736   71735   71737   71739   71738   71740
   71742   71741   71743   71745   71744   71746   71748   71747   71749
   71751   71750   71752   71754   71753   71755   71757   71756   71758
   71760   71759   71761   71763   71762   71764   71766   71765   71767
   71769   71768   71770   71772   71771   71773   71775   71774   71776
   71778   71777   71779   71781   71780   71782   71784   71783   71785
   71787   71786   71788   71790   71789   71791   71793   71792   71794
   71796   71795   71797   71799   71798   71800   71802   71801   71803
   71805   71804   71806   71808   71807   71809   71811   71810   71812
   71814   71813   71815   71817   71816   71818   71820   71819   71821
   71823   71822   71824   71826   71825   71827   71829   71828   71830
   71832   71831   71833   71835   71834   71836   71838   71837   71839
   71841   71840   71842   71844   71843   71845   71847   71846   71848
   71850   71849   71851   71853   71852   71854   71856   71855   71857
   71859   71858   71860   71862   71861   71863   71865   71864   71866
   71868   71867   71869   71871   71870   71872   71874   71873   71875
   71877   71876   71878   71880   71879   71881   71883   71882   71884
   71886   71885   71887   71889   71888   71890   71892   71891   71893
   71895   71894   71896   71898   71897   71899   71901   71900   71902
   71904   71903   71905   71907   71906   71908   71910   71909   71911
   71913   71912   71914   71916   71915   71917   71919   71918   71920
   71922   71921   71923   71925   71924   71926   71928   71927   71929
   71931   71930   71932   71934   71933   71935   71937   71936   71938
   71940   71939   71941   71943   71942   71944   71946   71945   71947
   71949   71948   71950   71952   71951   71953   71955   71954   71956
   71958   71957   71959   71961   71960   71962   71964   71963   71965
   71967   71966   71968   71970   71969   71971   71973   71972   71974
   71976   71975   71977   71979   71978   71980   71982   71981   71983
   71985   71984   71986   71988   71987   71989   71991   71990   71992
   71994   71993   71995   71997   71996   71998   72000   71999   72001
   72003   72002   72004   72006   72005   72007   72009   72008   72010
   72012   72011   72013   72015   72014   72016   72018   72017   72019
   72021   72020   72022   72024   72023   72025   72027   72026   72028
   72030   72029   72031   72033   72032   72034   72036   72035   72037
   72039   72038   72040   72042   72041   72043   72045   72044   72046
   72048   72047   72049   72051   72050   72052   72054   72053   72055
   72057   72056   72058   72060   72059   72061   72063   72062   72064
   72066   72065   72067   72069   72068   72070   72072   72071   72073
   72075   72074   72076   72078   72077   72079   72081   72080   72082
   72084   72083   72085   72087   72086   72088   72090   72089   72091
   72093   72092   72094   72096   72095   72097   72099   72098   72100
   72102   72101   72103   72105   72104   72106   72108   72107   72109
   72111   72110   72112   72114   72113   72115   72117   72116   72118
   72120   72119   72121   72123   72122   72124   72126   72125   72127
   72129   72128   72130   72132   72131   72133   72135   72134   72136
   72138   72137   72139   72141   72140   72142   72144   72143   72145
   72147   72146   72148   72150   72149   72151   72153   72152   72154
   72156   72155   72157   72159   72158   72160   72162   72161   72163
   72165   72164   72166   72168   72167   72169   72171   72170   72172
   72174   72173   72175   72177   72176   72178   72180   72179   72181
   72183   72182   72184   72186   72185   72187   72189   72188   72190
   72192   72191   72193   72195   72194   72196   72198   72197   72199
   72201   72200   72202   72204   72203   72205   72207   72206   72208
   72210   72209   72211   72213   72212   72214   72216   72215   72217
   72219   72218   72220   72222   72221   72223   72225   72224   72226
   72228   72227   72229   72231   72230   72232   72234   72233   72235
   72237   72236   72238   72240   72239   72241   72243   72242   72244
   72246   72245   72247   72249   72248   72250   72252   72251   72253
   72255   72254   72256   72258   72257   72259   72261   72260   72262
   72264   72263   72265   72267   72266   72268   72270   72269   72271
   72273   72272   72274   72276   72275   72277   72279   72278   72280
   72282   72281   72283   72285   72284   72286   72288   72287   72289
   72291   72290   72292   72294   72293   72295   72297   72296   72298
   72300   72299   72301   72303   72302   72304   72306   72305   72307
   72309   72308   72310   72312   72311   72313   72315   72314   72316
   72318   72317   72319   72321   72320   72322   72324   72323   72325
   72327   72326   72328   72330   72329   72331   72333   72332   72334
   72336   72335   72337   72339   72338   72340   72342   72341   72343
   72345   72344   72346   72348   72347   72349   72351   72350   72352
   72354   72353   72355   72357   72356   72358   72360   72359   72361
   72363   72362   72364   72366   72365   72367   72369   72368   72370
   72372   72371   72373   72375   72374   72376   72378   72377   72379
   72381   72380   72382   72384   72383   72385   72387   72386   72388
   72390   72389   72391   72393   72392   72394   72396   72395   72397
   72399   72398   72400   72402   72401   72403   72405   72404   72406
   72408   72407   72409   72411   72410   72412   72414   72413   72415
   72417   72416   72418   72420   72419   72421   72423   72422   72424
   72426   72425   72427   72429   72428   72430   72432   72431   72433
   72435   72434   72436   72438   72437   72439   72441   72440   72442
   72444   72443   72445   72447   72446   72448   72450   72449   72451
   72453   72452   72454   72456   72455   72457   72459   72458   72460
   72462   72461   72463   72465   72464   72466   72468   72467   72469
   72471   72470   72472   72474   72473   72475   72477   72476   72478
   72480   72479   72481   72483   72482   72484   72486   72485   72487
   72489   72488   72490   72492   72491   72493   72495   72494   72496
   72498   72497   72499   72501   72500   72502   72504   72503   72505
   72507   72506   72508   72510   72509   72511   72513   72512   72514
   72516   72515   72517   72519   72518   72520   72522   72521   72523
   72525   72524   72526   72528   72527   72529   72531   72530   72532
   72534   72533   72535   72537   72536   72538   72540   72539   72541
   72543   72542   72544   72546   72545   72547   72549   72548   72550
   72552   72551   72553   72555   72554   72556   72558   72557   72559
   72561   72560   72562   72564   72563   72565   72567   72566   72568
   72570   72569   72571   72573   72572   72574   72576   72575   72577
   72579   72578   72580   72582   72581   72583   72585   72584   72586
   72588   72587   72589   72591   72590   72592   72594   72593   72595
   72597   72596   72598   72600   72599   72601   72603   72602   72604
   72606   72605   72607   72609   72608   72610   72612   72611   72613
   72615   72614   72616   72618   72617   72619   72621   72620   72622
   72624   72623   72625   72627   72626   72628   72630   72629   72631
   72633   72632   72634   72636   72635   72637   72639   72638   72640
   72642   72641   72643   72645   72644   72646   72648   72647   72649
   72651   72650   72652   72654   72653   72655   72657   72656   72658
   72660   72659   72661   72663   72662   72664   72666   72665   72667
   72669   72668   72670   72672   72671   72673   72675   72674   72676
   72678   72677   72679   72681   72680   72682   72684   72683   72685
   72687   72686   72688   72690   72689   72691   72693   72692   72694
   72696   72695   72697   72699   72698   72700   72702   72701   72703
   72705   72704   72706   72708   72707   72709   72711   72710   72712
   72714   72713   72715   72717   72716   72718   72720   72719   72721
   72723   72722   72724   72726   72725   72727   72729   72728   72730
   72732   72731   72733   72735   72734   72736   72738   72737   72739
   72741   72740   72742   72744   72743   72745   72747   72746   72748
   72750   72749   72751   72753   72752   72754   72756   72755   72757
   72759   72758   72760   72762   72761   72763   72765   72764   72766
   72768   72767   72769   72771   72770   72772   72774   72773   72775
   72777   72776   72778   72780   72779   72781   72783   72782   72784
   72786   72785   72787   72789   72788   72790   72792   72791   72793
   72795   72794   72796   72798   72797   72799   72801   72800   72802
   72804   72803   72805   72807   72806   72808   72810   72809   72811
   72813   72812   72814   72816   72815   72817   72819   72818   72820
   72822   72821   72823   72825   72824   72826   72828   72827   72829
   72831   72830   72832   72834   72833   72835   72837   72836   72838
   72840   72839   72841   72843   72842   72844   72846   72845   72847
   72849   72848   72850   72852   72851   72853   72855   72854   72856
   72858   72857   72859   72861   72860   72862   72864   72863   72865
   72867   72866   72868   72870   72869   72871   72873   72872   72874
   72876   72875   72877   72879   72878   72880   72882   72881   72883
   72885   72884   72886   72888   72887   72889   72891   72890   72892
   72894   72893   72895   72897   72896   72898   72900   72899   72901
   72903   72902   72904   72906   72905   72907   72909   72908   72910
   72912   72911   72913   72915   72914   72916   72918   72917   72919
   72921   72920   72922   72924   72923   72925   72927   72926   72928
   72930   72929   72931   72933   72932   72934   72936   72935   72937
   72939   72938   72940   72942   72941   72943   72945   72944   72946
   72948   72947   72949   72951   72950   72952   72954   72953   72955
   72957   72956   72958   72960   72959   72961   72963   72962   72964
   72966   72965   72967   72969   72968   72970   72972   72971   72973
   72975   72974   72976   72978   72977   72979   72981   72980   72982
   72984   72983   72985   72987   72986   72988   72990   72989   72991
   72993   72992   72994   72996   72995   72997   72999   72998   73000
   73002   73001   73003   73005   73004   73006   73008   73007   73009
   73011   73010   73012   73014   73013   73015   73017   73016   73018
   73020   73019   73021   73023   73022   73024   73026   73025   73027
   73029   73028   73030   73032   73031   73033   73035   73034   73036
   73038   73037   73039   73041   73040   73042   73044   73043   73045
   73047   73046   73048   73050   73049   73051   73053   73052   73054
   73056   73055   73057   73059   73058   73060   73062   73061   73063
   73065   73064   73066   73068   73067   73069   73071   73070   73072
   73074   73073   73075   73077   73076   73078   73080   73079   73081
   73083   73082   73084   73086   73085   73087   73089   73088   73090
   73092   73091   73093   73095   73094   73096   73098   73097   73099
   73101   73100   73102   73104   73103   73105   73107   73106   73108
   73110   73109   73111   73113   73112   73114   73116   73115   73117
   73119   73118   73120   73122   73121   73123   73125   73124   73126
   73128   73127   73129   73131   73130   73132   73134   73133   73135
   73137   73136   73138   73140   73139   73141   73143   73142   73144
   73146   73145   73147   73149   73148   73150   73152   73151   73153
   73155   73154   73156   73158   73157   73159   73161   73160   73162
   73164   73163   73165   73167   73166   73168   73170   73169   73171
   73173   73172   73174   73176   73175   73177   73179   73178   73180
   73182   73181   73183   73185   73184   73186   73188   73187   73189
   73191   73190   73192   73194   73193   73195   73197   73196   73198
   73200   73199   73201   73203   73202   73204   73206   73205   73207
   73209   73208   73210   73212   73211   73213   73215   73214   73216
   73218   73217   73219   73221   73220   73222   73224   73223   73225
   73227   73226   73228   73230   73229   73231   73233   73232   73234
   73236   73235   73237   73239   73238   73240   73242   73241   73243
   73245   73244   73246   73248   73247   73249   73251   73250   73252
   73254   73253   73255   73257   73256   73258   73260   73259   73261
   73263   73262   73264   73266   73265   73267   73269   73268   73270
   73272   73271   73273   73275   73274   73276   73278   73277   73279
   73281   73280   73282   73284   73283   73285   73287   73286   73288
   73290   73289   73291   73293   73292   73294   73296   73295   73297
   73299   73298   73300   73302   73301   73303   73305   73304   73306
   73308   73307   73309   73311   73310   73312   73314   73313   73315
   73317   73316   73318   73320   73319   73321   73323   73322   73324
   73326   73325   73327   73329   73328   73330   73332   73331   73333
   73335   73334   73336   73338   73337   73339   73341   73340   73342
   73344   73343   73345   73347   73346   73348   73350   73349   73351
   73353   73352   73354   73356   73355   73357   73359   73358   73360
   73362   73361   73363   73365   73364   73366   73368   73367   73369
   73371   73370   73372   73374   73373   73375   73377   73376   73378
   73380   73379   73381   73383   73382   73384   73386   73385   73387
   73389   73388   73390   73392   73391   73393   73395   73394   73396
   73398   73397   73399   73401   73400   73402   73404   73403   73405
   73407   73406   73408   73410   73409   73411   73413   73412   73414
   73416   73415   73417   73419   73418   73420   73422   73421   73423
   73425   73424   73426   73428   73427   73429   73431   73430   73432
   73434   73433   73435   73437   73436   73438   73440   73439   73441
   73443   73442   73444   73446   73445   73447   73449   73448   73450
   73452   73451   73453   73455   73454   73456   73458   73457   73459
   73461   73460   73462   73464   73463   73465   73467   73466   73468
   73470   73469   73471   73473   73472   73474   73476   73475   73477
   73479   73478   73480   73482   73481   73483   73485   73484   73486
   73488   73487   73489   73491   73490   73492   73494   73493   73495
   73497   73496   73498   73500   73499   73501   73503   73502   73504
   73506   73505   73507   73509   73508   73510   73512   73511   73513
   73515   73514   73516   73518   73517   73519   73521   73520   73522
   73524   73523   73525   73527   73526   73528   73530   73529   73531
   73533   73532   73534   73536   73535   73537   73539   73538   73540
   73542   73541   73543   73545   73544   73546   73548   73547   73549
   73551   73550   73552   73554   73553   73555   73557   73556   73558
   73560   73559   73561   73563   73562   73564   73566   73565   73567
   73569   73568   73570   73572   73571   73573   73575   73574   73576
   73578   73577   73579   73581   73580   73582   73584   73583   73585
   73587   73586   73588   73590   73589   73591   73593   73592   73594
   73596   73595   73597   73599   73598   73600   73602   73601   73603
   73605   73604   73606   73608   73607   73609   73611   73610   73612
   73614   73613   73615   73617   73616   73618   73620   73619   73621
   73623   73622   73624   73626   73625   73627   73629   73628   73630
   73632   73631   73633   73635   73634   73636   73638   73637   73639
   73641   73640   73642   73644   73643   73645   73647   73646   73648
   73650   73649   73651   73653   73652   73654   73656   73655   73657
   73659   73658   73660   73662   73661   73663   73665   73664   73666
   73668   73667   73669   73671   73670   73672   73674   73673   73675
   73677   73676   73678   73680   73679   73681   73683   73682   73684
   73686   73685   73687   73689   73688   73690   73692   73691   73693
   73695   73694   73696   73698   73697   73699   73701   73700   73702
   73704   73703   73705   73707   73706   73708   73710   73709   73711
   73713   73712   73714   73716   73715   73717   73719   73718   73720
   73722   73721   73723   73725   73724   73726   73728   73727   73729
   73731   73730   73732   73734   73733   73735   73737   73736   73738
   73740   73739   73741   73743   73742   73744   73746   73745   73747
   73749   73748   73750   73752   73751   73753   73755   73754   73756
   73758   73757   73759   73761   73760   73762   73764   73763   73765
   73767   73766   73768   73770   73769   73771   73773   73772   73774
   73776   73775   73777   73779   73778   73780   73782   73781   73783
   73785   73784   73786   73788   73787   73789   73791   73790   73792
   73794   73793   73795   73797   73796   73798   73800   73799   73801
   73803   73802   73804   73806   73805   73807   73809   73808   73810
   73812   73811   73813   73815   73814   73816   73818   73817   73819
   73821   73820   73822   73824   73823   73825   73827   73826   73828
   73830   73829   73831   73833   73832   73834   73836   73835   73837
   73839   73838   73840   73842   73841   73843   73845   73844   73846
   73848   73847   73849   73851   73850   73852   73854   73853   73855
   73857   73856   73858   73860   73859   73861   73863   73862   73864
   73866   73865   73867   73869   73868   73870   73872   73871   73873
   73875   73874   73876   73878   73877   73879   73881   73880   73882
   73884   73883   73885   73887   73886   73888   73890   73889   73891
   73893   73892   73894   73896   73895   73897   73899   73898   73900
   73902   73901   73903   73905   73904   73906   73908   73907   73909
   73911   73910   73912   73914   73913   73915   73917   73916   73918
   73920   73919   73921   73923   73922   73924   73926   73925   73927
   73929   73928   73930   73932   73931   73933   73935   73934   73936
   73938   73937   73939   73941   73940   73942   73944   73943   73945
   73947   73946   73948   73950   73949   73951   73953   73952   73954
   73956   73955   73957   73959   73958   73960   73962   73961   73963
   73965   73964   73966   73968   73967   73969   73971   73970   73972
   73974   73973   73975   73977   73976   73978   73980   73979   73981
   73983   73982   73984   73986   73985   73987   73989   73988   73990
   73992   73991   73993   73995   73994   73996   73998   73997   73999
   74001   74000   74002   74004   74003   74005   74007   74006   74008
   74010   74009   74011   74013   74012   74014   74016   74015   74017
   74019   74018   74020   74022   74021   74023   74025   74024   74026
   74028   74027   74029   74031   74030   74032   74034   74033   74035
   74037   74036   74038   74040   74039   74041   74043   74042   74044
   74046   74045   74047   74049   74048   74050   74052   74051   74053
   74055   74054   74056   74058   74057   74059   74061   74060   74062
   74064   74063   74065   74067   74066   74068   74070   74069   74071
   74073   74072   74074   74076   74075   74077   74079   74078   74080
   74082   74081   74083   74085   74084   74086   74088   74087   74089
   74091   74090   74092   74094   74093   74095   74097   74096   74098
   74100   74099   74101   74103   74102   74104   74106   74105   74107
   74109   74108   74110   74112   74111   74113   74115   74114   74116
   74118   74117   74119   74121   74120   74122   74124   74123   74125
   74127   74126   74128   74130   74129   74131   74133   74132   74134
   74136   74135   74137   74139   74138   74140   74142   74141   74143
   74145   74144   74146   74148   74147   74149   74151   74150   74152
   74154   74153   74155   74157   74156   74158   74160   74159   74161
   74163   74162   74164   74166   74165   74167   74169   74168   74170
   74172   74171   74173   74175   74174   74176   74178   74177   74179
   74181   74180   74182   74184   74183   74185   74187   74186   74188
   74190   74189   74191   74193   74192   74194   74196   74195   74197
   74199   74198   74200   74202   74201   74203   74205   74204   74206
   74208   74207   74209   74211   74210   74212   74214   74213   74215
   74217   74216   74218   74220   74219   74221   74223   74222   74224
   74226   74225   74227   74229   74228   74230   74232   74231   74233
   74235   74234   74236   74238   74237   74239   74241   74240   74242
   74244   74243   74245   74247   74246   74248   74250   74249   74251
   74253   74252   74254   74256   74255   74257   74259   74258   74260
   74262   74261   74263   74265   74264   74266   74268   74267   74269
   74271   74270   74272   74274   74273   74275   74277   74276   74278
   74280   74279   74281   74283   74282   74284   74286   74285   74287
   74289   74288   74290   74292   74291   74293   74295   74294   74296
   74298   74297   74299   74301   74300   74302   74304   74303   74305
   74307   74306   74308   74310   74309   74311   74313   74312   74314
   74316   74315   74317   74319   74318   74320   74322   74321   74323
   74325   74324   74326   74328   74327   74329   74331   74330   74332
   74334   74333   74335   74337   74336   74338   74340   74339   74341
   74343   74342   74344   74346   74345   74347   74349   74348   74350
   74352   74351   74353   74355   74354   74356   74358   74357   74359
   74361   74360   74362   74364   74363   74365   74367   74366   74368
   74370   74369   74371   74373   74372   74374   74376   74375   74377
   74379   74378   74380   74382   74381   74383   74385   74384   74386
   74388   74387   74389   74391   74390   74392   74394   74393   74395
   74397   74396   74398   74400   74399   74401   74403   74402   74404
   74406   74405   74407   74409   74408   74410   74412   74411   74413
   74415   74414   74416   74418   74417   74419   74421   74420   74422
   74424   74423   74425   74427   74426   74428   74430   74429   74431
   74433   74432   74434   74436   74435   74437   74439   74438   74440
   74442   74441   74443   74445   74444   74446   74448   74447   74449
   74451   74450   74452   74454   74453   74455   74457   74456   74458
   74460   74459   74461   74463   74462   74464   74466   74465   74467
   74469   74468   74470   74472   74471   74473   74475   74474   74476
   74478   74477   74479   74481   74480   74482   74484   74483   74485
   74487   74486   74488   74490   74489   74491   74493   74492   74494
   74496   74495   74497   74499   74498   74500   74502   74501   74503
   74505   74504   74506   74508   74507   74509   74511   74510   74512
   74514   74513   74515   74517   74516   74518   74520   74519   74521
   74523   74522   74524   74526   74525   74527   74529   74528   74530
   74532   74531   74533   74535   74534   74536   74538   74537   74539
   74541   74540   74542   74544   74543   74545   74547   74546   74548
   74550   74549   74551   74553   74552   74554   74556   74555   74557
   74559   74558   74560   74562   74561   74563   74565   74564   74566
   74568   74567   74569   74571   74570   74572   74574   74573   74575
   74577   74576   74578   74580   74579   74581   74583   74582   74584
   74586   74585   74587   74589   74588   74590   74592   74591   74593
   74595   74594   74596   74598   74597   74599   74601   74600   74602
   74604   74603   74605   74607   74606   74608   74610   74609   74611
   74613   74612   74614   74616   74615   74617   74619   74618   74620
   74622   74621   74623   74625   74624   74626   74628   74627   74629
   74631   74630   74632   74634   74633   74635   74637   74636   74638
   74640   74639   74641   74643   74642   74644   74646   74645   74647
   74649   74648   74650   74652   74651   74653   74655   74654   74656
   74658   74657   74659   74661   74660   74662   74664   74663   74665
   74667   74666   74668   74670   74669   74671   74673   74672   74674
   74676   74675   74677   74679   74678   74680   74682   74681   74683
   74685   74684   74686   74688   74687   74689   74691   74690   74692
   74694   74693   74695   74697   74696   74698   74700   74699   74701
   74703   74702   74704   74706   74705   74707   74709   74708   74710
   74712   74711   74713   74715   74714   74716   74718   74717   74719
   74721   74720   74722   74724   74723   74725   74727   74726   74728
   74730   74729   74731   74733   74732   74734   74736   74735   74737
   74739   74738   74740   74742   74741   74743   74745   74744   74746
   74748   74747   74749   74751   74750   74752   74754   74753   74755
   74757   74756   74758   74760   74759   74761   74763   74762   74764
   74766   74765   74767   74769   74768   74770   74772   74771   74773
   74775   74774   74776   74778   74777   74779   74781   74780   74782
   74784   74783   74785   74787   74786   74788   74790   74789   74791
   74793   74792   74794   74796   74795   74797   74799   74798   74800
   74802   74801   74803   74805   74804   74806   74808   74807   74809
   74811   74810   74812   74814   74813   74815   74817   74816   74818
   74820   74819   74821   74823   74822   74824   74826   74825   74827
   74829   74828   74830   74832   74831   74833   74835   74834   74836
   74838   74837   74839   74841   74840   74842   74844   74843   74845
   74847   74846   74848   74850   74849   74851   74853   74852   74854
   74856   74855   74857   74859   74858   74860   74862   74861   74863
   74865   74864   74866   74868   74867   74869   74871   74870   74872
   74874   74873   74875   74877   74876   74878   74880   74879   74881
   74883   74882   74884   74886   74885   74887   74889   74888   74890
   74892   74891   74893   74895   74894   74896   74898   74897   74899
   74901   74900   74902   74904   74903   74905   74907   74906   74908
   74910   74909   74911   74913   74912   74914   74916   74915   74917
   74919   74918   74920   74922   74921   74923   74925   74924   74926
   74928   74927   74929   74931   74930   74932   74934   74933   74935
   74937   74936   74938   74940   74939   74941   74943   74942   74944
   74946   74945   74947   74949   74948   74950   74952   74951   74953
   74955   74954   74956   74958   74957   74959   74961   74960   74962
   74964   74963   74965   74967   74966   74968   74970   74969   74971
   74973   74972   74974   74976   74975   74977   74979   74978   74980
   74982   74981   74983   74985   74984   74986   74988   74987   74989
   74991   74990   74992   74994   74993   74995   74997   74996   74998
   75000   74999   75001   75003   75002   75004   75006   75005   75007
   75009   75008   75010   75012   75011   75013   75015   75014   75016
   75018   75017   75019   75021   75020   75022   75024   75023   75025
   75027   75026   75028   75030   75029   75031   75033   75032   75034
   75036   75035   75037   75039   75038   75040   75042   75041   75043
   75045   75044   75046   75048   75047   75049   75051   75050   75052
   75054   75053   75055   75057   75056   75058   75060   75059   75061
   75063   75062   75064   75066   75065   75067   75069   75068   75070
   75072   75071   75073   75075   75074   75076   75078   75077   75079
   75081   75080   75082   75084   75083   75085   75087   75086   75088
   75090   75089   75091   75093   75092   75094   75096   75095   75097
   75099   75098   75100   75102   75101   75103   75105   75104   75106
   75108   75107   75109   75111   75110   75112   75114   75113   75115
   75117   75116   75118   75120   75119   75121   75123   75122   75124
   75126   75125   75127   75129   75128   75130   75132   75131   75133
   75135   75134   75136   75138   75137   75139   75141   75140   75142
   75144   75143   75145   75147   75146   75148   75150   75149   75151
   75153   75152   75154   75156   75155   75157   75159   75158   75160
   75162   75161   75163   75165   75164   75166   75168   75167   75169
   75171   75170   75172   75174   75173   75175   75177   75176   75178
   75180   75179   75181   75183   75182   75184   75186   75185   75187
   75189   75188   75190   75192   75191   75193   75195   75194   75196
   75198   75197   75199   75201   75200   75202   75204   75203   75205
   75207   75206   75208   75210   75209   75211   75213   75212   75214
   75216   75215   75217   75219   75218   75220   75222   75221   75223
   75225   75224   75226   75228   75227   75229   75231   75230   75232
   75234   75233   75235   75237   75236   75238   75240   75239   75241
   75243   75242   75244   75246   75245   75247   75249   75248   75250
   75252   75251   75253   75255   75254   75256   75258   75257   75259
   75261   75260   75262   75264   75263   75265   75267   75266   75268
   75270   75269   75271   75273   75272   75274   75276   75275   75277
   75279   75278   75280   75282   75281   75283   75285   75284   75286
   75288   75287   75289   75291   75290   75292   75294   75293   75295
   75297   75296   75298   75300   75299   75301   75303   75302   75304
   75306   75305   75307   75309   75308   75310   75312   75311   75313
   75315   75314   75316   75318   75317   75319   75321   75320   75322
   75324   75323   75325   75327   75326   75328   75330   75329   75331
   75333   75332   75334   75336   75335   75337   75339   75338   75340
   75342   75341   75343   75345   75344   75346   75348   75347   75349
   75351   75350   75352   75354   75353   75355   75357   75356   75358
   75360   75359   75361   75363   75362   75364   75366   75365   75367
   75369   75368   75370   75372   75371   75373   75375   75374   75376
   75378   75377   75379   75381   75380   75382   75384   75383   75385
   75387   75386   75388   75390   75389   75391   75393   75392   75394
   75396   75395   75397   75399   75398   75400   75402   75401   75403
   75405   75404   75406   75408   75407   75409   75411   75410   75412
   75414   75413   75415   75417   75416   75418   75420   75419   75421
   75423   75422   75424   75426   75425   75427   75429   75428   75430
   75432   75431   75433   75435   75434   75436   75438   75437   75439
   75441   75440   75442   75444   75443   75445   75447   75446   75448
   75450   75449   75451   75453   75452   75454   75456   75455   75457
   75459   75458   75460   75462   75461   75463   75465   75464   75466
   75468   75467   75469   75471   75470   75472   75474   75473   75475
   75477   75476   75478   75480   75479   75481   75483   75482   75484
   75486   75485   75487   75489   75488   75490   75492   75491   75493
   75495   75494   75496   75498   75497   75499   75501   75500   75502
   75504   75503   75505   75507   75506   75508   75510   75509   75511
   75513   75512   75514   75516   75515   75517   75519   75518   75520
   75522   75521   75523   75525   75524   75526   75528   75527   75529
   75531   75530   75532   75534   75533   75535   75537   75536   75538
   75540   75539   75541   75543   75542   75544   75546   75545   75547
   75549   75548   75550   75552   75551   75553   75555   75554   75556
   75558   75557   75559   75561   75560   75562   75564   75563   75565
   75567   75566   75568   75570   75569   75571   75573   75572   75574
   75576   75575   75577   75579   75578   75580   75582   75581   75583
   75585   75584   75586   75588   75587   75589   75591   75590   75592
   75594   75593   75595   75597   75596   75598   75600   75599   75601
   75603   75602   75604   75606   75605   75607   75609   75608   75610
   75612   75611   75613   75615   75614   75616   75618   75617   75619
   75621   75620   75622   75624   75623   75625   75627   75626   75628
   75630   75629   75631   75633   75632   75634   75636   75635   75637
   75639   75638   75640   75642   75641   75643   75645   75644   75646
   75648   75647   75649   75651   75650   75652   75654   75653   75655
   75657   75656   75658   75660   75659   75661   75663   75662   75664
   75666   75665   75667   75669   75668   75670   75672   75671   75673
   75675   75674   75676   75678   75677   75679   75681   75680   75682
   75684   75683   75685   75687   75686   75688   75690   75689   75691
   75693   75692   75694   75696   75695   75697   75699   75698   75700
   75702   75701   75703   75705   75704   75706   75708   75707   75709
   75711   75710   75712   75714   75713   75715   75717   75716   75718
   75720   75719   75721   75723   75722   75724   75726   75725   75727
   75729   75728   75730   75732   75731   75733   75735   75734   75736
   75738   75737   75739   75741   75740   75742   75744   75743   75745
   75747   75746   75748   75750   75749   75751   75753   75752   75754
   75756   75755   75757   75759   75758   75760   75762   75761   75763
   75765   75764   75766   75768   75767   75769   75771   75770   75772
   75774   75773   75775   75777   75776   75778   75780   75779   75781
   75783   75782   75784   75786   75785   75787   75789   75788   75790
   75792   75791   75793   75795   75794   75796   75798   75797   75799
   75801   75800   75802   75804   75803   75805   75807   75806   75808
   75810   75809   75811   75813   75812   75814   75816   75815   75817
   75819   75818   75820   75822   75821   75823   75825   75824   75826
   75828   75827   75829   75831   75830   75832   75834   75833   75835
   75837   75836   75838   75840   75839   75841   75843   75842   75844
   75846   75845   75847   75849   75848   75850   75852   75851   75853
   75855   75854   75856   75858   75857   75859   75861   75860   75862
   75864   75863   75865   75867   75866   75868   75870   75869   75871
   75873   75872   75874   75876   75875   75877   75879   75878   75880
   75882   75881   75883   75885   75884   75886   75888   75887   75889
   75891   75890   75892   75894   75893   75895   75897   75896   75898
   75900   75899   75901   75903   75902   75904   75906   75905   75907
   75909   75908   75910   75912   75911   75913   75915   75914   75916
   75918   75917   75919   75921   75920   75922   75924   75923   75925
   75927   75926   75928   75930   75929   75931   75933   75932   75934
   75936   75935   75937   75939   75938   75940   75942   75941   75943
   75945   75944   75946   75948   75947   75949   75951   75950   75952
   75954   75953   75955   75957   75956   75958   75960   75959   75961
   75963   75962   75964   75966   75965   75967   75969   75968   75970
   75972   75971   75973   75975   75974   75976   75978   75977   75979
   75981   75980   75982   75984   75983   75985   75987   75986   75988
   75990   75989   75991   75993   75992   75994   75996   75995   75997
   75999   75998   76000   76002   76001   76003   76005   76004   76006
   76008   76007   76009   76011   76010   76012   76014   76013   76015
   76017   76016   76018   76020   76019   76021   76023   76022   76024
   76026   76025   76027   76029   76028   76030   76032   76031   76033
   76035   76034   76036   76038   76037   76039   76041   76040   76042
   76044   76043   76045   76047   76046   76048   76050   76049   76051
   76053   76052   76054   76056   76055   76057   76059   76058   76060
   76062   76061   76063   76065   76064   76066   76068   76067   76069
   76071   76070   76072   76074   76073   76075   76077   76076   76078
   76080   76079   76081   76083   76082   76084   76086   76085   76087
   76089   76088   76090   76092   76091   76093   76095   76094   76096
   76098   76097   76099   76101   76100   76102   76104   76103   76105
   76107   76106   76108   76110   76109   76111   76113   76112   76114
   76116   76115   76117   76119   76118   76120   76122   76121   76123
   76125   76124   76126   76128   76127   76129   76131   76130   76132
   76134   76133   76135   76137   76136   76138   76140   76139   76141
   76143   76142   76144   76146   76145   76147   76149   76148   76150
   76152   76151   76153   76155   76154   76156   76158   76157   76159
   76161   76160   76162   76164   76163   76165   76167   76166   76168
   76170   76169   76171   76173   76172   76174   76176   76175   76177
   76179   76178   76180   76182   76181   76183   76185   76184   76186
   76188   76187   76189   76191   76190   76192   76194   76193   76195
   76197   76196   76198   76200   76199   76201   76203   76202   76204
   76206   76205   76207   76209   76208   76210   76212   76211   76213
   76215   76214   76216   76218   76217   76219   76221   76220   76222
   76224   76223   76225   76227   76226   76228   76230   76229   76231
   76233   76232   76234   76236   76235   76237   76239   76238   76240
   76242   76241   76243   76245   76244   76246   76248   76247   76249
   76251   76250   76252   76254   76253   76255   76257   76256   76258
   76260   76259   76261   76263   76262   76264   76266   76265   76267
   76269   76268   76270   76272   76271   76273   76275   76274   76276
   76278   76277   76279   76281   76280   76282   76284   76283   76285
   76287   76286   76288   76290   76289   76291   76293   76292   76294
   76296   76295   76297   76299   76298   76300   76302   76301   76303
   76305   76304   76306   76308   76307   76309   76311   76310   76312
   76314   76313   76315   76317   76316   76318   76320   76319   76321
   76323   76322   76324   76326   76325   76327   76329   76328   76330
   76332   76331   76333   76335   76334   76336   76338   76337   76339
   76341   76340   76342   76344   76343   76345   76347   76346   76348
   76350   76349   76351   76353   76352   76354   76356   76355   76357
   76359   76358   76360   76362   76361   76363   76365   76364   76366
   76368   76367   76369   76371   76370   76372   76374   76373   76375
   76377   76376   76378   76380   76379   76381   76383   76382   76384
   76386   76385   76387   76389   76388   76390   76392   76391   76393
   76395   76394   76396   76398   76397   76399   76401   76400   76402
   76404   76403   76405   76407   76406   76408   76410   76409   76411
   76413   76412   76414   76416   76415   76417   76419   76418   76420
   76422   76421   76423   76425   76424   76426   76428   76427   76429
   76431   76430   76432   76434   76433   76435   76437   76436   76438
   76440   76439   76441   76443   76442   76444   76446   76445   76447
   76449   76448   76450   76452   76451   76453   76455   76454   76456
   76458   76457   76459   76461   76460   76462   76464   76463   76465
   76467   76466   76468   76470   76469   76471   76473   76472   76474
   76476   76475   76477   76479   76478   76480   76482   76481   76483
   76485   76484   76486   76488   76487   76489   76491   76490   76492
   76494   76493   76495   76497   76496   76498   76500   76499   76501
   76503   76502   76504   76506   76505   76507   76509   76508   76510
   76512   76511   76513   76515   76514   76516   76518   76517   76519
   76521   76520   76522   76524   76523   76525   76527   76526   76528
   76530   76529   76531   76533   76532   76534   76536   76535   76537
   76539   76538   76540   76542   76541   76543   76545   76544   76546
   76548   76547   76549   76551   76550   76552   76554   76553   76555
   76557   76556   76558   76560   76559   76561   76563   76562   76564
   76566   76565   76567   76569   76568   76570   76572   76571   76573
   76575   76574   76576   76578   76577   76579   76581   76580   76582
   76584   76583   76585   76587   76586   76588   76590   76589   76591
   76593   76592   76594   76596   76595   76597   76599   76598   76600
   76602   76601   76603   76605   76604   76606   76608   76607   76609
   76611   76610   76612   76614   76613   76615   76617   76616   76618
   76620   76619   76621   76623   76622   76624   76626   76625   76627
   76629   76628   76630   76632   76631   76633   76635   76634   76636
   76638   76637   76639   76641   76640   76642   76644   76643   76645
   76647   76646   76648   76650   76649   76651   76653   76652   76654
   76656   76655   76657   76659   76658   76660   76662   76661   76663
   76665   76664   76666   76668   76667   76669   76671   76670   76672
   76674   76673   76675   76677   76676   76678   76680   76679   76681
   76683   76682   76684   76686   76685   76687   76689   76688   76690
   76692   76691   76693   76695   76694   76696   76698   76697   76699
   76701   76700   76702   76704   76703   76705   76707   76706   76708
   76710   76709   76711   76713   76712   76714   76716   76715   76717
   76719   76718   76720   76722   76721   76723   76725   76724   76726
   76728   76727   76729   76731   76730   76732   76734   76733   76735
   76737   76736   76738   76740   76739   76741   76743   76742   76744
   76746   76745   76747   76749   76748   76750   76752   76751   76753
   76755   76754   76756   76758   76757   76759   76761   76760   76762
   76764   76763   76765   76767   76766   76768   76770   76769   76771
   76773   76772   76774   76776   76775   76777   76779   76778   76780
   76782   76781   76783   76785   76784   76786   76788   76787   76789
   76791   76790   76792   76794   76793   76795   76797   76796   76798
   76800   76799   76801   76803   76802   76804   76806   76805   76807
   76809   76808   76810   76812   76811   76813   76815   76814   76816
   76818   76817   76819   76821   76820   76822   76824   76823   76825
   76827   76826   76828   76830   76829   76831   76833   76832   76834
   76836   76835   76837   76839   76838   76840   76842   76841   76843
   76845   76844   76846   76848   76847   76849   76851   76850   76852
   76854   76853   76855   76857   76856   76858   76860   76859   76861
   76863   76862   76864   76866   76865   76867   76869   76868   76870
   76872   76871   76873   76875   76874   76876   76878   76877   76879
   76881   76880   76882   76884   76883   76885   76887   76886   76888
   76890   76889   76891   76893   76892   76894   76896   76895   76897
   76899   76898   76900   76902   76901   76903   76905   76904   76906
   76908   76907   76909   76911   76910   76912   76914   76913   76915
   76917   76916   76918   76920   76919   76921   76923   76922   76924
   76926   76925   76927   76929   76928   76930   76932   76931   76933
   76935   76934   76936   76938   76937   76939   76941   76940   76942
   76944   76943   76945   76947   76946   76948   76950   76949   76951
   76953   76952   76954   76956   76955   76957   76959   76958   76960
   76962   76961   76963   76965   76964   76966   76968   76967   76969
   76971   76970   76972   76974   76973   76975   76977   76976   76978
   76980   76979   76981   76983   76982   76984   76986   76985   76987
   76989   76988   76990   76992   76991   76993   76995   76994   76996
   76998   76997   76999   77001   77000   77002   77004   77003   77005
   77007   77006   77008   77010   77009   77011   77013   77012   77014
   77016   77015   77017   77019   77018   77020   77022   77021   77023
   77025   77024   77026   77028   77027   77029   77031   77030   77032
   77034   77033   77035   77037   77036   77038   77040   77039   77041
   77043   77042   77044   77046   77045   77047   77049   77048   77050
   77052   77051   77053   77055   77054   77056   77058   77057   77059
   77061   77060   77062   77064   77063   77065   77067   77066   77068
   77070   77069   77071   77073   77072   77074   77076   77075   77077
   77079   77078   77080   77082   77081   77083   77085   77084   77086
   77088   77087   77089   77091   77090   77092   77094   77093   77095
   77097   77096   77098   77100   77099   77101   77103   77102   77104
   77106   77105   77107   77109   77108   77110   77112   77111   77113
   77115   77114   77116   77118   77117   77119   77121   77120   77122
   77124   77123   77125   77127   77126   77128   77130   77129   77131
   77133   77132   77134   77136   77135   77137   77139   77138   77140
   77142   77141   77143   77145   77144   77146   77148   77147   77149
   77151   77150   77152   77154   77153   77155   77157   77156   77158
   77160   77159   77161   77163   77162   77164   77166   77165   77167
   77169   77168   77170   77172   77171   77173   77175   77174   77176
   77178   77177   77179   77181   77180   77182   77184   77183   77185
   77187   77186   77188   77190   77189   77191   77193   77192   77194
   77196   77195   77197   77199   77198   77200   77202   77201   77203
   77205   77204   77206   77208   77207   77209   77211   77210   77212
   77214   77213   77215   77217   77216   77218   77220   77219   77221
   77223   77222   77224   77226   77225   77227   77229   77228   77230
   77232   77231   77233   77235   77234   77236   77238   77237   77239
   77241   77240   77242   77244   77243   77245   77247   77246   77248
   77250   77249   77251   77253   77252   77254   77256   77255   77257
   77259   77258   77260   77262   77261   77263   77265   77264   77266
   77268   77267   77269   77271   77270   77272   77274   77273   77275
   77277   77276   77278   77280   77279   77281   77283   77282   77284
   77286   77285   77287   77289   77288   77290   77292   77291   77293
   77295   77294   77296   77298   77297   77299   77301   77300   77302
   77304   77303   77305   77307   77306   77308   77310   77309   77311
   77313   77312   77314   77316   77315   77317   77319   77318   77320
   77322   77321   77323   77325   77324   77326   77328   77327   77329
   77331   77330   77332   77334   77333   77335   77337   77336   77338
   77340   77339   77341   77343   77342   77344   77346   77345   77347
   77349   77348   77350   77352   77351   77353   77355   77354   77356
   77358   77357   77359   77361   77360   77362   77364   77363   77365
   77367   77366   77368   77370   77369   77371   77373   77372   77374
   77376   77375   77377   77379   77378   77380   77382   77381   77383
   77385   77384   77386   77388   77387   77389   77391   77390   77392
   77394   77393   77395   77397   77396   77398   77400   77399   77401
   77403   77402   77404   77406   77405   77407   77409   77408   77410
   77412   77411   77413   77415   77414   77416   77418   77417   77419
   77421   77420   77422   77424   77423   77425   77427   77426   77428
   77430   77429   77431   77433   77432   77434   77436   77435   77437
   77439   77438   77440   77442   77441   77443   77445   77444   77446
   77448   77447   77449   77451   77450   77452   77454   77453   77455
   77457   77456   77458   77460   77459   77461   77463   77462   77464
   77466   77465   77467   77469   77468   77470   77472   77471   77473
   77475   77474   77476   77478   77477   77479   77481   77480   77482
   77484   77483   77485   77487   77486   77488   77490   77489   77491
   77493   77492   77494   77496   77495   77497   77499   77498   77500
   77502   77501   77503   77505   77504   77506   77508   77507   77509
   77511   77510   77512   77514   77513   77515   77517   77516   77518
   77520   77519   77521   77523   77522   77524   77526   77525   77527
   77529   77528   77530   77532   77531   77533   77535   77534   77536
   77538   77537   77539   77541   77540   77542   77544   77543   77545
   77547   77546   77548   77550   77549   77551   77553   77552   77554
   77556   77555   77557   77559   77558   77560   77562   77561   77563
   77565   77564   77566   77568   77567   77569   77571   77570   77572
   77574   77573   77575   77577   77576   77578   77580   77579   77581
   77583   77582   77584   77586   77585   77587   77589   77588   77590
   77592   77591   77593   77595   77594   77596   77598   77597   77599
   77601   77600   77602   77604   77603   77605   77607   77606   77608
   77610   77609   77611   77613   77612   77614   77616   77615   77617
   77619   77618   77620   77622   77621   77623   77625   77624   77626
   77628   77627   77629   77631   77630   77632   77634   77633   77635
   77637   77636   77638   77640   77639   77641   77643   77642   77644
   77646   77645   77647   77649   77648   77650   77652   77651   77653
   77655   77654   77656   77658   77657   77659   77661   77660   77662
   77664   77663   77665   77667   77666   77668   77670   77669   77671
   77673   77672   77674   77676   77675   77677   77679   77678   77680
   77682   77681   77683   77685   77684   77686   77688   77687   77689
   77691   77690   77692   77694   77693   77695   77697   77696   77698
   77700   77699   77701   77703   77702   77704   77706   77705   77707
   77709   77708   77710   77712   77711   77713   77715   77714   77716
   77718   77717   77719   77721   77720   77722   77724   77723   77725
   77727   77726   77728   77730   77729   77731   77733   77732   77734
   77736   77735   77737   77739   77738   77740   77742   77741   77743
   77745   77744   77746   77748   77747   77749   77751   77750   77752
   77754   77753   77755   77757   77756   77758   77760   77759   77761
   77763   77762   77764   77766   77765   77767   77769   77768   77770
   77772   77771   77773   77775   77774   77776   77778   77777   77779
   77781   77780   77782   77784   77783   77785   77787   77786   77788
   77790   77789   77791   77793   77792   77794   77796   77795   77797
   77799   77798   77800   77802   77801   77803   77805   77804   77806
   77808   77807   77809   77811   77810   77812   77814   77813   77815
   77817   77816   77818   77820   77819   77821   77823   77822   77824
   77826   77825   77827   77829   77828   77830   77832   77831   77833
   77835   77834   77836   77838   77837   77839   77841   77840   77842
   77844   77843   77845   77847   77846   77848   77850   77849   77851
   77853   77852   77854   77856   77855   77857   77859   77858   77860
   77862   77861   77863   77865   77864   77866   77868   77867   77869
   77871   77870   77872   77874   77873   77875   77877   77876   77878
   77880   77879   77881   77883   77882   77884   77886   77885   77887
   77889   77888   77890   77892   77891   77893   77895   77894   77896
   77898   77897   77899   77901   77900   77902   77904   77903   77905
   77907   77906   77908   77910   77909   77911   77913   77912   77914
   77916   77915   77917   77919   77918   77920   77922   77921   77923
   77925   77924   77926   77928   77927   77929   77931   77930   77932
   77934   77933   77935   77937   77936   77938   77940   77939   77941
   77943   77942   77944   77946   77945   77947   77949   77948   77950
   77952   77951   77953   77955   77954   77956   77958   77957   77959
   77961   77960   77962   77964   77963   77965   77967   77966   77968
   77970   77969   77971   77973   77972   77974   77976   77975   77977
   77979   77978   77980   77982   77981   77983   77985   77984   77986
   77988   77987   77989   77991   77990   77992   77994   77993   77995
   77997   77996   77998   78000   77999   78001   78003   78002   78004
   78006   78005   78007

    3594 !NPHI: dihedrals
       1       2       3       6       1       2       3       4
       1       2       3       5       2       3       6       8
       2       3       6      28       2       3       6       7
       3       6       8       9       3       6      28      25
       3       6      28      30       3       6      28      29
       4       3       6       8       4       3       6      28
       4       3       6       7       5       3       6       8
       5       3       6      28       5       3       6       7
       6      28      25      27       6      28      25       9
       6      28      25      26       6      28      30      31
       6       8       9      11       6       8       9      25
       6       8       9      10       7       6       8       9
       7       6      28      25       7       6      28      30
       7       6      28      29       8       9      11      14
       8       9      11      12       8       9      25      27
       8       9      25      28       8       9      25      26
       8       6      28      25       8       6      28      30
       8       6      28      29       9      25      28      30
       9      25      28      29       9      11      14      16
       9      11      14      15       9      11      12      13
       9      11      12      20       9       8       6      28
      10       9      11      14      10       9      11      12
      10       9      25      27      10       9      25      28
      10       9      25      26      11      14      16      17
      11      14      16      18      11      12      20      18
      11      12      20      21      11       9      25      27
      11       9      25      28      11       9      25      26
      12      20      18      16      12      20      18      19
      12      20      21      22      12      20      21      23
      12      20      21      24      12      11       9      25
      12      11      14      16      12      11      14      15
      13      12      11      14      13      12      20      18
      13      12      20      21      14      16      18      20
      14      16      18      19      14      11       9      25
      14      11      12      20      15      14      16      17
      15      14      16      18      16      18      20      21
      17      16      18      20      17      16      18      19
      18      20      21      22      18      20      21      23
      18      20      21      24      19      18      20      21
      25      28      30      31      26      25      28      30
      26      25      28      29      27      25      28      30
      27      25      28      29      28      30      31      32
      28      30      31      33      28      30      31      34
      29      28      30      31      30      31      34      35
      31      34      35      38      31      34      35      36
      31      34      35      37      32      31      34      35
      33      31      34      35      34      35      38      40
      34      35      38      60      34      35      38      39
      35      38      40      41      35      38      60      57
      35      38      60      62      35      38      60      61
      36      35      38      40      36      35      38      60
      36      35      38      39      37      35      38      40
      37      35      38      60      37      35      38      39
      38      60      57      59      38      60      57      41
      38      60      57      58      38      60      62      63
      38      40      41      43      38      40      41      57
      38      40      41      42      39      38      40      41
      39      38      60      57      39      38      60      62
      39      38      60      61      40      41      43      46
      40      41      43      44      40      41      57      59
      40      41      57      60      40      41      57      58
      40      38      60      57      40      38      60      62
      40      38      60      61      41      57      60      62
      41      57      60      61      41      43      46      48
      41      43      46      47      41      43      44      45
      41      43      44      52      41      40      38      60
      42      41      43      46      42      41      43      44
      42      41      57      59      42      41      57      60
      42      41      57      58      43      46      48      49
      43      46      48      50      43      44      52      50
      43      44      52      53      43      41      57      59
      43      41      57      60      43      41      57      58
      44      52      50      48      44      52      50      51
      44      52      53      54      44      52      53      55
      44      52      53      56      44      43      41      57
      44      43      46      48      44      43      46      47
      45      44      43      46      45      44      52      50
      45      44      52      53      46      48      50      52
      46      48      50      51      46      43      41      57
      46      43      44      52      47      46      48      49
      47      46      48      50      48      50      52      53
      49      48      50      52      49      48      50      51
      50      52      53      54      50      52      53      55
      50      52      53      56      51      50      52      53
      57      60      62      63      58      57      60      62
      58      57      60      61      59      57      60      62
      59      57      60      61      60      62      63      64
      60      62      63      65      60      62      63      66
      61      60      62      63      62      63      66      67
      63      66      67      70      63      66      67      68
      63      66      67      69      64      63      66      67
      65      63      66      67      66      67      70      72
      66      67      70      92      66      67      70      71
      67      70      72      73      67      70      92      89
      67      70      92      94      67      70      92      93
      68      67      70      72      68      67      70      92
      68      67      70      71      69      67      70      72
      69      67      70      92      69      67      70      71
      70      92      89      91      70      92      89      73
      70      92      89      90      70      92      94      95
      70      72      73      75      70      72      73      89
      70      72      73      74      71      70      72      73
      71      70      92      89      71      70      92      94
      71      70      92      93      72      73      75      78
      72      73      75      76      72      73      89      91
      72      73      89      92      72      73      89      90
      72      70      92      89      72      70      92      94
      72      70      92      93      73      89      92      94
      73      89      92      93      73      75      78      80
      73      75      78      79      73      75      76      77
      73      75      76      84      73      72      70      92
      74      73      75      78      74      73      75      76
      74      73      89      91      74      73      89      92
      74      73      89      90      75      78      80      81
      75      78      80      82      75      76      84      82
      75      76      84      85      75      73      89      91
      75      73      89      92      75      73      89      90
      76      84      82      80      76      84      82      83
      76      84      85      86      76      84      85      87
      76      84      85      88      76      75      73      89
      76      75      78      80      76      75      78      79
      77      76      75      78      77      76      84      82
      77      76      84      85      78      80      82      84
      78      80      82      83      78      75      73      89
      78      75      76      84      79      78      80      81
      79      78      80      82      80      82      84      85
      81      80      82      84      81      80      82      83
      82      84      85      86      82      84      85      87
      82      84      85      88      83      82      84      85
      89      92      94      95      90      89      92      94
      90      89      92      93      91      89      92      94
      91      89      92      93      92      94      95      96
      92      94      95      97      92      94      95      98
      93      92      94      95      94      95      98      99
      95      98      99     102      95      98      99     100
      95      98      99     101      96      95      98      99
      97      95      98      99      98      99     102     104
      98      99     102     124      98      99     102     103
      99     102     104     105      99     102     124     121
      99     102     124     126      99     102     124     125
     100      99     102     104     100      99     102     124
     100      99     102     103     101      99     102     104
     101      99     102     124     101      99     102     103
     102     124     121     123     102     124     121     105
     102     124     121     122     102     124     126     127
     102     104     105     107     102     104     105     121
     102     104     105     106     103     102     104     105
     103     102     124     121     103     102     124     126
     103     102     124     125     104     105     107     110
     104     105     107     108     104     105     121     123
     104     105     121     124     104     105     121     122
     104     102     124     121     104     102     124     126
     104     102     124     125     105     121     124     126
     105     121     124     125     105     107     110     112
     105     107     110     111     105     107     108     109
     105     107     108     116     105     104     102     124
     106     105     107     110     106     105     107     108
     106     105     121     123     106     105     121     124
     106     105     121     122     107     110     112     113
     107     110     112     114     107     108     116     114
     107     108     116     117     107     105     121     123
     107     105     121     124     107     105     121     122
     108     116     114     112     108     116     114     115
     108     116     117     118     108     116     117     119
     108     116     117     120     108     107     105     121
     108     107     110     112     108     107     110     111
     109     108     107     110     109     108     116     114
     109     108     116     117     110     112     114     116
     110     112     114     115     110     107     105     121
     110     107     108     116     111     110     112     113
     111     110     112     114     112     114     116     117
     113     112     114     116     113     112     114     115
     114     116     117     118     114     116     117     119
     114     116     117     120     115     114     116     117
     121     124     126     127     122     121     124     126
     122     121     124     125     123     121     124     126
     123     121     124     125     124     126     127     128
     124     126     127     129     124     126     127     130
     125     124     126     127     126     127     130     131
     127     130     131     134     127     130     131     132
     127     130     131     133     128     127     130     131
     129     127     130     131     130     131     134     136
     130     131     134     156     130     131     134     135
     131     134     136     137     131     134     156     153
     131     134     156     158     131     134     156     157
     132     131     134     136     132     131     134     156
     132     131     134     135     133     131     134     136
     133     131     134     156     133     131     134     135
     134     156     153     155     134     156     153     137
     134     156     153     154     134     156     158     159
     134     136     137     139     134     136     137     153
     134     136     137     138     135     134     136     137
     135     134     156     153     135     134     156     158
     135     134     156     157     136     137     139     142
     136     137     139     140     136     137     153     155
     136     137     153     156     136     137     153     154
     136     134     156     153     136     134     156     158
     136     134     156     157     137     153     156     158
     137     153     156     157     137     139     142     144
     137     139     142     143     137     139     140     141
     137     139     140     148     137     136     134     156
     138     137     139     142     138     137     139     140
     138     137     153     155     138     137     153     156
     138     137     153     154     139     142     144     145
     139     142     144     146     139     140     148     146
     139     140     148     149     139     137     153     155
     139     137     153     156     139     137     153     154
     140     148     146     144     140     148     146     147
     140     148     149     150     140     148     149     151
     140     148     149     152     140     139     137     153
     140     139     142     144     140     139     142     143
     141     140     139     142     141     140     148     146
     141     140     148     149     142     144     146     148
     142     144     146     147     142     139     137     153
     142     139     140     148     143     142     144     145
     143     142     144     146     144     146     148     149
     145     144     146     148     145     144     146     147
     146     148     149     150     146     148     149     151
     146     148     149     152     147     146     148     149
     153     156     158     159     154     153     156     158
     154     153     156     157     155     153     156     158
     155     153     156     157     156     158     159     160
     156     158     159     161     156     158     159     162
     157     156     158     159     158     159     162     163
     159     162     163     166     159     162     163     164
     159     162     163     165     160     159     162     163
     161     159     162     163     162     163     166     168
     162     163     166     188     162     163     166     167
     163     166     168     169     163     166     188     185
     163     166     188     190     163     166     188     189
     164     163     166     168     164     163     166     188
     164     163     166     167     165     163     166     168
     165     163     166     188     165     163     166     167
     166     188     185     187     166     188     185     169
     166     188     185     186     166     188     190     191
     166     168     169     171     166     168     169     185
     166     168     169     170     167     166     168     169
     167     166     188     185     167     166     188     190
     167     166     188     189     168     169     171     174
     168     169     171     172     168     169     185     187
     168     169     185     188     168     169     185     186
     168     166     188     185     168     166     188     190
     168     166     188     189     169     185     188     190
     169     185     188     189     169     171     174     176
     169     171     174     175     169     171     172     173
     169     171     172     180     169     168     166     188
     170     169     171     174     170     169     171     172
     170     169     185     187     170     169     185     188
     170     169     185     186     171     174     176     177
     171     174     176     178     171     172     180     178
     171     172     180     181     171     169     185     187
     171     169     185     188     171     169     185     186
     172     180     178     176     172     180     178     179
     172     180     181     182     172     180     181     183
     172     180     181     184     172     171     169     185
     172     171     174     176     172     171     174     175
     173     172     171     174     173     172     180     178
     173     172     180     181     174     176     178     180
     174     176     178     179     174     171     169     185
     174     171     172     180     175     174     176     177
     175     174     176     178     176     178     180     181
     177     176     178     180     177     176     178     179
     178     180     181     182     178     180     181     183
     178     180     181     184     179     178     180     181
     185     188     190     191     186     185     188     190
     186     185     188     189     187     185     188     190
     187     185     188     189     188     190     191     192
     188     190     191     193     188     190     191     194
     189     188     190     191     190     191     194     195
     191     194     195     198     191     194     195     196
     191     194     195     197     192     191     194     195
     193     191     194     195     194     195     198     200
     194     195     198     220     194     195     198     199
     195     198     200     201     195     198     220     217
     195     198     220     222     195     198     220     221
     196     195     198     200     196     195     198     220
     196     195     198     199     197     195     198     200
     197     195     198     220     197     195     198     199
     198     220     217     219     198     220     217     201
     198     220     217     218     198     220     222     223
     198     200     201     203     198     200     201     217
     198     200     201     202     199     198     200     201
     199     198     220     217     199     198     220     222
     199     198     220     221     200     201     203     206
     200     201     203     204     200     201     217     219
     200     201     217     220     200     201     217     218
     200     198     220     217     200     198     220     222
     200     198     220     221     201     217     220     222
     201     217     220     221     201     203     206     208
     201     203     206     207     201     203     204     205
     201     203     204     212     201     200     198     220
     202     201     203     206     202     201     203     204
     202     201     217     219     202     201     217     220
     202     201     217     218     203     206     208     209
     203     206     208     210     203     204     212     210
     203     204     212     213     203     201     217     219
     203     201     217     220     203     201     217     218
     204     212     210     208     204     212     210     211
     204     212     213     214     204     212     213     215
     204     212     213     216     204     203     201     217
     204     203     206     208     204     203     206     207
     205     204     203     206     205     204     212     210
     205     204     212     213     206     208     210     212
     206     208     210     211     206     203     201     217
     206     203     204     212     207     206     208     209
     207     206     208     210     208     210     212     213
     209     208     210     212     209     208     210     211
     210     212     213     214     210     212     213     215
     210     212     213     216     211     210     212     213
     217     220     222     223     218     217     220     222
     218     217     220     221     219     217     220     222
     219     217     220     221     220     222     223     224
     220     222     223     225     220     222     223     226
     221     220     222     223     222     223     226     227
     223     226     227     230     223     226     227     228
     223     226     227     229     224     223     226     227
     225     223     226     227     226     227     230     232
     226     227     230     252     226     227     230     231
     227     230     232     233     227     230     252     249
     227     230     252     254     227     230     252     253
     228     227     230     232     228     227     230     252
     228     227     230     231     229     227     230     232
     229     227     230     252     229     227     230     231
     230     252     249     251     230     252     249     233
     230     252     249     250     230     252     254     255
     230     232     233     235     230     232     233     249
     230     232     233     234     231     230     232     233
     231     230     252     249     231     230     252     254
     231     230     252     253     232     233     235     238
     232     233     235     236     232     233     249     251
     232     233     249     252     232     233     249     250
     232     230     252     249     232     230     252     254
     232     230     252     253     233     249     252     254
     233     249     252     253     233     235     238     240
     233     235     238     239     233     235     236     237
     233     235     236     244     233     232     230     252
     234     233     235     238     234     233     235     236
     234     233     249     251     234     233     249     252
     234     233     249     250     235     238     240     241
     235     238     240     242     235     236     244     242
     235     236     244     245     235     233     249     251
     235     233     249     252     235     233     249     250
     236     244     242     240     236     244     242     243
     236     244     245     246     236     244     245     247
     236     244     245     248     236     235     233     249
     236     235     238     240     236     235     238     239
     237     236     235     238     237     236     244     242
     237     236     244     245     238     240     242     244
     238     240     242     243     238     235     233     249
     238     235     236     244     239     238     240     241
     239     238     240     242     240     242     244     245
     241     240     242     244     241     240     242     243
     242     244     245     246     242     244     245     247
     242     244     245     248     243     242     244     245
     249     252     254     255     250     249     252     254
     250     249     252     253     251     249     252     254
     251     249     252     253     252     254     255     256
     252     254     255     257     252     254     255     258
     253     252     254     255     254     255     258     259
     255     258     259     262     255     258     259     260
     255     258     259     261     256     255     258     259
     257     255     258     259     258     259     262     264
     258     259     262     284     258     259     262     263
     259     262     264     265     259     262     284     281
     259     262     284     286     259     262     284     285
     260     259     262     264     260     259     262     284
     260     259     262     263     261     259     262     264
     261     259     262     284     261     259     262     263
     262     284     281     283     262     284     281     265
     262     284     281     282     262     284     286     287
     262     264     265     267     262     264     265     281
     262     264     265     266     263     262     264     265
     263     262     284     281     263     262     284     286
     263     262     284     285     264     265     267     270
     264     265     267     268     264     265     281     283
     264     265     281     284     264     265     281     282
     264     262     284     281     264     262     284     286
     264     262     284     285     265     281     284     286
     265     281     284     285     265     267     270     272
     265     267     270     271     265     267     268     269
     265     267     268     276     265     264     262     284
     266     265     267     270     266     265     267     268
     266     265     281     283     266     265     281     284
     266     265     281     282     267     270     272     273
     267     270     272     274     267     268     276     274
     267     268     276     277     267     265     281     283
     267     265     281     284     267     265     281     282
     268     276     274     272     268     276     274     275
     268     276     277     278     268     276     277     279
     268     276     277     280     268     267     265     281
     268     267     270     272     268     267     270     271
     269     268     267     270     269     268     276     274
     269     268     276     277     270     272     274     276
     270     272     274     275     270     267     265     281
     270     267     268     276     271     270     272     273
     271     270     272     274     272     274     276     277
     273     272     274     276     273     272     274     275
     274     276     277     278     274     276     277     279
     274     276     277     280     275     274     276     277
     281     284     286     287     282     281     284     286
     282     281     284     285     283     281     284     286
     283     281     284     285     284     286     287     288
     284     286     287     289     284     286     287     290
     285     284     286     287     286     287     290     291
     287     290     291     294     287     290     291     292
     287     290     291     293     288     287     290     291
     289     287     290     291     290     291     294     296
     290     291     294     316     290     291     294     295
     291     294     296     297     291     294     316     313
     291     294     316     318     291     294     316     317
     292     291     294     296     292     291     294     316
     292     291     294     295     293     291     294     296
     293     291     294     316     293     291     294     295
     294     316     313     315     294     316     313     297
     294     316     313     314     294     316     318     319
     294     296     297     299     294     296     297     313
     294     296     297     298     295     294     296     297
     295     294     316     313     295     294     316     318
     295     294     316     317     296     297     299     302
     296     297     299     300     296     297     313     315
     296     297     313     316     296     297     313     314
     296     294     316     313     296     294     316     318
     296     294     316     317     297     313     316     318
     297     313     316     317     297     299     302     304
     297     299     302     303     297     299     300     301
     297     299     300     308     297     296     294     316
     298     297     299     302     298     297     299     300
     298     297     313     315     298     297     313     316
     298     297     313     314     299     302     304     305
     299     302     304     306     299     300     308     306
     299     300     308     309     299     297     313     315
     299     297     313     316     299     297     313     314
     300     308     306     304     300     308     306     307
     300     308     309     310     300     308     309     311
     300     308     309     312     300     299     297     313
     300     299     302     304     300     299     302     303
     301     300     299     302     301     300     308     306
     301     300     308     309     302     304     306     308
     302     304     306     307     302     299     297     313
     302     299     300     308     303     302     304     305
     303     302     304     306     304     306     308     309
     305     304     306     308     305     304     306     307
     306     308     309     310     306     308     309     311
     306     308     309     312     307     306     308     309
     313     316     318     319     314     313     316     318
     314     313     316     317     315     313     316     318
     315     313     316     317     316     318     319     320
     316     318     319     321     316     318     319     322
     317     316     318     319     318     319     322     323
     319     322     323     326     319     322     323     324
     319     322     323     325     320     319     322     323
     321     319     322     323     322     323     326     328
     322     323     326     348     322     323     326     327
     323     326     328     329     323     326     348     345
     323     326     348     350     323     326     348     349
     324     323     326     328     324     323     326     348
     324     323     326     327     325     323     326     328
     325     323     326     348     325     323     326     327
     326     348     345     347     326     348     345     329
     326     348     345     346     326     348     350     351
     326     328     329     331     326     328     329     345
     326     328     329     330     327     326     328     329
     327     326     348     345     327     326     348     350
     327     326     348     349     328     329     331     334
     328     329     331     332     328     329     345     347
     328     329     345     348     328     329     345     346
     328     326     348     345     328     326     348     350
     328     326     348     349     329     345     348     350
     329     345     348     349     329     331     334     336
     329     331     334     335     329     331     332     333
     329     331     332     340     329     328     326     348
     330     329     331     334     330     329     331     332
     330     329     345     347     330     329     345     348
     330     329     345     346     331     334     336     337
     331     334     336     338     331     332     340     338
     331     332     340     341     331     329     345     347
     331     329     345     348     331     329     345     346
     332     340     338     336     332     340     338     339
     332     340     341     342     332     340     341     343
     332     340     341     344     332     331     329     345
     332     331     334     336     332     331     334     335
     333     332     331     334     333     332     340     338
     333     332     340     341     334     336     338     340
     334     336     338     339     334     331     329     345
     334     331     332     340     335     334     336     337
     335     334     336     338     336     338     340     341
     337     336     338     340     337     336     338     339
     338     340     341     342     338     340     341     343
     338     340     341     344     339     338     340     341
     345     348     350     351     346     345     348     350
     346     345     348     349     347     345     348     350
     347     345     348     349     348     350     351     352
     348     350     351     353     348     350     351     354
     349     348     350     351     350     351     354     355
     351     354     355     358     351     354     355     356
     351     354     355     357     352     351     354     355
     353     351     354     355     354     355     358     360
     354     355     358     380     354     355     358     359
     355     358     360     361     355     358     380     377
     355     358     380     382     355     358     380     381
     356     355     358     360     356     355     358     380
     356     355     358     359     357     355     358     360
     357     355     358     380     357     355     358     359
     358     380     377     379     358     380     377     361
     358     380     377     378     358     380     382     383
     358     360     361     363     358     360     361     377
     358     360     361     362     359     358     360     361
     359     358     380     377     359     358     380     382
     359     358     380     381     360     361     363     366
     360     361     363     364     360     361     377     379
     360     361     377     380     360     361     377     378
     360     358     380     377     360     358     380     382
     360     358     380     381     361     377     380     382
     361     377     380     381     361     363     366     368
     361     363     366     367     361     363     364     365
     361     363     364     372     361     360     358     380
     362     361     363     366     362     361     363     364
     362     361     377     379     362     361     377     380
     362     361     377     378     363     366     368     369
     363     366     368     370     363     364     372     370
     363     364     372     373     363     361     377     379
     363     361     377     380     363     361     377     378
     364     372     370     368     364     372     370     371
     364     372     373     374     364     372     373     375
     364     372     373     376     364     363     361     377
     364     363     366     368     364     363     366     367
     365     364     363     366     365     364     372     370
     365     364     372     373     366     368     370     372
     366     368     370     371     366     363     361     377
     366     363     364     372     367     366     368     369
     367     366     368     370     368     370     372     373
     369     368     370     372     369     368     370     371
     370     372     373     374     370     372     373     375
     370     372     373     376     371     370     372     373
     377     380     382     383     378     377     380     382
     378     377     380     381     379     377     380     382
     379     377     380     381     380     382     383     384
     380     382     383     385     380     382     383     386
     381     380     382     383     382     383     386     387
     383     386     387     390     383     386     387     388
     383     386     387     389     384     383     386     387
     385     383     386     387     386     387     390     392
     386     387     390     412     386     387     390     391
     387     390     392     393     387     390     412     409
     387     390     412     414     387     390     412     413
     388     387     390     392     388     387     390     412
     388     387     390     391     389     387     390     392
     389     387     390     412     389     387     390     391
     390     412     409     411     390     412     409     393
     390     412     409     410     390     412     414     415
     390     392     393     395     390     392     393     409
     390     392     393     394     391     390     392     393
     391     390     412     409     391     390     412     414
     391     390     412     413     392     393     395     398
     392     393     395     396     392     393     409     411
     392     393     409     412     392     393     409     410
     392     390     412     409     392     390     412     414
     392     390     412     413     393     409     412     414
     393     409     412     413     393     395     398     400
     393     395     398     399     393     395     396     397
     393     395     396     404     393     392     390     412
     394     393     395     398     394     393     395     396
     394     393     409     411     394     393     409     412
     394     393     409     410     395     398     400     401
     395     398     400     402     395     396     404     402
     395     396     404     405     395     393     409     411
     395     393     409     412     395     393     409     410
     396     404     402     400     396     404     402     403
     396     404     405     406     396     404     405     407
     396     404     405     408     396     395     393     409
     396     395     398     400     396     395     398     399
     397     396     395     398     397     396     404     402
     397     396     404     405     398     400     402     404
     398     400     402     403     398     395     393     409
     398     395     396     404     399     398     400     401
     399     398     400     402     400     402     404     405
     401     400     402     404     401     400     402     403
     402     404     405     406     402     404     405     407
     402     404     405     408     403     402     404     405
     409     412     414     415     410     409     412     414
     410     409     412     413     411     409     412     414
     411     409     412     413     412     414     415     416
     412     414     415     417     412     414     415     418
     413     412     414     415     414     415     418     419
     415     418     419     422     415     418     419     420
     415     418     419     421     416     415     418     419
     417     415     418     419     418     419     422     424
     418     419     422     444     418     419     422     423
     419     422     424     425     419     422     444     441
     419     422     444     446     419     422     444     445
     420     419     422     424     420     419     422     444
     420     419     422     423     421     419     422     424
     421     419     422     444     421     419     422     423
     422     444     441     443     422     444     441     425
     422     444     441     442     422     444     446     447
     422     424     425     427     422     424     425     441
     422     424     425     426     423     422     424     425
     423     422     444     441     423     422     444     446
     423     422     444     445     424     425     427     430
     424     425     427     428     424     425     441     443
     424     425     441     444     424     425     441     442
     424     422     444     441     424     422     444     446
     424     422     444     445     425     441     444     446
     425     441     444     445     425     427     430     432
     425     427     430     431     425     427     428     429
     425     427     428     436     425     424     422     444
     426     425     427     430     426     425     427     428
     426     425     441     443     426     425     441     444
     426     425     441     442     427     430     432     433
     427     430     432     434     427     428     436     434
     427     428     436     437     427     425     441     443
     427     425     441     444     427     425     441     442
     428     436     434     432     428     436     434     435
     428     436     437     438     428     436     437     439
     428     436     437     440     428     427     425     441
     428     427     430     432     428     427     430     431
     429     428     427     430     429     428     436     434
     429     428     436     437     430     432     434     436
     430     432     434     435     430     427     425     441
     430     427     428     436     431     430     432     433
     431     430     432     434     432     434     436     437
     433     432     434     436     433     432     434     435
     434     436     437     438     434     436     437     439
     434     436     437     440     435     434     436     437
     441     444     446     447     442     441     444     446
     442     441     444     445     443     441     444     446
     443     441     444     445     444     446     447     448
     444     446     447     449     444     446     447     450
     445     444     446     447     446     447     450     451
     447     450     451     454     447     450     451     452
     447     450     451     453     448     447     450     451
     449     447     450     451     450     451     454     456
     450     451     454     476     450     451     454     455
     451     454     456     457     451     454     476     473
     451     454     476     478     451     454     476     477
     452     451     454     456     452     451     454     476
     452     451     454     455     453     451     454     456
     453     451     454     476     453     451     454     455
     454     476     473     475     454     476     473     457
     454     476     473     474     454     476     478     479
     454     456     457     459     454     456     457     473
     454     456     457     458     455     454     456     457
     455     454     476     473     455     454     476     478
     455     454     476     477     456     457     459     462
     456     457     459     460     456     457     473     475
     456     457     473     476     456     457     473     474
     456     454     476     473     456     454     476     478
     456     454     476     477     457     473     476     478
     457     473     476     477     457     459     462     464
     457     459     462     463     457     459     460     461
     457     459     460     468     457     456     454     476
     458     457     459     462     458     457     459     460
     458     457     473     475     458     457     473     476
     458     457     473     474     459     462     464     465
     459     462     464     466     459     460     468     466
     459     460     468     469     459     457     473     475
     459     457     473     476     459     457     473     474
     460     468     466     464     460     468     466     467
     460     468     469     470     460     468     469     471
     460     468     469     472     460     459     457     473
     460     459     462     464     460     459     462     463
     461     460     459     462     461     460     468     466
     461     460     468     469     462     464     466     468
     462     464     466     467     462     459     457     473
     462     459     460     468     463     462     464     465
     463     462     464     466     464     466     468     469
     465     464     466     468     465     464     466     467
     466     468     469     470     466     468     469     471
     466     468     469     472     467     466     468     469
     473     476     478     479     474     473     476     478
     474     473     476     477     475     473     476     478
     475     473     476     477     476     478     479     480
     476     478     479     481     476     478     479     482
     477     476     478     479     478     479     482     483
     479     482     483     486     479     482     483     484
     479     482     483     485     480     479     482     483
     481     479     482     483     482     483     486     488
     482     483     486     508     482     483     486     487
     483     486     488     489     483     486     508     505
     483     486     508     510     483     486     508     509
     484     483     486     488     484     483     486     508
     484     483     486     487     485     483     486     488
     485     483     486     508     485     483     486     487
     486     508     505     507     486     508     505     489
     486     508     505     506     486     508     510     511
     486     488     489     491     486     488     489     505
     486     488     489     490     487     486     488     489
     487     486     508     505     487     486     508     510
     487     486     508     509     488     489     491     494
     488     489     491     492     488     489     505     507
     488     489     505     508     488     489     505     506
     488     486     508     505     488     486     508     510
     488     486     508     509     489     505     508     510
     489     505     508     509     489     491     494     496
     489     491     494     495     489     491     492     493
     489     491     492     500     489     488     486     508
     490     489     491     494     490     489     491     492
     490     489     505     507     490     489     505     508
     490     489     505     506     491     494     496     497
     491     494     496     498     491     492     500     498
     491     492     500     501     491     489     505     507
     491     489     505     508     491     489     505     506
     492     500     498     496     492     500     498     499
     492     500     501     502     492     500     501     503
     492     500     501     504     492     491     489     505
     492     491     494     496     492     491     494     495
     493     492     491     494     493     492     500     498
     493     492     500     501     494     496     498     500
     494     496     498     499     494     491     489     505
     494     491     492     500     495     494     496     497
     495     494     496     498     496     498     500     501
     497     496     498     500     497     496     498     499
     498     500     501     502     498     500     501     503
     498     500     501     504     499     498     500     501
     505     508     510     511     506     505     508     510
     506     505     508     509     507     505     508     510
     507     505     508     509     508     510     511     512
     508     510     511     513     508     510     511     514
     509     508     510     511     510     511     514     515
     511     514     515     518     511     514     515     516
     511     514     515     517     512     511     514     515
     513     511     514     515     514     515     518     520
     514     515     518     540     514     515     518     519
     515     518     520     521     515     518     540     537
     515     518     540     542     515     518     540     541
     516     515     518     520     516     515     518     540
     516     515     518     519     517     515     518     520
     517     515     518     540     517     515     518     519
     518     540     537     539     518     540     537     521
     518     540     537     538     518     540     542     543
     518     520     521     523     518     520     521     537
     518     520     521     522     519     518     520     521
     519     518     540     537     519     518     540     542
     519     518     540     541     520     521     523     526
     520     521     523     524     520     521     537     539
     520     521     537     540     520     521     537     538
     520     518     540     537     520     518     540     542
     520     518     540     541     521     537     540     542
     521     537     540     541     521     523     526     528
     521     523     526     527     521     523     524     525
     521     523     524     532     521     520     518     540
     522     521     523     526     522     521     523     524
     522     521     537     539     522     521     537     540
     522     521     537     538     523     526     528     529
     523     526     528     530     523     524     532     530
     523     524     532     533     523     521     537     539
     523     521     537     540     523     521     537     538
     524     532     530     528     524     532     530     531
     524     532     533     534     524     532     533     535
     524     532     533     536     524     523     521     537
     524     523     526     528     524     523     526     527
     525     524     523     526     525     524     532     530
     525     524     532     533     526     528     530     532
     526     528     530     531     526     523     521     537
     526     523     524     532     527     526     528     529
     527     526     528     530     528     530     532     533
     529     528     530     532     529     528     530     531
     530     532     533     534     530     532     533     535
     530     532     533     536     531     530     532     533
     537     540     542     543     538     537     540     542
     538     537     540     541     539     537     540     542
     539     537     540     541     540     542     543     544
     540     542     543     545     540     542     543     546
     541     540     542     543     542     543     546     547
     543     546     547     550     543     546     547     548
     543     546     547     549     544     543     546     547
     545     543     546     547     546     547     550     552
     546     547     550     572     546     547     550     551
     547     550     552     553     547     550     572     569
     547     550     572     574     547     550     572     573
     548     547     550     552     548     547     550     572
     548     547     550     551     549     547     550     552
     549     547     550     572     549     547     550     551
     550     572     569     571     550     572     569     553
     550     572     569     570     550     572     574     575
     550     552     553     555     550     552     553     569
     550     552     553     554     551     550     552     553
     551     550     572     569     551     550     572     574
     551     550     572     573     552     553     555     558
     552     553     555     556     552     553     569     571
     552     553     569     572     552     553     569     570
     552     550     572     569     552     550     572     574
     552     550     572     573     553     569     572     574
     553     569     572     573     553     555     558     560
     553     555     558     559     553     555     556     557
     553     555     556     564     553     552     550     572
     554     553     555     558     554     553     555     556
     554     553     569     571     554     553     569     572
     554     553     569     570     555     558     560     561
     555     558     560     562     555     556     564     562
     555     556     564     565     555     553     569     571
     555     553     569     572     555     553     569     570
     556     564     562     560     556     564     562     563
     556     564     565     566     556     564     565     567
     556     564     565     568     556     555     553     569
     556     555     558     560     556     555     558     559
     557     556     555     558     557     556     564     562
     557     556     564     565     558     560     562     564
     558     560     562     563     558     555     553     569
     558     555     556     564     559     558     560     561
     559     558     560     562     560     562     564     565
     561     560     562     564     561     560     562     563
     562     564     565     566     562     564     565     567
     562     564     565     568     563     562     564     565
     569     572     574     575     570     569     572     574
     570     569     572     573     571     569     572     574
     571     569     572     573     572     574     575     576
     572     574     575     577     572     574     575     578
     573     572     574     575     574     575     578     579
     575     578     579     582     575     578     579     580
     575     578     579     581     576     575     578     579
     577     575     578     579     578     579     582     584
     578     579     582     604     578     579     582     583
     579     582     584     585     579     582     604     601
     579     582     604     606     579     582     604     605
     580     579     582     584     580     579     582     604
     580     579     582     583     581     579     582     584
     581     579     582     604     581     579     582     583
     582     604     601     603     582     604     601     585
     582     604     601     602     582     604     606     607
     582     584     585     587     582     584     585     601
     582     584     585     586     583     582     584     585
     583     582     604     601     583     582     604     606
     583     582     604     605     584     585     587     590
     584     585     587     588     584     585     601     603
     584     585     601     604     584     585     601     602
     584     582     604     601     584     582     604     606
     584     582     604     605     585     601     604     606
     585     601     604     605     585     587     590     592
     585     587     590     591     585     587     588     589
     585     587     588     596     585     584     582     604
     586     585     587     590     586     585     587     588
     586     585     601     603     586     585     601     604
     586     585     601     602     587     590     592     593
     587     590     592     594     587     588     596     594
     587     588     596     597     587     585     601     603
     587     585     601     604     587     585     601     602
     588     596     594     592     588     596     594     595
     588     596     597     598     588     596     597     599
     588     596     597     600     588     587     585     601
     588     587     590     592     588     587     590     591
     589     588     587     590     589     588     596     594
     589     588     596     597     590     592     594     596
     590     592     594     595     590     587     585     601
     590     587     588     596     591     590     592     593
     591     590     592     594     592     594     596     597
     593     592     594     596     593     592     594     595
     594     596     597     598     594     596     597     599
     594     596     597     600     595     594     596     597
     601     604     606     607     602     601     604     606
     602     601     604     605     603     601     604     606
     603     601     604     605     604     606     607     608
     604     606     607     609     604     606     607     610
     605     604     606     607     606     607     610     611
     607     610     611     614     607     610     611     612
     607     610     611     613     608     607     610     611
     609     607     610     611     610     611     614     616
     610     611     614     636     610     611     614     615
     611     614     616     617     611     614     636     633
     611     614     636     638     611     614     636     637
     612     611     614     616     612     611     614     636
     612     611     614     615     613     611     614     616
     613     611     614     636     613     611     614     615
     614     636     633     635     614     636     633     617
     614     636     633     634     614     636     638     639
     614     616     617     619     614     616     617     633
     614     616     617     618     615     614     616     617
     615     614     636     633     615     614     636     638
     615     614     636     637     616     617     619     622
     616     617     619     620     616     617     633     635
     616     617     633     636     616     617     633     634
     616     614     636     633     616     614     636     638
     616     614     636     637     617     633     636     638
     617     633     636     637     617     619     622     624
     617     619     622     623     617     619     620     621
     617     619     620     628     617     616     614     636
     618     617     619     622     618     617     619     620
     618     617     633     635     618     617     633     636
     618     617     633     634     619     622     624     625
     619     622     624     626     619     620     628     626
     619     620     628     629     619     617     633     635
     619     617     633     636     619     617     633     634
     620     628     626     624     620     628     626     627
     620     628     629     630     620     628     629     631
     620     628     629     632     620     619     617     633
     620     619     622     624     620     619     622     623
     621     620     619     622     621     620     628     626
     621     620     628     629     622     624     626     628
     622     624     626     627     622     619     617     633
     622     619     620     628     623     622     624     625
     623     622     624     626     624     626     628     629
     625     624     626     628     625     624     626     627
     626     628     629     630     626     628     629     631
     626     628     629     632     627     626     628     629
     633     636     638     639     634     633     636     638
     634     633     636     637     635     633     636     638
     635     633     636     637     636     638     639     640
     636     638     639     641     636     638     639     642
     637     636     638     639     638     639     642     643
     639     642     643     646     639     642     643     644
     639     642     643     645     640     639     642     643
     641     639     642     643     642     643     646     648
     642     643     646     668     642     643     646     647
     643     646     648     649     643     646     668     665
     643     646     668     670     643     646     668     669
     644     643     646     648     644     643     646     668
     644     643     646     647     645     643     646     648
     645     643     646     668     645     643     646     647
     646     668     665     667     646     668     665     649
     646     668     665     666     646     668     670     671
     646     648     649     651     646     648     649     665
     646     648     649     650     647     646     648     649
     647     646     668     665     647     646     668     670
     647     646     668     669     648     649     651     654
     648     649     651     652     648     649     665     667
     648     649     665     668     648     649     665     666
     648     646     668     665     648     646     668     670
     648     646     668     669     649     665     668     670
     649     665     668     669     649     651     654     656
     649     651     654     655     649     651     652     653
     649     651     652     660     649     648     646     668
     650     649     651     654     650     649     651     652
     650     649     665     667     650     649     665     668
     650     649     665     666     651     654     656     657
     651     654     656     658     651     652     660     658
     651     652     660     661     651     649     665     667
     651     649     665     668     651     649     665     666
     652     660     658     656     652     660     658     659
     652     660     661     662     652     660     661     663
     652     660     661     664     652     651     649     665
     652     651     654     656     652     651     654     655
     653     652     651     654     653     652     660     658
     653     652     660     661     654     656     658     660
     654     656     658     659     654     651     649     665
     654     651     652     660     655     654     656     657
     655     654     656     658     656     658     660     661
     657     656     658     660     657     656     658     659
     658     660     661     662     658     660     661     663
     658     660     661     664     659     658     660     661
     665     668     670     671     666     665     668     670
     666     665     668     669     667     665     668     670
     667     665     668     669     668     670     671     672
     668     670     671     673     668     670     671     674
     669     668     670     671     670     671     674     675
     671     674     675     678     671     674     675     676
     671     674     675     677     672     671     674     675
     673     671     674     675     674     675     678     680
     674     675     678     700     674     675     678     679
     675     678     680     681     675     678     700     697
     675     678     700     702     675     678     700     701
     676     675     678     680     676     675     678     700
     676     675     678     679     677     675     678     680
     677     675     678     700     677     675     678     679
     678     700     697     699     678     700     697     681
     678     700     697     698     678     700     702     703
     678     680     681     683     678     680     681     697
     678     680     681     682     679     678     680     681
     679     678     700     697     679     678     700     702
     679     678     700     701     680     681     683     686
     680     681     683     684     680     681     697     699
     680     681     697     700     680     681     697     698
     680     678     700     697     680     678     700     702
     680     678     700     701     681     697     700     702
     681     697     700     701     681     683     686     688
     681     683     686     687     681     683     684     685
     681     683     684     692     681     680     678     700
     682     681     683     686     682     681     683     684
     682     681     697     699     682     681     697     700
     682     681     697     698     683     686     688     689
     683     686     688     690     683     684     692     690
     683     684     692     693     683     681     697     699
     683     681     697     700     683     681     697     698
     684     692     690     688     684     692     690     691
     684     692     693     694     684     692     693     695
     684     692     693     696     684     683     681     697
     684     683     686     688     684     683     686     687
     685     684     683     686     685     684     692     690
     685     684     692     693     686     688     690     692
     686     688     690     691     686     683     681     697
     686     683     684     692     687     686     688     689
     687     686     688     690     688     690     692     693
     689     688     690     692     689     688     690     691
     690     692     693     694     690     692     693     695
     690     692     693     696     691     690     692     693
     697     700     702     703     698     697     700     702
     698     697     700     701     699     697     700     702
     699     697     700     701     700     702     703     704
     700     702     703     705     700     702     703     706
     701     700     702     703     702     703     706     707
     703     706     707     710     703     706     707     708
     703     706     707     709     704     703     706     707
     705     703     706     707     706     707     710     712
     706     707     710     732     706     707     710     711
     707     710     712     713     707     710     732     729
     707     710     732     734     707     710     732     733
     708     707     710     712     708     707     710     732
     708     707     710     711     709     707     710     712
     709     707     710     732     709     707     710     711
     710     732     729     731     710     732     729     713
     710     732     729     730     710     732     734     735
     710     712     713     715     710     712     713     729
     710     712     713     714     711     710     712     713
     711     710     732     729     711     710     732     734
     711     710     732     733     712     713     715     718
     712     713     715     716     712     713     729     731
     712     713     729     732     712     713     729     730
     712     710     732     729     712     710     732     734
     712     710     732     733     713     729     732     734
     713     729     732     733     713     715     718     720
     713     715     718     719     713     715     716     717
     713     715     716     724     713     712     710     732
     714     713     715     718     714     713     715     716
     714     713     729     731     714     713     729     732
     714     713     729     730     715     718     720     721
     715     718     720     722     715     716     724     722
     715     716     724     725     715     713     729     731
     715     713     729     732     715     713     729     730
     716     724     722     720     716     724     722     723
     716     724     725     726     716     724     725     727
     716     724     725     728     716     715     713     729
     716     715     718     720     716     715     718     719
     717     716     715     718     717     716     724     722
     717     716     724     725     718     720     722     724
     718     720     722     723     718     715     713     729
     718     715     716     724     719     718     720     721
     719     718     720     722     720     722     724     725
     721     720     722     724     721     720     722     723
     722     724     725     726     722     724     725     727
     722     724     725     728     723     722     724     725
     729     732     734     735     730     729     732     734
     730     729     732     733     731     729     732     734
     731     729     732     733     732     734     735     736
     732     734     735     737     732     734     735     738
     733     732     734     735     734     735     738     739
     735     738     739     742     735     738     739     740
     735     738     739     741     736     735     738     739
     737     735     738     739     738     739     742     744
     738     739     742     764     738     739     742     743
     739     742     744     745     739     742     764     761
     739     742     764     766     739     742     764     765
     740     739     742     744     740     739     742     764
     740     739     742     743     741     739     742     744
     741     739     742     764     741     739     742     743
     742     764     761     763     742     764     761     745
     742     764     761     762     742     764     766     767
     742     744     745     747     742     744     745     761
     742     744     745     746     743     742     744     745
     743     742     764     761     743     742     764     766
     743     742     764     765     744     745     747     750
     744     745     747     748     744     745     761     763
     744     745     761     764     744     745     761     762
     744     742     764     761     744     742     764     766
     744     742     764     765     745     761     764     766
     745     761     764     765     745     747     750     752
     745     747     750     751     745     747     748     749
     745     747     748     756     745     744     742     764
     746     745     747     750     746     745     747     748
     746     745     761     763     746     745     761     764
     746     745     761     762     747     750     752     753
     747     750     752     754     747     748     756     754
     747     748     756     757     747     745     761     763
     747     745     761     764     747     745     761     762
     748     756     754     752     748     756     754     755
     748     756     757     758     748     756     757     759
     748     756     757     760     748     747     745     761
     748     747     750     752     748     747     750     751
     749     748     747     750     749     748     756     754
     749     748     756     757     750     752     754     756
     750     752     754     755     750     747     745     761
     750     747     748     756     751     750     752     753
     751     750     752     754     752     754     756     757
     753     752     754     756     753     752     754     755
     754     756     757     758     754     756     757     759
     754     756     757     760     755     754     756     757
     761     764     766     767     762     761     764     766
     762     761     764     765     763     761     764     766
     763     761     764     765     764     766     767     768
     764     766     767     769     764     766     767     770
     765     764     766     767     766     767     770     771
     767     770     771     774     767     770     771     772
     767     770     771     773     768     767     770     771
     769     767     770     771     770     771     774     776
     770     771     774     796     770     771     774     775
     771     774     776     777     771     774     796     793
     771     774     796     798     771     774     796     797
     772     771     774     776     772     771     774     796
     772     771     774     775     773     771     774     776
     773     771     774     796     773     771     774     775
     774     796     793     795     774     796     793     777
     774     796     793     794     774     796     798     799
     774     776     777     779     774     776     777     793
     774     776     777     778     775     774     776     777
     775     774     796     793     775     774     796     798
     775     774     796     797     776     777     779     782
     776     777     779     780     776     777     793     795
     776     777     793     796     776     777     793     794
     776     774     796     793     776     774     796     798
     776     774     796     797     777     793     796     798
     777     793     796     797     777     779     782     784
     777     779     782     783     777     779     780     781
     777     779     780     788     777     776     774     796
     778     777     779     782     778     777     779     780
     778     777     793     795     778     777     793     796
     778     777     793     794     779     782     784     785
     779     782     784     786     779     780     788     786
     779     780     788     789     779     777     793     795
     779     777     793     796     779     777     793     794
     780     788     786     784     780     788     786     787
     780     788     789     790     780     788     789     791
     780     788     789     792     780     779     777     793
     780     779     782     784     780     779     782     783
     781     780     779     782     781     780     788     786
     781     780     788     789     782     784     786     788
     782     784     786     787     782     779     777     793
     782     779     780     788     783     782     784     785
     783     782     784     786     784     786     788     789
     785     784     786     788     785     784     786     787
     786     788     789     790     786     788     789     791
     786     788     789     792     787     786     788     789
     793     796     798     799     794     793     796     798
     794     793     796     797     795     793     796     798
     795     793     796     797     796     798     799     800
     796     798     799     801     796     798     799     802
     797     796     798     799     798     799     802     803
     799     802     803     806     799     802     803     804
     799     802     803     805     800     799     802     803
     801     799     802     803     802     803     806     808
     802     803     806     828     802     803     806     807
     803     806     808     809     803     806     828     825
     803     806     828     830     803     806     828     829
     804     803     806     808     804     803     806     828
     804     803     806     807     805     803     806     808
     805     803     806     828     805     803     806     807
     806     828     825     827     806     828     825     809
     806     828     825     826     806     828     830     831
     806     808     809     811     806     808     809     825
     806     808     809     810     807     806     808     809
     807     806     828     825     807     806     828     830
     807     806     828     829     808     809     811     814
     808     809     811     812     808     809     825     827
     808     809     825     828     808     809     825     826
     808     806     828     825     808     806     828     830
     808     806     828     829     809     825     828     830
     809     825     828     829     809     811     814     816
     809     811     814     815     809     811     812     813
     809     811     812     820     809     808     806     828
     810     809     811     814     810     809     811     812
     810     809     825     827     810     809     825     828
     810     809     825     826     811     814     816     817
     811     814     816     818     811     812     820     818
     811     812     820     821     811     809     825     827
     811     809     825     828     811     809     825     826
     812     820     818     816     812     820     818     819
     812     820     821     822     812     820     821     823
     812     820     821     824     812     811     809     825
     812     811     814     816     812     811     814     815
     813     812     811     814     813     812     820     818
     813     812     820     821     814     816     818     820
     814     816     818     819     814     811     809     825
     814     811     812     820     815     814     816     817
     815     814     816     818     816     818     820     821
     817     816     818     820     817     816     818     819
     818     820     821     822     818     820     821     823
     818     820     821     824     819     818     820     821
     825     828     830     831     826     825     828     830
     826     825     828     829     827     825     828     830
     827     825     828     829     828     830     831     832
     828     830     831     833     828     830     831     834
     829     828     830     831     830     831     834     835
     831     834     835     838     831     834     835     836
     831     834     835     837     832     831     834     835
     833     831     834     835     834     835     838     840
     834     835     838     860     834     835     838     839
     835     838     840     841     835     838     860     857
     835     838     860     862     835     838     860     861
     836     835     838     840     836     835     838     860
     836     835     838     839     837     835     838     840
     837     835     838     860     837     835     838     839
     838     860     857     859     838     860     857     841
     838     860     857     858     838     860     862     863
     838     840     841     843     838     840     841     857
     838     840     841     842     839     838     840     841
     839     838     860     857     839     838     860     862
     839     838     860     861     840     841     843     846
     840     841     843     844     840     841     857     859
     840     841     857     860     840     841     857     858
     840     838     860     857     840     838     860     862
     840     838     860     861     841     857     860     862
     841     857     860     861     841     843     846     848
     841     843     846     847     841     843     844     845
     841     843     844     852     841     840     838     860
     842     841     843     846     842     841     843     844
     842     841     857     859     842     841     857     860
     842     841     857     858     843     846     848     849
     843     846     848     850     843     844     852     850
     843     844     852     853     843     841     857     859
     843     841     857     860     843     841     857     858
     844     852     850     848     844     852     850     851
     844     852     853     854     844     852     853     855
     844     852     853     856     844     843     841     857
     844     843     846     848     844     843     846     847
     845     844     843     846     845     844     852     850
     845     844     852     853     846     848     850     852
     846     848     850     851     846     843     841     857
     846     843     844     852     847     846     848     849
     847     846     848     850     848     850     852     853
     849     848     850     852     849     848     850     851
     850     852     853     854     850     852     853     855
     850     852     853     856     851     850     852     853
     857     860     862     863     858     857     860     862
     858     857     860     861     859     857     860     862
     859     857     860     861     860     862     863     864
     860     862     863     865     860     862     863     866
     861     860     862     863     862     863     866     867
     863     866     867     870     863     866     867     868
     863     866     867     869     864     863     866     867
     865     863     866     867     866     867     870     872
     866     867     870     892     866     867     870     871
     867     870     872     873     867     870     892     889
     867     870     892     894     867     870     892     893
     868     867     870     872     868     867     870     892
     868     867     870     871     869     867     870     872
     869     867     870     892     869     867     870     871
     870     892     889     891     870     892     889     873
     870     892     889     890     870     892     894     895
     870     872     873     875     870     872     873     889
     870     872     873     874     871     870     872     873
     871     870     892     889     871     870     892     894
     871     870     892     893     872     873     875     878
     872     873     875     876     872     873     889     891
     872     873     889     892     872     873     889     890
     872     870     892     889     872     870     892     894
     872     870     892     893     873     889     892     894
     873     889     892     893     873     875     878     880
     873     875     878     879     873     875     876     877
     873     875     876     884     873     872     870     892
     874     873     875     878     874     873     875     876
     874     873     889     891     874     873     889     892
     874     873     889     890     875     878     880     881
     875     878     880     882     875     876     884     882
     875     876     884     885     875     873     889     891
     875     873     889     892     875     873     889     890
     876     884     882     880     876     884     882     883
     876     884     885     886     876     884     885     887
     876     884     885     888     876     875     873     889
     876     875     878     880     876     875     878     879
     877     876     875     878     877     876     884     882
     877     876     884     885     878     880     882     884
     878     880     882     883     878     875     873     889
     878     875     876     884     879     878     880     881
     879     878     880     882     880     882     884     885
     881     880     882     884     881     880     882     883
     882     884     885     886     882     884     885     887
     882     884     885     888     883     882     884     885
     889     892     894     895     890     889     892     894
     890     889     892     893     891     889     892     894
     891     889     892     893     892     894     895     896
     892     894     895     897     892     894     895     898
     893     892     894     895     894     895     898     899
     895     898     899     902     895     898     899     900
     895     898     899     901     896     895     898     899
     897     895     898     899     898     899     902     904
     898     899     902     924     898     899     902     903
     899     902     904     905     899     902     924     921
     899     902     924     926     899     902     924     925
     900     899     902     904     900     899     902     924
     900     899     902     903     901     899     902     904
     901     899     902     924     901     899     902     903
     902     924     921     923     902     924     921     905
     902     924     921     922     902     924     926     927
     902     904     905     907     902     904     905     921
     902     904     905     906     903     902     904     905
     903     902     924     921     903     902     924     926
     903     902     924     925     904     905     907     910
     904     905     907     908     904     905     921     923
     904     905     921     924     904     905     921     922
     904     902     924     921     904     902     924     926
     904     902     924     925     905     921     924     926
     905     921     924     925     905     907     910     912
     905     907     910     911     905     907     908     909
     905     907     908     916     905     904     902     924
     906     905     907     910     906     905     907     908
     906     905     921     923     906     905     921     924
     906     905     921     922     907     910     912     913
     907     910     912     914     907     908     916     914
     907     908     916     917     907     905     921     923
     907     905     921     924     907     905     921     922
     908     916     914     912     908     916     914     915
     908     916     917     918     908     916     917     919
     908     916     917     920     908     907     905     921
     908     907     910     912     908     907     910     911
     909     908     907     910     909     908     916     914
     909     908     916     917     910     912     914     916
     910     912     914     915     910     907     905     921
     910     907     908     916     911     910     912     913
     911     910     912     914     912     914     916     917
     913     912     914     916     913     912     914     915
     914     916     917     918     914     916     917     919
     914     916     917     920     915     914     916     917
     921     924     926     927     922     921     924     926
     922     921     924     925     923     921     924     926
     923     921     924     925     924     926     927     928
     924     926     927     929     924     926     927     930
     925     924     926     927     926     927     930     931
     927     930     931     934     927     930     931     932
     927     930     931     933     928     927     930     931
     929     927     930     931     930     931     934     936
     930     931     934     956     930     931     934     935
     931     934     936     937     931     934     956     953
     931     934     956     958     931     934     956     957
     932     931     934     936     932     931     934     956
     932     931     934     935     933     931     934     936
     933     931     934     956     933     931     934     935
     934     956     953     955     934     956     953     937
     934     956     953     954     934     956     958     959
     934     936     937     939     934     936     937     953
     934     936     937     938     935     934     936     937
     935     934     956     953     935     934     956     958
     935     934     956     957     936     937     939     942
     936     937     939     940     936     937     953     955
     936     937     953     956     936     937     953     954
     936     934     956     953     936     934     956     958
     936     934     956     957     937     953     956     958
     937     953     956     957     937     939     942     944
     937     939     942     943     937     939     940     941
     937     939     940     948     937     936     934     956
     938     937     939     942     938     937     939     940
     938     937     953     955     938     937     953     956
     938     937     953     954     939     942     944     945
     939     942     944     946     939     940     948     946
     939     940     948     949     939     937     953     955
     939     937     953     956     939     937     953     954
     940     948     946     944     940     948     946     947
     940     948     949     950     940     948     949     951
     940     948     949     952     940     939     937     953
     940     939     942     944     940     939     942     943
     941     940     939     942     941     940     948     946
     941     940     948     949     942     944     946     948
     942     944     946     947     942     939     937     953
     942     939     940     948     943     942     944     945
     943     942     944     946     944     946     948     949
     945     944     946     948     945     944     946     947
     946     948     949     950     946     948     949     951
     946     948     949     952     947     946     948     949
     953     956     958     959     954     953     956     958
     954     953     956     957     955     953     956     958
     955     953     956     957     956     958     959     960
     956     958     959     961     956     958     959     962
     957     956     958     959     958     959     962     963
     959     962     963     966     959     962     963     964
     959     962     963     965     960     959     962     963
     961     959     962     963     962     963     966     968
     962     963     966     988     962     963     966     967
     963     966     968     969     963     966     988     985
     963     966     988     990     963     966     988     989
     964     963     966     968     964     963     966     988
     964     963     966     967     965     963     966     968
     965     963     966     988     965     963     966     967
     966     988     985     987     966     988     985     969
     966     988     985     986     966     988     990     991
     966     968     969     971     966     968     969     985
     966     968     969     970     967     966     968     969
     967     966     988     985     967     966     988     990
     967     966     988     989     968     969     971     974
     968     969     971     972     968     969     985     987
     968     969     985     988     968     969     985     986
     968     966     988     985     968     966     988     990
     968     966     988     989     969     985     988     990
     969     985     988     989     969     971     974     976
     969     971     974     975     969     971     972     973
     969     971     972     980     969     968     966     988
     970     969     971     974     970     969     971     972
     970     969     985     987     970     969     985     988
     970     969     985     986     971     974     976     977
     971     974     976     978     971     972     980     978
     971     972     980     981     971     969     985     987
     971     969     985     988     971     969     985     986
     972     980     978     976     972     980     978     979
     972     980     981     982     972     980     981     983
     972     980     981     984     972     971     969     985
     972     971     974     976     972     971     974     975
     973     972     971     974     973     972     980     978
     973     972     980     981     974     976     978     980
     974     976     978     979     974     971     969     985
     974     971     972     980     975     974     976     977
     975     974     976     978     976     978     980     981
     977     976     978     980     977     976     978     979
     978     980     981     982     978     980     981     983
     978     980     981     984     979     978     980     981
     985     988     990     991     986     985     988     990
     986     985     988     989     987     985     988     990
     987     985     988     989     988     990     991     992
     988     990     991     993     988     990     991     994
     989     988     990     991     990     991     994     995
     991     994     995     998     991     994     995     996
     991     994     995     997     992     991     994     995
     993     991     994     995     994     995     998    1000
     994     995     998    1020     994     995     998     999
     995     998    1000    1001     995     998    1020    1017
     995     998    1020    1022     995     998    1020    1021
     996     995     998    1000     996     995     998    1020
     996     995     998     999     997     995     998    1000
     997     995     998    1020     997     995     998     999
     998    1020    1017    1019     998    1020    1017    1001
     998    1020    1017    1018     998    1020    1022    1023
     998    1000    1001    1003     998    1000    1001    1017
     998    1000    1001    1002     999     998    1000    1001
     999     998    1020    1017     999     998    1020    1022
     999     998    1020    1021    1000    1001    1003    1006
    1000    1001    1003    1004    1000    1001    1017    1019
    1000    1001    1017    1020    1000    1001    1017    1018
    1000     998    1020    1017    1000     998    1020    1022
    1000     998    1020    1021    1001    1017    1020    1022
    1001    1017    1020    1021    1001    1003    1006    1008
    1001    1003    1006    1007    1001    1003    1004    1005
    1001    1003    1004    1012    1001    1000     998    1020
    1002    1001    1003    1006    1002    1001    1003    1004
    1002    1001    1017    1019    1002    1001    1017    1020
    1002    1001    1017    1018    1003    1006    1008    1009
    1003    1006    1008    1010    1003    1004    1012    1010
    1003    1004    1012    1013    1003    1001    1017    1019
    1003    1001    1017    1020    1003    1001    1017    1018
    1004    1012    1010    1008    1004    1012    1010    1011
    1004    1012    1013    1014    1004    1012    1013    1015
    1004    1012    1013    1016    1004    1003    1001    1017
    1004    1003    1006    1008    1004    1003    1006    1007
    1005    1004    1003    1006    1005    1004    1012    1010
    1005    1004    1012    1013    1006    1008    1010    1012
    1006    1008    1010    1011    1006    1003    1001    1017
    1006    1003    1004    1012    1007    1006    1008    1009
    1007    1006    1008    1010    1008    1010    1012    1013
    1009    1008    1010    1012    1009    1008    1010    1011
    1010    1012    1013    1014    1010    1012    1013    1015
    1010    1012    1013    1016    1011    1010    1012    1013
    1017    1020    1022    1023    1018    1017    1020    1022
    1018    1017    1020    1021    1019    1017    1020    1022
    1019    1017    1020    1021    1020    1022    1023    1024
    1020    1022    1023    1025    1020    1022    1023    1026
    1021    1020    1022    1023    1022    1023    1026    1027
    1023    1026    1027    1030    1023    1026    1027    1028
    1023    1026    1027    1029    1024    1023    1026    1027
    1025    1023    1026    1027    1026    1027    1030    1032
    1026    1027    1030    1052    1026    1027    1030    1031
    1027    1030    1032    1033    1027    1030    1052    1049
    1027    1030    1052    1054    1027    1030    1052    1053
    1028    1027    1030    1032    1028    1027    1030    1052
    1028    1027    1030    1031    1029    1027    1030    1032
    1029    1027    1030    1052    1029    1027    1030    1031
    1030    1052    1049    1051    1030    1052    1049    1033
    1030    1052    1049    1050    1030    1052    1054    1055
    1030    1032    1033    1035    1030    1032    1033    1049
    1030    1032    1033    1034    1031    1030    1032    1033
    1031    1030    1052    1049    1031    1030    1052    1054
    1031    1030    1052    1053    1032    1033    1035    1038
    1032    1033    1035    1036    1032    1033    1049    1051
    1032    1033    1049    1052    1032    1033    1049    1050
    1032    1030    1052    1049    1032    1030    1052    1054
    1032    1030    1052    1053    1033    1049    1052    1054
    1033    1049    1052    1053    1033    1035    1038    1040
    1033    1035    1038    1039    1033    1035    1036    1037
    1033    1035    1036    1044    1033    1032    1030    1052
    1034    1033    1035    1038    1034    1033    1035    1036
    1034    1033    1049    1051    1034    1033    1049    1052
    1034    1033    1049    1050    1035    1038    1040    1041
    1035    1038    1040    1042    1035    1036    1044    1042
    1035    1036    1044    1045    1035    1033    1049    1051
    1035    1033    1049    1052    1035    1033    1049    1050
    1036    1044    1042    1040    1036    1044    1042    1043
    1036    1044    1045    1046    1036    1044    1045    1047
    1036    1044    1045    1048    1036    1035    1033    1049
    1036    1035    1038    1040    1036    1035    1038    1039
    1037    1036    1035    1038    1037    1036    1044    1042
    1037    1036    1044    1045    1038    1040    1042    1044
    1038    1040    1042    1043    1038    1035    1033    1049
    1038    1035    1036    1044    1039    1038    1040    1041
    1039    1038    1040    1042    1040    1042    1044    1045
    1041    1040    1042    1044    1041    1040    1042    1043
    1042    1044    1045    1046    1042    1044    1045    1047
    1042    1044    1045    1048    1043    1042    1044    1045
    1049    1052    1054    1055    1050    1049    1052    1054
    1050    1049    1052    1053    1051    1049    1052    1054
    1051    1049    1052    1053    1052    1054    1055    1056
    1052    1054    1055    1057    1052    1054    1055    1058
    1053    1052    1054    1055    1054    1055    1058    1059
    1055    1058    1059    1062    1055    1058    1059    1060
    1055    1058    1059    1061    1056    1055    1058    1059
    1057    1055    1058    1059    1058    1059    1062    1064
    1058    1059    1062    1084    1058    1059    1062    1063
    1059    1062    1064    1065    1059    1062    1084    1081
    1059    1062    1084    1086    1059    1062    1084    1085
    1060    1059    1062    1064    1060    1059    1062    1084
    1060    1059    1062    1063    1061    1059    1062    1064
    1061    1059    1062    1084    1061    1059    1062    1063
    1062    1084    1081    1083    1062    1084    1081    1065
    1062    1084    1081    1082    1062    1084    1086    1087
    1062    1064    1065    1067    1062    1064    1065    1081
    1062    1064    1065    1066    1063    1062    1064    1065
    1063    1062    1084    1081    1063    1062    1084    1086
    1063    1062    1084    1085    1064    1065    1067    1070
    1064    1065    1067    1068    1064    1065    1081    1083
    1064    1065    1081    1084    1064    1065    1081    1082
    1064    1062    1084    1081    1064    1062    1084    1086
    1064    1062    1084    1085    1065    1081    1084    1086
    1065    1081    1084    1085    1065    1067    1070    1072
    1065    1067    1070    1071    1065    1067    1068    1069
    1065    1067    1068    1076    1065    1064    1062    1084
    1066    1065    1067    1070    1066    1065    1067    1068
    1066    1065    1081    1083    1066    1065    1081    1084
    1066    1065    1081    1082    1067    1070    1072    1073
    1067    1070    1072    1074    1067    1068    1076    1074
    1067    1068    1076    1077    1067    1065    1081    1083
    1067    1065    1081    1084    1067    1065    1081    1082
    1068    1076    1074    1072    1068    1076    1074    1075
    1068    1076    1077    1078    1068    1076    1077    1079
    1068    1076    1077    1080    1068    1067    1065    1081
    1068    1067    1070    1072    1068    1067    1070    1071
    1069    1068    1067    1070    1069    1068    1076    1074
    1069    1068    1076    1077    1070    1072    1074    1076
    1070    1072    1074    1075    1070    1067    1065    1081
    1070    1067    1068    1076    1071    1070    1072    1073
    1071    1070    1072    1074    1072    1074    1076    1077
    1073    1072    1074    1076    1073    1072    1074    1075
    1074    1076    1077    1078    1074    1076    1077    1079
    1074    1076    1077    1080    1075    1074    1076    1077
    1081    1084    1086    1087    1082    1081    1084    1086
    1082    1081    1084    1085    1083    1081    1084    1086
    1083    1081    1084    1085    1084    1086    1087    1088
    1084    1086    1087    1089    1084    1086    1087    1090
    1085    1084    1086    1087    1086    1087    1090    1091
    1087    1090    1091    1094    1087    1090    1091    1092
    1087    1090    1091    1093    1088    1087    1090    1091
    1089    1087    1090    1091    1090    1091    1094    1096
    1090    1091    1094    1116    1090    1091    1094    1095
    1091    1094    1096    1097    1091    1094    1116    1113
    1091    1094    1116    1118    1091    1094    1116    1117
    1092    1091    1094    1096    1092    1091    1094    1116
    1092    1091    1094    1095    1093    1091    1094    1096
    1093    1091    1094    1116    1093    1091    1094    1095
    1094    1116    1113    1115    1094    1116    1113    1097
    1094    1116    1113    1114    1094    1116    1118    1119
    1094    1096    1097    1099    1094    1096    1097    1113
    1094    1096    1097    1098    1095    1094    1096    1097
    1095    1094    1116    1113    1095    1094    1116    1118
    1095    1094    1116    1117    1096    1097    1099    1102
    1096    1097    1099    1100    1096    1097    1113    1115
    1096    1097    1113    1116    1096    1097    1113    1114
    1096    1094    1116    1113    1096    1094    1116    1118
    1096    1094    1116    1117    1097    1113    1116    1118
    1097    1113    1116    1117    1097    1099    1102    1104
    1097    1099    1102    1103    1097    1099    1100    1101
    1097    1099    1100    1108    1097    1096    1094    1116
    1098    1097    1099    1102    1098    1097    1099    1100
    1098    1097    1113    1115    1098    1097    1113    1116
    1098    1097    1113    1114    1099    1102    1104    1105
    1099    1102    1104    1106    1099    1100    1108    1106
    1099    1100    1108    1109    1099    1097    1113    1115
    1099    1097    1113    1116    1099    1097    1113    1114
    1100    1108    1106    1104    1100    1108    1106    1107
    1100    1108    1109    1110    1100    1108    1109    1111
    1100    1108    1109    1112    1100    1099    1097    1113
    1100    1099    1102    1104    1100    1099    1102    1103
    1101    1100    1099    1102    1101    1100    1108    1106
    1101    1100    1108    1109    1102    1104    1106    1108
    1102    1104    1106    1107    1102    1099    1097    1113
    1102    1099    1100    1108    1103    1102    1104    1105
    1103    1102    1104    1106    1104    1106    1108    1109
    1105    1104    1106    1108    1105    1104    1106    1107
    1106    1108    1109    1110    1106    1108    1109    1111
    1106    1108    1109    1112    1107    1106    1108    1109
    1113    1116    1118    1119    1114    1113    1116    1118
    1114    1113    1116    1117    1115    1113    1116    1118
    1115    1113    1116    1117    1116    1118    1119    1120
    1116    1118    1119    1121    1116    1118    1119    1122
    1117    1116    1118    1119    1118    1119    1122    1123
    1119    1122    1123    1126    1119    1122    1123    1124
    1119    1122    1123    1125    1120    1119    1122    1123
    1121    1119    1122    1123    1122    1123    1126    1128
    1122    1123    1126    1148    1122    1123    1126    1127
    1123    1126    1128    1129    1123    1126    1148    1145
    1123    1126    1148    1150    1123    1126    1148    1149
    1124    1123    1126    1128    1124    1123    1126    1148
    1124    1123    1126    1127    1125    1123    1126    1128
    1125    1123    1126    1148    1125    1123    1126    1127
    1126    1148    1145    1147    1126    1148    1145    1129
    1126    1148    1145    1146    1126    1148    1150    1151
    1126    1128    1129    1131    1126    1128    1129    1145
    1126    1128    1129    1130    1127    1126    1128    1129
    1127    1126    1148    1145    1127    1126    1148    1150
    1127    1126    1148    1149    1128    1129    1131    1134
    1128    1129    1131    1132    1128    1129    1145    1147
    1128    1129    1145    1148    1128    1129    1145    1146
    1128    1126    1148    1145    1128    1126    1148    1150
    1128    1126    1148    1149    1129    1145    1148    1150
    1129    1145    1148    1149    1129    1131    1134    1136
    1129    1131    1134    1135    1129    1131    1132    1133
    1129    1131    1132    1140    1129    1128    1126    1148
    1130    1129    1131    1134    1130    1129    1131    1132
    1130    1129    1145    1147    1130    1129    1145    1148
    1130    1129    1145    1146    1131    1134    1136    1137
    1131    1134    1136    1138    1131    1132    1140    1138
    1131    1132    1140    1141    1131    1129    1145    1147
    1131    1129    1145    1148    1131    1129    1145    1146
    1132    1140    1138    1136    1132    1140    1138    1139
    1132    1140    1141    1142    1132    1140    1141    1143
    1132    1140    1141    1144    1132    1131    1129    1145
    1132    1131    1134    1136    1132    1131    1134    1135
    1133    1132    1131    1134    1133    1132    1140    1138
    1133    1132    1140    1141    1134    1136    1138    1140
    1134    1136    1138    1139    1134    1131    1129    1145
    1134    1131    1132    1140    1135    1134    1136    1137
    1135    1134    1136    1138    1136    1138    1140    1141
    1137    1136    1138    1140    1137    1136    1138    1139
    1138    1140    1141    1142    1138    1140    1141    1143
    1138    1140    1141    1144    1139    1138    1140    1141
    1145    1148    1150    1151    1146    1145    1148    1150
    1146    1145    1148    1149    1147    1145    1148    1150
    1147    1145    1148    1149    1148    1150    1151    1152
    1148    1150    1151    1153    1148    1150    1151    1154
    1149    1148    1150    1151    1150    1151    1154    1155
    1151    1154    1155    1158    1151    1154    1155    1156
    1151    1154    1155    1157    1152    1151    1154    1155
    1153    1151    1154    1155    1154    1155    1158    1160
    1154    1155    1158    1180    1154    1155    1158    1159
    1155    1158    1160    1161    1155    1158    1180    1177
    1155    1158    1180    1182    1155    1158    1180    1181
    1156    1155    1158    1160    1156    1155    1158    1180
    1156    1155    1158    1159    1157    1155    1158    1160
    1157    1155    1158    1180    1157    1155    1158    1159
    1158    1180    1177    1179    1158    1180    1177    1161
    1158    1180    1177    1178    1158    1180    1182    1183
    1158    1160    1161    1163    1158    1160    1161    1177
    1158    1160    1161    1162    1159    1158    1160    1161
    1159    1158    1180    1177    1159    1158    1180    1182
    1159    1158    1180    1181    1160    1161    1163    1166
    1160    1161    1163    1164    1160    1161    1177    1179
    1160    1161    1177    1180    1160    1161    1177    1178
    1160    1158    1180    1177    1160    1158    1180    1182
    1160    1158    1180    1181    1161    1177    1180    1182
    1161    1177    1180    1181    1161    1163    1166    1168
    1161    1163    1166    1167    1161    1163    1164    1165
    1161    1163    1164    1172    1161    1160    1158    1180
    1162    1161    1163    1166    1162    1161    1163    1164
    1162    1161    1177    1179    1162    1161    1177    1180
    1162    1161    1177    1178    1163    1166    1168    1169
    1163    1166    1168    1170    1163    1164    1172    1170
    1163    1164    1172    1173    1163    1161    1177    1179
    1163    1161    1177    1180    1163    1161    1177    1178
    1164    1172    1170    1168    1164    1172    1170    1171
    1164    1172    1173    1174    1164    1172    1173    1175
    1164    1172    1173    1176    1164    1163    1161    1177
    1164    1163    1166    1168    1164    1163    1166    1167
    1165    1164    1163    1166    1165    1164    1172    1170
    1165    1164    1172    1173    1166    1168    1170    1172
    1166    1168    1170    1171    1166    1163    1161    1177
    1166    1163    1164    1172    1167    1166    1168    1169
    1167    1166    1168    1170    1168    1170    1172    1173
    1169    1168    1170    1172    1169    1168    1170    1171
    1170    1172    1173    1174    1170    1172    1173    1175
    1170    1172    1173    1176    1171    1170    1172    1173
    1177    1180    1182    1183    1178    1177    1180    1182
    1178    1177    1180    1181    1179    1177    1180    1182
    1179    1177    1180    1181    1180    1182    1183    1184
    1180    1182    1183    1185    1180    1182    1183    1186
    1181    1180    1182    1183    1182    1183    1186    1187
    1183    1186    1187    1190    1183    1186    1187    1188
    1183    1186    1187    1189    1184    1183    1186    1187
    1185    1183    1186    1187    1186    1187    1190    1192
    1186    1187    1190    1212    1186    1187    1190    1191
    1187    1190    1192    1193    1187    1190    1212    1209
    1187    1190    1212    1214    1187    1190    1212    1213
    1188    1187    1190    1192    1188    1187    1190    1212
    1188    1187    1190    1191    1189    1187    1190    1192
    1189    1187    1190    1212    1189    1187    1190    1191
    1190    1212    1209    1211    1190    1212    1209    1193
    1190    1212    1209    1210    1190    1212    1214    1215
    1190    1192    1193    1195    1190    1192    1193    1209
    1190    1192    1193    1194    1191    1190    1192    1193
    1191    1190    1212    1209    1191    1190    1212    1214
    1191    1190    1212    1213    1192    1193    1195    1198
    1192    1193    1195    1196    1192    1193    1209    1211
    1192    1193    1209    1212    1192    1193    1209    1210
    1192    1190    1212    1209    1192    1190    1212    1214
    1192    1190    1212    1213    1193    1209    1212    1214
    1193    1209    1212    1213    1193    1195    1198    1200
    1193    1195    1198    1199    1193    1195    1196    1197
    1193    1195    1196    1204    1193    1192    1190    1212
    1194    1193    1195    1198    1194    1193    1195    1196
    1194    1193    1209    1211    1194    1193    1209    1212
    1194    1193    1209    1210    1195    1198    1200    1201
    1195    1198    1200    1202    1195    1196    1204    1202
    1195    1196    1204    1205    1195    1193    1209    1211
    1195    1193    1209    1212    1195    1193    1209    1210
    1196    1204    1202    1200    1196    1204    1202    1203
    1196    1204    1205    1206    1196    1204    1205    1207
    1196    1204    1205    1208    1196    1195    1193    1209
    1196    1195    1198    1200    1196    1195    1198    1199
    1197    1196    1195    1198    1197    1196    1204    1202
    1197    1196    1204    1205    1198    1200    1202    1204
    1198    1200    1202    1203    1198    1195    1193    1209
    1198    1195    1196    1204    1199    1198    1200    1201
    1199    1198    1200    1202    1200    1202    1204    1205
    1201    1200    1202    1204    1201    1200    1202    1203
    1202    1204    1205    1206    1202    1204    1205    1207
    1202    1204    1205    1208    1203    1202    1204    1205
    1209    1212    1214    1215    1210    1209    1212    1214
    1210    1209    1212    1213    1211    1209    1212    1214
    1211    1209    1212    1213    1212    1214    1215    1216
    1212    1214    1215    1217    1212    1214    1215    1218
    1213    1212    1214    1215    1214    1215    1218    1219
    1215    1218    1219    1222    1215    1218    1219    1220
    1215    1218    1219    1221    1216    1215    1218    1219
    1217    1215    1218    1219    1218    1219    1222    1224
    1218    1219    1222    1244    1218    1219    1222    1223
    1219    1222    1224    1225    1219    1222    1244    1241
    1219    1222    1244    1246    1219    1222    1244    1245
    1220    1219    1222    1224    1220    1219    1222    1244
    1220    1219    1222    1223    1221    1219    1222    1224
    1221    1219    1222    1244    1221    1219    1222    1223
    1222    1244    1241    1243    1222    1244    1241    1225
    1222    1244    1241    1242    1222    1244    1246    1247
    1222    1224    1225    1227    1222    1224    1225    1241
    1222    1224    1225    1226    1223    1222    1224    1225
    1223    1222    1244    1241    1223    1222    1244    1246
    1223    1222    1244    1245    1224    1225    1227    1230
    1224    1225    1227    1228    1224    1225    1241    1243
    1224    1225    1241    1244    1224    1225    1241    1242
    1224    1222    1244    1241    1224    1222    1244    1246
    1224    1222    1244    1245    1225    1241    1244    1246
    1225    1241    1244    1245    1225    1227    1230    1232
    1225    1227    1230    1231    1225    1227    1228    1229
    1225    1227    1228    1236    1225    1224    1222    1244
    1226    1225    1227    1230    1226    1225    1227    1228
    1226    1225    1241    1243    1226    1225    1241    1244
    1226    1225    1241    1242    1227    1230    1232    1233
    1227    1230    1232    1234    1227    1228    1236    1234
    1227    1228    1236    1237    1227    1225    1241    1243
    1227    1225    1241    1244    1227    1225    1241    1242
    1228    1236    1234    1232    1228    1236    1234    1235
    1228    1236    1237    1238    1228    1236    1237    1239
    1228    1236    1237    1240    1228    1227    1225    1241
    1228    1227    1230    1232    1228    1227    1230    1231
    1229    1228    1227    1230    1229    1228    1236    1234
    1229    1228    1236    1237    1230    1232    1234    1236
    1230    1232    1234    1235    1230    1227    1225    1241
    1230    1227    1228    1236    1231    1230    1232    1233
    1231    1230    1232    1234    1232    1234    1236    1237
    1233    1232    1234    1236    1233    1232    1234    1235
    1234    1236    1237    1238    1234    1236    1237    1239
    1234    1236    1237    1240    1235    1234    1236    1237
    1241    1244    1246    1247    1242    1241    1244    1246
    1242    1241    1244    1245    1243    1241    1244    1246
    1243    1241    1244    1245    1244    1246    1247    1248
    1244    1246    1247    1249    1244    1246    1247    1250
    1245    1244    1246    1247    1246    1247    1250    1251
    1247    1250    1251    1254    1247    1250    1251    1252
    1247    1250    1251    1253    1248    1247    1250    1251
    1249    1247    1250    1251    1250    1251    1254    1256
    1250    1251    1254    1276    1250    1251    1254    1255
    1251    1254    1256    1257    1251    1254    1276    1273
    1251    1254    1276    1278    1251    1254    1276    1277
    1252    1251    1254    1256    1252    1251    1254    1276
    1252    1251    1254    1255    1253    1251    1254    1256
    1253    1251    1254    1276    1253    1251    1254    1255
    1254    1276    1273    1275    1254    1276    1273    1257
    1254    1276    1273    1274    1254    1276    1278    1279
    1254    1256    1257    1259    1254    1256    1257    1273
    1254    1256    1257    1258    1255    1254    1256    1257
    1255    1254    1276    1273    1255    1254    1276    1278
    1255    1254    1276    1277    1256    1257    1259    1262
    1256    1257    1259    1260    1256    1257    1273    1275
    1256    1257    1273    1276    1256    1257    1273    1274
    1256    1254    1276    1273    1256    1254    1276    1278
    1256    1254    1276    1277    1257    1273    1276    1278
    1257    1273    1276    1277    1257    1259    1262    1264
    1257    1259    1262    1263    1257    1259    1260    1261
    1257    1259    1260    1268    1257    1256    1254    1276
    1258    1257    1259    1262    1258    1257    1259    1260
    1258    1257    1273    1275    1258    1257    1273    1276
    1258    1257    1273    1274    1259    1262    1264    1265
    1259    1262    1264    1266    1259    1260    1268    1266
    1259    1260    1268    1269    1259    1257    1273    1275
    1259    1257    1273    1276    1259    1257    1273    1274
    1260    1268    1266    1264    1260    1268    1266    1267
    1260    1268    1269    1270    1260    1268    1269    1271
    1260    1268    1269    1272    1260    1259    1257    1273
    1260    1259    1262    1264    1260    1259    1262    1263
    1261    1260    1259    1262    1261    1260    1268    1266
    1261    1260    1268    1269    1262    1264    1266    1268
    1262    1264    1266    1267    1262    1259    1257    1273
    1262    1259    1260    1268    1263    1262    1264    1265
    1263    1262    1264    1266    1264    1266    1268    1269
    1265    1264    1266    1268    1265    1264    1266    1267
    1266    1268    1269    1270    1266    1268    1269    1271
    1266    1268    1269    1272    1267    1266    1268    1269
    1273    1276    1278    1279    1274    1273    1276    1278
    1274    1273    1276    1277    1275    1273    1276    1278
    1275    1273    1276    1277    1277    1276    1278    1279

     120 !NIMPHI: impropers
      14      11      16      15      18      16      20      19
      20      18      12      21      46      43      48      47
      50      48      52      51      52      50      44      53
      78      75      80      79      82      80      84      83
      84      82      76      85     110     107     112     111
     114     112     116     115     116     114     108     117
     142     139     144     143     146     144     148     147
     148     146     140     149     174     171     176     175
     178     176     180     179     180     178     172     181
     206     203     208     207     210     208     212     211
     212     210     204     213     238     235     240     239
     242     240     244     243     244     242     236     245
     270     267     272     271     274     272     276     275
     276     274     268     277     302     299     304     303
     306     304     308     307     308     306     300     309
     334     331     336     335     338     336     340     339
     340     338     332     341     366     363     368     367
     370     368     372     371     372     370     364     373
     398     395     400     399     402     400     404     403
     404     402     396     405     430     427     432     431
     434     432     436     435     436     434     428     437
     462     459     464     463     466     464     468     467
     468     466     460     469     494     491     496     495
     498     496     500     499     500     498     492     501
     526     523     528     527     530     528     532     531
     532     530     524     533     558     555     560     559
     562     560     564     563     564     562     556     565
     590     587     592     591     594     592     596     595
     596     594     588     597     622     619     624     623
     626     624     628     627     628     626     620     629
     654     651     656     655     658     656     660     659
     660     658     652     661     686     683     688     687
     690     688     692     691     692     690     684     693
     718     715     720     719     722     720     724     723
     724     722     716     725     750     747     752     751
     754     752     756     755     756     754     748     757
     782     779     784     783     786     784     788     787
     788     786     780     789     814     811     816     815
     818     816     820     819     820     818     812     821
     846     843     848     847     850     848     852     851
     852     850     844     853     878     875     880     879
     882     880     884     883     884     882     876     885
     910     907     912     911     914     912     916     915
     916     914     908     917     942     939     944     943
     946     944     948     947     948     946     940     949
     974     971     976     975     978     976     980     979
     980     978     972     981    1006    1003    1008    1007
    1010    1008    1012    1011    1012    1010    1004    1013
    1038    1035    1040    1039    1042    1040    1044    1043
    1044    1042    1036    1045    1070    1067    1072    1071
    1074    1072    1076    1075    1076    1074    1068    1077
    1102    1099    1104    1103    1106    1104    1108    1107
    1108    1106    1100    1109    1134    1131    1136    1135
    1138    1136    1140    1139    1140    1138    1132    1141
    1166    1163    1168    1167    1170    1168    1172    1171
    1172    1170    1164    1173    1198    1195    1200    1199
    1202    1200    1204    1203    1204    1202    1196    1205
    1230    1227    1232    1231    1234    1232    1236    1235
    1236    1234    1228    1237    1262    1259    1264    1263
    1266    1264    1268    1267    1268    1266    1260    1269

       0 !NDON: donors


       0 !NACC: acceptors


       0 !NNB

       0       0       0       0       0       0       0       0
       0       0       0       0       0       0       0       0
       0       0       0       0       0       0       0       0
       0       0       0       0       0       0       0       0
       0       0       0       0       0       0       0       0
       0       0       0       0       0       0       0       0
       0       0       0       0       0       0       0       0
       0       0       0       0       0       0       0       0
       0       0       0       0       0       0       0       0
       0       0       0       0       0       0       0       0
       0       0       0       0       0       0       0       0
       0       0       0       0       0       0       0       0
       0       0       0       0       0       0       0       0
       0       0       0       0       0       0       0       0
       0       0       0       0       0       0       0       0
       0       0       0       0       0       0       0       0
       0       0       0       0       0       0       0       0
       0       0       0       0       0       0       0       0
       0       0       0       0       0       0       0       0
       0       0       0       0       0       0       0       0
       0       0       0       0       0       0       0       0
       0       0       0       0       0       0       0       0
       0       0       0       0       0       0       0       0
       0       0       0       0       0       0       0       0
       0       0       0       0       0       0       0       0
       0       0       0       0       0       0       0       0
       0       0       0       0       0       0       0       0
       0       0       0       0       0       0       0       0
       0       0       0       0       0       0       0       0
       0       0       0       0       0       0       0       0
       0       0       0       0       0       0       0       0
       0       0       0       0       0       0       0       0
       0       0       0       0       0       0       0       0
       0       0       0       0       0       0       0       0
       0       0       0       0       0       0       0       0
       0       0       0       0       0       0       0       0
       0       0       0       0       0       0       0       0
       0       0       0       0       0       0       0       0
       0       0       0       0       0       0       0       0
       0       0       0       0       0       0       0       0
       0       0       0       0       0       0       0       0
       0       0       0       0       0       0       0       0
       0       0       0       0       0       0       0       0
       0       0       0       0       0       0       0       0
       0       0       0       0       0       0       0       0
       0       0       0       0       0       0       0       0
       0       0       0       0       0       0       0       0
       0       0       0       0       0       0       0       0
       0       0       0       0       0       0       0       0
       0       0       0       0       0       0       0       0
       0       0       0       0       0       0       0       0
       0       0       0       0       0       0       0       0
       0       0       0       0       0       0       0       0
       0       0       0       0       0       0       0       0
       0       0       0       0       0       0       0       0
       0       0       0       0       0       0       0       0
       0       0       0       0       0       0       0       0
       0       0       0       0       0       0       0       0
       0       0       0       0       0       0       0       0
       0       0       0       0       0       0       0       0
       0       0       0       0       0       0       0       0
       0       0       0       0       0       0       0       0
       0       0       0       0       0       0       0       0
       0       0       0       0       0       0       0       0
       0       0       0       0       0       0       0       0
       0       0       0       0       0       0       0       0
       0       0       0       0       0       0       0       0
       0       0       0       0       0       0       0       0
       0       0       0       0       0       0       0       0
       0       0       0       0       0       0       0       0
       0       0       0       0       0       0       0       0
       0       0       0       0       0       0       0       0
       0       0       0       0       0       0       0       0
       0       0       0       0       0       0       0       0
       0       0       0       0       0       0       0       0
       0       0       0       0       0       0       0       0
       0       0       0       0       0       0       0       0
       0       0       0       0       0       0       0       0
       0       0       0       0       0       0       0       0
       0       0       0       0       0       0       0       0
       0       0       0       0       0       0       0       0
       0       0       0       0       0       0       0       0
       0       0       0       0       0       0       0       0
       0       0       0       0       0       0       0       0
       0       0       0       0       0       0       0       0
       0       0       0       0       0       0       0       0
       0       0       0       0       0       0       0       0
       0       0       0       0       0       0       0       0
       0       0       0       0       0       0       0       0
       0       0       0       0       0       0       0       0
       0       0       0       0       0       0       0       0
       0       0       0       0       0       0       0       0
       0       0       0       0       0       0       0       0
       0       0       0       0       0       0       0       0
       0       0       0       0       0       0       0       0
       0       0       0       0       0       0       0       0
       0       0       0       0       0       0       0       0
       0       0       0       0       0       0       0       0
       0       0       0       0       0       0       0       0
       0       0       0       0       0       0       0       0
       0       0       0       0       0       0       0       0
       0       0       0       0       0       0       0       0
       0       0       0       0       0       0       0       0
       0       0       0       0       0       0       0       0
       0       0       0       0       0       0       0       0
       0       0       0       0       0       0       0       0
       0       0       0       0       0       0       0       0
       0       0       0       0       0       0       0       0
       0       0       0       0       0       0       0       0
       0       0       0       0       0       0       0       0
       0       0       0       0       0       0       0       0
       0       0       0       0       0       0       0       0
       0       0       0       0       0       0       0       0
       0       0       0       0       0       0       0       0
       0       0       0       0       0       0       0       0
       0       0       0       0       0       0       0       0
       0       0       0       0       0       0       0       0
       0       0       0       0       0       0       0       0
       0       0       0       0       0       0       0       0
       0       0       0       0       0       0       0       0
       0       0       0       0       0       0       0       0
       0       0       0       0       0       0       0       0
       0       0       0       0       0       0       0       0
       0       0       0       0       0       0       0       0
       0       0       0       0       0       0       0       0
       0       0       0       0       0       0       0       0
       0       0       0       0       0       0       0       0
       0       0       0       0       0       0       0       0
       0       0       0       0       0       0       0       0
       0       0       0       0       0       0       0       0
       0       0       0       0       0       0       0       0
       0       0       0       0       0       0       0       0
       0       0       0       0       0       0       0       0
       0       0       0       0       0       0       0       0
       0       0       0       0       0       0       0       0
       0       0       0       0       0       0       0       0
       0       0       0       0       0       0       0       0
       0       0       0       0       0       0       0       0
       0       0       0       0       0       0       0       0
       0       0       0       0       0       0       0       0
       0       0       0       0       0       0       0       0
       0       0       0       0       0       0       0       0
       0       0       0       0       0       0       0       0
       0       0       0       0       0       0       0       0
       0       0       0       0       0       0       0       0
       0       0       0       0       0       0       0       0
       0       0       0       0       0       0       0       0
       0       0       0       0       0       0       0       0
       0       0       0       0       0       0       0       0
       0       0       0       0       0       0       0       0
       0       0       0       0       0       0       0       0
       0       0       0       0       0       0       0       0
       0       0       0       0       0       0       0       0
       0       0       0       0       0       0       0       0
       0       0       0       0       0       0       0       0
       0       0       0       0       0       0       0       0
       0       0       0       0       0       0       0       0
       0       0       0       0       0       0       0       0
       0       0       0       0       0       0       0       0
       0       0       0       0       0       0       0       0
       0       0       0       0       0       0       0       0
       0       0       0       0       0       0       0       0
       0       0       0       0       0       0       0       0
       0       0       0       0       0       0       0       0
       0       0       0       0       0       0       0       0
       0       0       0       0       0       0       0       0
       0       0       0       0       0       0       0       0
       0       0       0       0       0       0       0       0
       0       0       0       0       0       0       0       0
       0       0       0       0       0       0       0       0
       0       0       0       0       0       0       0       0
       0       0       0       0       0       0       0       0
       0       0       0       0       0       0       0       0
       0       0       0       0       0       0       0       0
       0       0       0       0       0       0       0       0
       0       0       0       0       0       0       0       0
       0       0       0       0       0       0       0       0
       0       0       0       0       0       0       0       0
       0       0       0       0       0       0       0       0
       0       0       0       0       0       0       0       0
       0       0       0       0       0       0       0       0
       0       0       0       0       0       0       0       0
       0       0       0       0       0       0       0       0
       0       0       0       0       0       0       0       0
       0       0       0       0       0       0       0       0
       0       0       0       0       0       0       0       0
       0       0       0       0       0       0       0       0
       0       0       0       0       0       0       0       0
       0       0       0       0       0       0       0       0
       0       0       0       0       0       0       0       0
       0       0       0       0       0       0       0       0
       0       0       0       0       0       0       0       0
       0       0       0       0       0       0       0       0
       0       0       0       0       0       0       0       0
       0       0       0       0       0       0       0       0
       0       0       0       0       0       0       0       0
       0       0       0       0       0       0       0       0
       0       0       0       0       0       0       0       0
       0       0       0       0       0       0       0       0
       0       0       0       0       0       0       0       0
       0       0       0       0       0       0       0       0
       0       0       0       0       0       0       0       0
       0       0       0       0       0       0       0       0
       0       0       0       0       0       0       0       0
       0       0       0       0       0       0       0       0
       0       0       0       0       0       0       0       0
       0       0       0       0       0       0       0       0
       0       0       0       0       0       0       0       0
       0       0       0       0       0       0       0       0
       0       0       0       0       0       0       0       0
       0       0       0       0       0       0       0       0
       0       0       0       0       0       0       0       0
       0       0       0       0       0       0       0       0
       0       0       0       0       0       0       0       0
       0       0       0       0       0       0       0       0
       0       0       0       0       0       0       0       0
       0       0       0       0       0       0       0       0
       0       0       0       0       0       0       0       0
       0       0       0       0       0       0       0       0
       0       0       0       0       0       0       0       0
       0       0       0       0       0       0       0       0
       0       0       0       0       0       0       0       0
       0       0       0       0       0       0       0       0
       0       0       0       0       0       0       0       0
       0       0       0       0       0       0       0       0
       0       0       0       0       0       0       0       0
       0       0       0       0       0       0       0       0
       0       0       0       0       0       0       0       0
       0       0       0       0       0       0       0       0
       0       0       0       0       0       0       0       0
       0       0       0       0       0       0       0       0
       0       0       0       0       0       0       0       0
       0       0       0       0       0       0       0       0
       0       0       0       0       0       0       0       0
       0       0       0       0       0       0       0       0
       0       0       0       0       0       0       0       0
       0       0       0       0       0       0       0       0
       0       0       0       0       0       0       0       0
       0       0       0       0       0       0       0       0
       0       0       0       0       0       0       0       0
       0       0       0       0       0       0       0       0
       0       0       0       0       0       0       0       0
       0       0       0       0       0       0       0       0
       0       0       0       0       0       0       0       0
       0       0       0       0       0       0       0       0
       0       0       0       0       0       0       0       0
       0       0       0       0       0       0       0       0
       0       0       0       0       0       0       0       0
       0       0       0       0       0       0       0       0
       0       0       0       0       0       0       0       0
       0       0       0       0       0       0       0       0
       0       0       0       0       0       0       0       0
       0       0       0       0       0       0       0       0
       0       0       0       0       0       0       0       0
       0       0       0       0       0       0       0       0
       0       0       0       0       0       0       0       0
       0       0       0       0       0       0       0       0
       0       0       0       0       0       0       0       0
       0       0       0       0       0       0       0       0
       0       0       0       0       0       0       0       0
       0       0       0       0       0       0       0       0
       0       0       0       0       0       0       0       0
       0       0       0       0       0       0       0       0
       0       0       0       0       0       0       0       0
       0       0       0       0       0       0       0       0
       0       0       0       0       0       0       0       0
       0       0       0       0       0       0       0       0
       0       0       0       0       0       0       0       0
       0       0       0       0       0       0       0       0
       0       0       0       0       0       0       0       0
       0       0       0       0       0       0       0       0
       0       0       0       0       0       0       0       0
       0       0       0       0       0       0       0       0
       0       0       0       0       0       0       0       0
       0       0       0       0       0       0       0       0
       0       0       0       0       0       0       0       0
       0       0       0       0       0       0       0       0
       0       0       0       0       0       0       0       0
       0       0       0       0       0       0       0       0
       0       0       0       0       0       0       0       0
       0       0       0       0       0       0       0       0
       0       0       0       0       0       0       0       0
       0       0       0       0       0       0       0       0
       0       0       0       0       0       0       0       0
       0       0       0       0       0       0       0       0
       0       0       0       0       0       0       0       0
       0       0       0       0       0       0       0       0
       0       0       0       0       0       0       0       0
       0       0       0       0       0       0       0       0
       0       0       0       0       0       0       0       0
       0       0       0       0       0       0       0       0
       0       0       0       0       0       0       0       0
       0       0       0       0       0       0       0       0
       0       0       0       0       0       0       0       0
       0       0       0       0       0       0       0       0
       0       0       0       0       0       0       0       0
       0       0       0       0       0       0       0       0
       0       0       0       0       0       0       0       0
       0       0       0       0       0       0       0       0
       0       0       0       0       0       0       0       0
       0       0       0       0       0       0       0       0
       0       0       0       0       0       0       0       0
       0       0       0       0       0       0       0       0
       0       0       0       0       0       0       0       0
       0       0       0       0       0       0       0       0
       0       0       0       0       0       0       0       0
       0       0       0       0       0       0       0       0
       0       0       0       0       0       0       0       0
       0       0       0       0       0       0       0       0
       0       0       0       0       0       0       0       0
       0       0       0       0       0       0       0       0
       0       0       0       0       0       0       0       0
       0       0       0       0       0       0       0       0
       0       0       0       0       0       0       0       0
       0       0       0       0       0       0       0       0
       0       0       0       0       0       0       0       0
       0       0       0       0       0       0       0       0
       0       0       0       0       0       0       0       0
       0       0       0       0       0       0       0       0
       0       0       0       0       0       0       0       0
       0       0       0       0       0       0       0       0
       0       0       0       0       0       0       0       0
       0       0       0       0       0       0       0       0
       0       0       0       0       0       0       0       0
       0       0       0       0       0       0       0       0
       0       0       0       0       0       0       0       0
       0       0       0       0       0       0       0       0
       0       0       0       0       0       0       0       0
       0       0       0       0       0       0       0       0
       0       0       0       0       0       0       0       0
       0       0       0       0       0       0       0       0
       0       0       0       0       0       0       0       0
       0       0       0       0       0       0       0       0
       0       0       0       0       0       0       0       0
       0       0       0       0       0       0       0       0
       0       0       0       0       0       0       0       0
       0       0       0       0       0       0       0       0
       0       0       0       0       0       0       0       0
       0       0       0       0       0       0       0       0
       0       0       0       0       0       0       0       0
       0       0       0       0       0       0       0       0
       0       0       0       0       0       0       0       0
       0       0       0       0       0       0       0       0
       0       0       0       0       0       0       0       0
       0       0       0       0       0       0       0       0
       0       0       0       0       0       0       0       0
       0       0       0       0       0       0       0       0
       0       0       0       0       0       0       0       0
       0       0       0       0       0       0       0       0
       0       0       0       0       0       0       0       0
       0       0       0       0       0       0       0       0
       0       0       0       0       0       0       0       0
       0       0       0       0       0       0       0       0
       0       0       0       0       0       0       0       0
       0       0       0       0       0       0       0       0
       0       0       0       0       0       0       0       0
       0       0       0       0       0       0       0       0
       0       0       0       0       0       0       0       0
       0       0       0       0       0       0       0       0
       0       0       0       0       0       0       0       0
       0       0       0       0       0       0       0       0
       0       0       0       0       0       0       0       0
       0       0       0       0       0       0       0       0
       0       0       0       0       0       0       0       0
       0       0       0       0       0       0       0       0
       0       0       0       0       0       0       0       0
       0       0       0       0       0       0       0       0
       0       0       0       0       0       0       0       0
       0       0       0       0       0       0       0       0
       0       0       0       0       0       0       0       0
       0       0       0       0       0       0       0       0
       0       0       0       0       0       0       0       0
       0       0       0       0       0       0       0       0
       0       0       0       0       0       0       0       0
       0       0       0       0       0       0       0       0
       0       0       0       0       0       0       0       0
       0       0       0       0       0       0       0       0
       0       0       0       0       0       0       0       0
       0       0       0       0       0       0       0       0
       0       0       0       0       0       0       0       0
       0       0       0       0       0       0       0       0
       0       0       0       0       0       0       0       0
       0       0       0       0       0       0       0       0
       0       0       0       0       0       0       0       0
       0       0       0       0       0       0       0       0
       0       0       0       0       0       0       0       0
       0       0       0       0       0       0       0       0
       0       0       0       0       0       0       0       0
       0       0       0       0       0       0       0       0
       0       0       0       0       0       0       0       0
       0       0       0       0       0       0       0       0
       0       0       0       0       0       0       0       0
       0       0       0       0       0       0       0       0
       0       0       0       0       0       0       0       0
       0       0       0       0       0       0       0       0
       0       0       0       0       0       0       0       0
       0       0       0       0       0       0       0       0
       0       0       0       0       0       0       0       0
       0       0       0       0       0       0       0       0
       0       0       0       0       0       0       0       0
       0       0       0       0       0       0       0       0
       0       0       0       0       0       0       0       0
       0       0       0       0       0       0       0       0
       0       0       0       0       0       0       0       0
       0       0       0       0       0       0       0       0
       0       0       0       0       0       0       0       0
       0       0       0       0       0       0       0       0
       0       0       0       0       0       0       0       0
       0       0       0       0       0       0       0       0
       0       0       0       0       0       0       0       0
       0       0       0       0       0       0       0       0
       0       0       0       0       0       0       0       0
       0       0       0       0       0       0       0       0
       0       0       0       0       0       0       0       0
       0       0       0       0       0       0       0       0
       0       0       0       0       0       0       0       0
       0       0       0       0       0       0       0       0
       0       0       0       0       0       0       0       0
       0       0       0       0       0       0       0       0
       0       0       0       0       0       0       0       0
       0       0       0       0       0       0       0       0
       0       0       0       0       0       0       0       0
       0       0       0       0       0       0       0       0
       0       0       0       0       0       0       0       0
       0       0       0       0       0       0       0       0
       0       0       0       0       0       0       0       0
       0       0       0       0       0       0       0       0
       0       0       0       0       0       0       0       0
       0       0       0       0       0       0       0       0
       0       0       0       0       0       0       0       0
       0       0       0       0       0       0       0       0
       0       0       0       0       0       0       0       0
       0       0       0       0       0       0       0       0
       0       0       0       0       0       0       0       0
       0       0       0       0       0       0       0       0
       0       0       0       0       0       0       0       0
       0       0       0       0       0       0       0       0
       0       0       0       0       0       0       0       0
       0       0       0       0       0       0       0       0
       0       0       0       0       0       0       0       0
       0       0       0       0       0       0       0       0
       0       0       0       0       0       0       0       0
       0       0       0       0       0       0       0       0
       0       0       0       0       0       0       0       0
       0       0       0       0       0       0       0       0
       0       0       0       0       0       0       0       0
       0       0       0       0       0       0       0       0
       0       0       0       0       0       0       0       0
       0       0       0       0       0       0       0       0
       0       0       0       0       0       0       0       0
       0       0       0       0       0       0       0       0
       0       0       0       0       0       0       0       0
       0       0       0       0       0       0       0       0
       0       0       0       0       0       0       0       0
       0       0       0       0       0       0       0       0
       0       0       0       0       0       0       0       0
       0       0       0       0       0       0       0       0
       0       0       0       0       0       0       0       0
       0       0       0       0       0       0       0       0
       0       0       0       0       0       0       0       0
       0       0       0       0       0       0       0       0
       0       0       0       0       0       0       0       0
       0       0       0       0       0       0       0       0
       0       0       0       0       0       0       0       0
       0       0       0       0       0       0       0       0
       0       0       0       0       0       0       0       0
       0       0       0       0       0       0       0       0
       0       0       0       0       0       0       0       0
       0       0       0       0       0       0       0       0
       0       0       0       0       0       0       0       0
       0       0       0       0       0       0       0       0
       0       0       0       0       0       0       0       0
       0       0       0       0       0       0       0       0
       0       0       0       0       0       0       0       0
       0       0       0       0       0       0       0       0
       0       0       0       0       0       0       0       0
       0       0       0       0       0       0       0       0
       0       0       0       0       0       0       0       0
       0       0       0       0       0       0       0       0
       0       0       0       0       0       0       0       0
       0       0       0       0       0       0       0       0
       0       0       0       0       0       0       0       0
       0       0       0       0       0       0       0       0
       0       0       0       0       0       0       0       0
       0       0       0       0       0       0       0       0
       0       0       0       0       0       0       0       0
       0       0       0       0       0       0       0       0
       0       0       0       0       0       0       0       0
       0       0       0       0       0       0       0       0
       0       0       0       0       0       0       0       0
       0       0       0       0       0       0       0       0
       0       0       0       0       0       0       0       0
       0       0       0       0       0       0       0       0
       0       0       0       0       0       0       0       0
       0       0       0       0       0       0       0       0
       0       0       0       0       0       0       0       0
       0       0       0       0       0       0       0       0
       0       0       0       0       0       0       0       0
       0       0       0       0       0       0       0       0
       0       0       0       0       0       0       0       0
       0       0       0       0       0       0       0       0
       0       0       0       0       0       0       0       0
       0       0       0       0       0       0       0       0
       0       0       0       0       0       0       0       0
       0       0       0       0       0       0       0       0
       0       0       0       0       0       0       0       0
       0       0       0       0       0       0       0       0
       0       0       0       0       0       0       0       0
       0       0       0       0       0       0       0       0
       0       0       0       0       0       0       0       0
       0       0       0       0       0       0       0       0
       0       0       0       0       0       0       0       0
       0       0       0       0       0       0       0       0
       0       0       0       0       0       0       0       0
       0       0       0       0       0       0       0       0
       0       0       0       0       0       0       0       0
       0       0       0       0       0       0       0       0
       0       0       0       0       0       0       0       0
       0       0       0       0       0       0       0       0
       0       0       0       0       0       0       0       0
       0       0       0       0       0       0       0       0
       0       0       0       0       0       0       0       0
       0       0       0       0       0       0       0       0
       0       0       0       0       0       0       0       0
       0       0       0       0       0       0       0       0
       0       0       0       0       0       0       0       0
       0       0       0       0       0       0       0       0
       0       0       0       0       0       0       0       0
       0       0       0       0       0       0       0       0
       0       0       0       0       0       0       0       0
       0       0       0       0       0       0       0       0
       0       0       0       0       0       0       0       0
       0       0       0       0       0       0       0       0
       0       0       0       0       0       0       0       0
       0       0       0       0       0       0       0       0
       0       0       0       0       0       0       0       0
       0       0       0       0       0       0       0       0
       0       0       0       0       0       0       0       0
       0       0       0       0       0       0       0       0
       0       0       0       0       0       0       0       0
       0       0       0       0       0       0       0       0
       0       0       0       0       0       0       0       0
       0       0       0       0       0       0       0       0
       0       0       0       0       0       0       0       0
       0       0       0       0       0       0       0       0
       0       0       0       0       0       0       0       0
       0       0       0       0       0       0       0       0
       0       0       0       0       0       0       0       0
       0       0       0       0       0       0       0       0
       0       0       0       0       0       0       0       0
       0       0       0       0       0       0       0       0
       0       0       0       0       0       0       0       0
       0       0       0       0       0       0       0       0
       0       0       0       0       0       0       0       0
       0       0       0       0       0       0       0       0
       0       0       0       0       0       0       0       0
       0       0       0       0       0       0       0       0
       0       0       0       0       0       0       0       0
       0       0       0       0       0       0       0       0
       0       0       0       0       0       0       0       0
       0       0       0       0       0       0       0       0
       0       0       0       0       0       0       0       0
       0       0       0       0       0       0       0       0
       0       0       0       0       0       0       0       0
       0       0       0       0       0       0       0       0
       0       0       0       0       0       0       0       0
       0       0       0       0       0       0       0       0
       0       0       0       0       0       0       0       0
       0       0       0       0       0       0       0       0
       0       0       0       0       0       0       0       0
       0       0       0       0       0       0       0       0
       0       0       0       0       0       0       0       0
       0       0       0       0       0       0       0       0
       0       0       0       0       0       0       0       0
       0       0       0       0       0       0       0       0
       0       0       0       0       0       0       0       0
       0       0       0       0       0       0       0       0
       0       0       0       0       0       0       0       0
       0       0       0       0       0       0       0       0
       0       0       0       0       0       0       0       0
       0       0       0       0       0       0       0       0
       0       0       0       0       0       0       0       0
       0       0       0       0       0       0       0       0
       0       0       0       0       0       0       0       0
       0       0       0       0       0       0       0       0
       0       0       0       0       0       0       0       0
       0       0       0       0       0       0       0       0
       0       0       0       0       0       0       0       0
       0       0       0       0       0       0       0       0
       0       0       0       0       0       0       0       0
       0       0       0       0       0       0       0       0
       0       0       0       0       0       0       0       0
       0       0       0       0       0       0       0       0
       0       0       0       0       0       0       0       0
       0       0       0       0       0       0       0       0
       0       0       0       0       0       0       0       0
       0       0       0       0       0       0       0       0
       0       0       0       0       0       0       0       0
       0       0       0       0       0       0       0       0
       0       0       0       0       0       0       0       0
       0       0       0       0       0       0       0       0
       0       0       0       0       0       0       0       0
       0       0       0       0       0       0       0       0
       0       0       0       0       0       0       0       0
       0       0       0       0       0       0       0       0
       0       0       0       0       0       0       0       0
       0       0       0       0       0       0       0       0
       0       0       0       0       0       0       0       0
       0       0       0       0       0       0       0       0
       0       0       0       0       0       0       0       0
       0       0       0       0       0       0       0       0
       0       0       0       0       0       0       0       0
       0       0       0       0       0       0       0       0
       0       0       0       0       0       0       0       0
       0       0       0       0       0       0       0       0
       0       0       0       0       0       0       0       0
       0       0       0       0       0       0       0       0
       0       0       0       0       0       0       0       0
       0       0       0       0       0       0       0       0
       0       0       0       0       0       0       0       0
       0       0       0       0       0       0       0       0
       0       0       0       0       0       0       0       0
       0       0       0       0       0       0       0       0
       0       0       0       0       0       0       0       0
       0       0       0       0       0       0       0       0
       0       0       0       0       0       0       0       0
       0       0       0       0       0       0       0       0
       0       0       0       0       0       0       0       0
       0       0       0       0       0       0       0       0
       0       0       0       0       0       0       0       0
       0       0       0       0       0       0       0       0
       0       0       0       0       0       0       0       0
       0       0       0       0       0       0       0       0
       0       0       0       0       0       0       0       0
       0       0       0       0       0       0       0       0
       0       0       0       0       0       0       0       0
       0       0       0       0       0       0       0       0
       0       0       0       0       0       0       0       0
       0       0       0       0       0       0       0       0
       0       0       0       0       0       0       0       0
       0       0       0       0       0       0       0       0
       0       0       0       0       0       0       0       0
       0       0       0       0       0       0       0       0
       0       0       0       0       0       0       0       0
       0       0       0       0       0       0       0       0
       0       0       0       0       0       0       0       0
       0       0       0       0       0       0       0       0
       0       0       0       0       0       0       0       0
       0       0       0       0       0       0       0       0
       0       0       0       0       0       0       0       0
       0       0       0       0       0       0       0       0
       0       0       0       0       0       0       0       0
       0       0       0       0       0       0       0       0
       0       0       0       0       0       0       0       0
       0       0       0       0       0       0       0       0
       0       0       0       0       0       0       0       0
       0       0       0       0       0       0       0       0
       0       0       0       0       0       0       0       0
       0       0       0       0       0       0       0       0
       0       0       0       0       0       0       0       0
       0       0       0       0       0       0       0       0
       0       0       0       0       0       0       0       0
       0       0       0       0       0       0       0       0
       0       0       0       0       0       0       0       0
       0       0       0       0       0       0       0       0
       0       0       0       0       0       0       0       0
       0       0       0       0       0       0       0       0
       0       0       0       0       0       0       0       0
       0       0       0       0       0       0       0       0
       0       0       0       0       0       0       0       0
       0       0       0       0       0       0       0       0
       0       0       0       0       0       0       0       0
       0       0       0       0       0       0       0       0
       0       0       0       0       0       0       0       0
       0       0       0       0       0       0       0       0
       0       0       0       0       0       0       0       0
       0       0       0       0       0       0       0       0
       0       0       0       0       0       0       0       0
       0       0       0       0       0       0       0       0
       0       0       0       0       0       0       0       0
       0       0       0       0       0       0       0       0
       0       0       0       0       0       0       0       0
       0       0       0       0       0       0       0       0
       0       0       0       0       0       0       0       0
       0       0       0       0       0       0       0       0
       0       0       0       0       0       0       0       0
       0       0       0       0       0       0       0       0
       0       0       0       0       0       0       0       0
       0       0       0       0       0       0       0       0
       0       0       0       0       0       0       0       0
       0       0       0       0       0       0       0       0
       0       0       0       0       0       0       0       0
       0       0       0       0       0       0       0       0
       0       0       0       0       0       0       0       0
       0       0       0       0       0       0       0       0
       0       0       0       0       0       0       0       0
       0       0       0       0       0       0       0       0
       0       0       0       0       0       0       0       0
       0       0       0       0       0       0       0       0
       0       0       0       0       0       0       0       0
       0       0       0       0       0       0       0       0
       0       0       0       0       0       0       0       0
       0       0       0       0       0       0       0       0
       0       0       0       0       0       0       0       0
       0       0       0       0       0       0       0       0
       0       0       0       0       0       0       0       0
       0       0       0       0       0       0       0       0
       0       0       0       0       0       0       0       0
       0       0       0       0       0       0       0       0
       0       0       0       0       0       0       0       0
       0       0       0       0       0       0       0       0
       0       0       0       0       0       0       0       0
       0       0       0       0       0       0       0       0
       0       0       0       0       0       0       0       0
       0       0       0       0       0       0       0       0
       0       0       0       0       0       0       0       0
       0       0       0       0       0       0       0       0
       0       0       0       0       0       0       0       0
       0       0       0       0       0       0       0       0
       0       0       0       0       0       0       0       0
       0       0       0       0       0       0       0       0
       0       0       0       0       0       0       0       0
       0       0       0       0       0       0       0       0
       0       0       0       0       0       0       0       0
       0       0       0       0       0       0       0       0
       0       0       0       0       0       0       0       0
       0       0       0       0       0       0       0       0
       0       0       0       0       0       0       0       0
       0       0       0       0       0       0       0       0
       0       0       0       0       0       0       0       0
       0       0       0       0       0       0       0       0
       0       0       0       0       0       0       0       0
       0       0       0       0       0       0       0       0
       0       0       0       0       0       0       0       0
       0       0       0       0       0       0       0       0
       0       0       0       0       0       0       0       0
       0       0       0       0       0       0       0       0
       0       0       0       0       0       0       0       0
       0       0       0       0       0       0       0       0
       0       0       0       0       0       0       0       0
       0       0       0       0       0       0       0       0
       0       0       0       0       0       0       0       0
       0       0       0       0       0       0       0       0
       0       0       0       0       0       0       0       0
       0       0       0       0       0       0       0       0
       0       0       0       0       0       0       0       0
       0       0       0       0       0       0       0       0
       0       0       0       0       0       0       0       0
       0       0       0       0       0       0       0       0
       0       0       0       0       0       0       0       0
       0       0       0       0       0       0       0       0
       0       0       0       0       0       0       0       0
       0       0       0       0       0       0       0       0
       0       0       0       0       0       0       0       0
       0       0       0       0       0       0       0       0
       0       0       0       0       0       0       0       0
       0       0       0       0       0       0       0       0
       0       0       0       0       0       0       0       0
       0       0       0       0       0       0       0       0
       0       0       0       0       0       0       0       0
       0       0       0       0       0       0       0       0
       0       0       0       0       0       0       0       0
       0       0       0       0       0       0       0       0
       0       0       0       0       0       0       0       0
       0       0       0       0       0       0       0       0
       0       0       0       0       0       0       0       0
       0       0       0       0       0       0       0       0
       0       0       0       0       0       0       0       0
       0       0       0       0       0       0       0       0
       0       0       0       0       0       0       0       0
       0       0       0       0       0       0       0       0
       0       0       0       0       0       0       0       0
       0       0       0       0       0       0       0       0
       0       0       0       0       0       0       0       0
       0       0       0       0       0       0       0       0
       0       0       0       0       0       0       0       0
       0       0       0       0       0       0       0       0
       0       0       0       0       0       0       0       0
       0       0       0       0       0       0       0       0
       0       0       0       0       0       0       0       0
       0       0       0       0       0       0       0       0
       0       0       0       0       0       0       0       0
       0       0       0       0       0       0       0       0
       0       0       0       0       0       0       0       0
       0       0       0       0       0       0       0       0
       0       0       0       0       0       0       0       0
       0       0       0       0       0       0       0       0
       0       0       0       0       0       0       0       0
       0       0       0       0       0       0       0       0
       0       0       0       0       0       0       0       0
       0       0       0       0       0       0       0       0
       0       0       0       0       0       0       0       0
       0       0       0       0       0       0       0       0
       0       0       0       0       0       0       0       0
       0       0       0       0       0       0       0       0
       0       0       0       0       0       0       0       0
       0       0       0       0       0       0       0       0
       0       0       0       0       0       0       0       0
       0       0       0       0       0       0       0       0
       0       0       0       0       0       0       0       0
       0       0       0       0       0       0       0       0
       0       0       0       0       0       0       0       0
       0       0       0       0       0       0       0       0
       0       0       0       0       0       0       0       0
       0       0       0       0       0       0       0       0
       0       0       0       0       0       0       0       0
       0       0       0       0       0       0       0       0
       0       0       0       0       0       0       0       0
       0       0       0       0       0       0       0       0
       0       0       0       0       0       0       0       0
       0       0       0       0       0       0       0       0
       0       0       0       0       0       0       0       0
       0       0       0       0       0       0       0       0
       0       0       0       0       0       0       0       0
       0       0       0       0       0       0       0       0
       0       0       0       0       0       0       0       0
       0       0       0       0       0       0       0       0
       0       0       0       0       0       0       0       0
       0       0       0       0       0       0       0       0
       0       0       0       0       0       0       0       0
       0       0       0       0       0       0       0       0
       0       0       0       0       0       0       0       0
       0       0       0       0       0       0       0       0
       0       0       0       0       0       0       0       0
       0       0       0       0       0       0       0       0
       0       0       0       0       0       0       0       0
       0       0       0       0       0       0       0       0
       0       0       0       0       0       0       0       0
       0       0       0       0       0       0       0       0
       0       0       0       0       0       0       0       0
       0       0       0       0       0       0       0       0
       0       0       0       0       0       0       0       0
       0       0       0       0       0       0       0       0
       0       0       0       0       0       0       0       0
       0       0       0       0       0       0       0       0
       0       0       0       0       0       0       0       0
       0       0       0       0       0       0       0       0
       0       0       0       0       0       0       0       0
       0       0       0       0       0       0       0       0
       0       0       0       0       0       0       0       0
       0       0       0       0       0       0       0       0
       0       0       0       0       0       0       0       0
       0       0       0       0       0       0       0       0
       0       0       0       0       0       0       0       0
       0       0       0       0       0       0       0       0
       0       0       0       0       0       0       0       0
       0       0       0       0       0       0       0       0
       0       0       0       0       0       0       0       0
       0       0       0       0       0       0       0       0
       0       0       0       0       0       0       0       0
       0       0       0       0       0       0       0       0
       0       0       0       0       0       0       0       0
       0       0       0       0       0       0       0       0
       0       0       0       0       0       0       0       0
       0       0       0       0       0       0       0       0
       0       0       0       0       0       0       0       0
       0       0       0       0       0       0       0       0
       0       0       0       0       0       0       0       0
       0       0       0       0       0       0       0       0
       0       0       0       0       0       0       0       0
       0       0       0       0       0       0       0       0
       0       0       0       0       0       0       0       0
       0       0       0       0       0       0       0       0
       0       0       0       0       0       0       0       0
       0       0       0       0       0       0       0       0
       0       0       0       0       0       0       0       0
       0       0       0       0       0       0       0       0
       0       0       0       0       0       0       0       0
       0       0       0       0       0       0       0       0
       0       0       0       0       0       0       0       0
       0       0       0       0       0       0       0       0
       0       0       0       0       0       0       0       0
       0       0       0       0       0       0       0       0
       0       0       0       0       0       0       0       0
       0       0       0       0       0       0       0       0
       0       0       0       0       0       0       0       0
       0       0       0       0       0       0       0       0
       0       0       0       0       0       0       0       0
       0       0       0       0       0       0       0       0
       0       0       0       0       0       0       0       0
       0       0       0       0       0       0       0       0
       0       0       0       0       0       0       0       0
       0       0       0       0       0       0       0       0
       0       0       0       0       0       0       0       0
       0       0       0       0       0       0       0       0
       0       0       0       0       0       0       0       0
       0       0       0       0       0       0       0       0
       0       0       0       0       0       0       0       0
       0       0       0       0       0       0       0       0
       0       0       0       0       0       0       0       0
       0       0       0       0       0       0       0       0
       0       0       0       0       0       0       0       0
       0       0       0       0       0       0       0       0
       0       0       0       0       0       0       0       0
       0       0       0       0       0       0       0       0
       0       0       0       0       0       0       0       0
       0       0       0       0       0       0       0       0
       0       0       0       0       0       0       0       0
       0       0       0       0       0       0       0       0
       0       0       0       0       0       0       0       0
       0       0       0       0       0       0       0       0
       0       0       0       0       0       0       0       0
       0       0       0       0       0       0       0       0
       0       0       0       0       0       0       0       0
       0       0       0       0       0       0       0       0
       0       0       0       0       0       0       0       0
       0       0       0       0       0       0       0       0
       0       0       0       0       0       0       0       0
       0       0       0       0       0       0       0       0
       0       0       0       0       0       0       0       0
       0       0       0       0       0       0       0       0
       0       0       0       0       0       0       0       0
       0       0       0       0       0       0       0       0
       0       0       0       0       0       0       0       0
       0       0       0       0       0       0       0       0
       0       0       0       0       0       0       0       0
       0       0       0       0       0       0       0       0
       0       0       0       0       0       0       0       0
       0       0       0       0       0       0       0       0
       0       0       0       0       0       0       0       0
       0       0       0       0       0       0       0       0
       0       0       0       0       0       0       0       0
       0       0       0       0       0       0       0       0
       0       0       0       0       0       0       0       0
       0       0       0       0       0       0       0       0
       0       0       0       0       0       0       0       0
       0       0       0       0       0       0       0       0
       0       0       0       0       0       0       0       0
       0       0       0       0       0       0       0       0
       0       0       0       0       0       0       0       0
       0       0       0       0       0       0       0       0
       0       0       0       0       0       0       0       0
       0       0       0       0       0       0       0       0
       0       0       0       0       0       0       0       0
       0       0       0       0       0       0       0       0
       0       0       0       0       0       0       0       0
       0       0       0       0       0       0       0       0
       0       0       0       0       0       0       0       0
       0       0       0       0       0       0       0       0
       0       0       0       0       0       0       0       0
       0       0       0       0       0       0       0       0
       0       0       0       0       0       0       0       0
       0       0       0       0       0       0       0       0
       0       0       0       0       0       0       0       0
       0       0       0       0       0       0       0       0
       0       0       0       0       0       0       0       0
       0       0       0       0       0       0       0       0
       0       0       0       0       0       0       0       0
       0       0       0       0       0       0       0       0
       0       0       0       0       0       0       0       0
       0       0       0       0       0       0       0       0
       0       0       0       0       0       0       0       0
       0       0       0       0       0       0       0       0
       0       0       0       0       0       0       0       0
       0       0       0       0       0       0       0       0
       0       0       0       0       0       0       0       0
       0       0       0       0       0       0       0       0
       0       0       0       0       0       0       0       0
       0       0       0       0       0       0       0       0
       0       0       0       0       0       0       0       0
       0       0       0       0       0       0       0       0
       0       0       0       0       0       0       0       0
       0       0       0       0       0       0       0       0
       0       0       0       0       0       0       0       0
       0       0       0       0       0       0       0       0
       0       0       0       0       0       0       0       0
       0       0       0       0       0       0       0       0
       0       0       0       0       0       0       0       0
       0       0       0       0       0       0       0       0
       0       0       0       0       0       0       0       0
       0       0       0       0       0       0       0       0
       0       0       0       0       0       0       0       0
       0       0       0       0       0       0       0       0
       0       0       0       0       0       0       0       0
       0       0       0       0       0       0       0       0
       0       0       0       0       0       0       0       0
       0       0       0       0       0       0       0       0
       0       0       0       0       0       0       0       0
       0       0       0       0       0       0       0       0
       0       0       0       0       0       0       0       0
       0       0       0       0       0       0       0       0
       0       0       0       0       0       0       0       0
       0       0       0       0       0       0       0       0
       0       0       0       0       0       0       0       0
       0       0       0       0       0       0       0       0
       0       0       0       0       0       0       0       0
       0       0       0       0       0       0       0       0
       0       0       0       0       0       0       0       0
       0       0       0       0       0       0       0       0
       0       0       0       0       0       0       0       0
       0       0       0       0       0       0       0       0
       0       0       0       0       0       0       0       0
       0       0       0       0       0       0       0       0
       0       0       0       0       0       0       0       0
       0       0       0       0       0       0       0       0
       0       0       0       0       0       0       0       0
       0       0       0       0       0       0       0       0
       0       0       0       0       0       0       0       0
       0       0       0       0       0       0       0       0
       0       0       0       0       0       0       0       0
       0       0       0       0       0       0       0       0
       0       0       0       0       0       0       0       0
       0       0       0       0       0       0       0       0
       0       0       0       0       0       0       0       0
       0       0       0       0       0       0       0       0
       0       0       0       0       0       0       0       0
       0       0       0       0       0       0       0       0
       0       0       0       0       0       0       0       0
       0       0       0       0       0       0       0       0
       0       0       0       0       0       0       0       0
       0       0       0       0       0       0       0       0
       0       0       0       0       0       0       0       0
       0       0       0       0       0       0       0       0
       0       0       0       0       0       0       0       0
       0       0       0       0       0       0       0       0
       0       0       0       0       0       0       0       0
       0       0       0       0       0       0       0       0
       0       0       0       0       0       0       0       0
       0       0       0       0       0       0       0       0
       0       0       0       0       0       0       0       0
       0       0       0       0       0       0       0       0
       0       0       0       0       0       0       0       0
       0       0       0       0       0       0       0       0
       0       0       0       0       0       0       0       0
       0       0       0       0       0       0       0       0
       0       0       0       0       0       0       0       0
       0       0       0       0       0       0       0       0
       0       0       0       0       0       0       0       0
       0       0       0       0       0       0       0       0
       0       0       0       0       0       0       0       0
       0       0       0       0       0       0       0       0
       0       0       0       0       0       0       0       0
       0       0       0       0       0       0       0       0
       0       0       0       0       0       0       0       0
       0       0       0       0       0       0       0       0
       0       0       0       0       0       0       0       0
       0       0       0       0       0       0       0       0
       0       0       0       0       0       0       0       0
       0       0       0       0       0       0       0       0
       0       0       0       0       0       0       0       0
       0       0       0       0       0       0       0       0
       0       0       0       0       0       0       0       0
       0       0       0       0       0       0       0       0
       0       0       0       0       0       0       0       0
       0       0       0       0       0       0       0       0
       0       0       0       0       0       0       0       0
       0       0       0       0       0       0       0       0
       0       0       0       0       0       0       0       0
       0       0       0       0       0       0       0       0
       0       0       0       0       0       0       0       0
       0       0       0       0       0       0       0       0
       0       0       0       0       0       0       0       0
       0       0       0       0       0       0       0       0
       0       0       0       0       0       0       0       0
       0       0       0       0       0       0       0       0
       0       0       0       0       0       0       0       0
       0       0       0       0       0       0       0       0
       0       0       0       0       0       0       0       0
       0       0       0       0       0       0       0       0
       0       0       0       0       0       0       0       0
       0       0       0       0       0       0       0       0
       0       0       0       0       0       0       0       0
       0       0       0       0       0       0       0       0
       0       0       0       0       0       0       0       0
       0       0       0       0       0       0       0       0
       0       0       0       0       0       0       0       0
       0       0       0       0       0       0       0       0
       0       0       0       0       0       0       0       0
       0       0       0       0       0       0       0       0
       0       0       0       0       0       0       0       0
       0       0       0       0       0       0       0       0
       0       0       0       0       0       0       0       0
       0       0       0       0       0       0       0       0
       0       0       0       0       0       0       0       0
       0       0       0       0       0       0       0       0
       0       0       0       0       0       0       0       0
       0       0       0       0       0       0       0       0
       0       0       0       0       0       0       0       0
       0       0       0       0       0       0       0       0
       0       0       0       0       0       0       0       0
       0       0       0       0       0       0       0       0
       0       0       0       0       0       0       0       0
       0       0       0       0       0       0       0       0
       0       0       0       0       0       0       0       0
       0       0       0       0       0       0       0       0
       0       0       0       0       0       0       0       0
       0       0       0       0       0       0       0       0
       0       0       0       0       0       0       0       0
       0       0       0       0       0       0       0       0
       0       0       0       0       0       0       0       0
       0       0       0       0       0       0       0       0
       0       0       0       0       0       0       0       0
       0       0       0       0       0       0       0       0
       0       0       0       0       0       0       0       0
       0       0       0       0       0       0       0       0
       0       0       0       0       0       0       0       0
       0       0       0       0       0       0       0       0
       0       0       0       0       0       0       0       0
       0       0       0       0       0       0       0       0
       0       0       0       0       0       0       0       0
       0       0       0       0       0       0       0       0
       0       0       0       0       0       0       0       0
       0       0       0       0       0       0       0       0
       0       0       0       0       0       0       0       0
       0       0       0       0       0       0       0       0
       0       0       0       0       0       0       0       0
       0       0       0       0       0       0       0       0
       0       0       0       0       0       0       0       0
       0       0       0       0       0       0       0       0
       0       0       0       0       0       0       0       0
       0       0       0       0       0       0       0       0
       0       0       0       0       0       0       0       0
       0       0       0       0       0       0       0       0
       0       0       0       0       0       0       0       0
       0       0       0       0       0       0       0       0
       0       0       0       0       0       0       0       0
       0       0       0       0       0       0       0       0
       0       0       0       0       0       0       0       0
       0       0       0       0       0       0       0       0
       0       0       0       0       0       0       0       0
       0       0       0       0       0       0       0       0
       0       0       0       0       0       0       0       0
       0       0       0       0       0       0       0       0
       0       0       0       0       0       0       0       0
       0       0       0       0       0       0       0       0
       0       0       0       0       0       0       0       0
       0       0       0       0       0       0       0       0
       0       0       0       0       0       0       0       0
       0       0       0       0       0       0       0       0
       0       0       0       0       0       0       0       0
       0       0       0       0       0       0       0       0
       0       0       0       0       0       0       0       0
       0       0       0       0       0       0       0       0
       0       0       0       0       0       0       0       0
       0       0       0       0       0       0       0       0
       0       0       0       0       0       0       0       0
       0       0       0       0       0       0       0       0
       0       0       0       0       0       0       0       0
       0       0       0       0       0       0       0       0
       0       0       0       0       0       0       0       0
       0       0       0       0       0       0       0       0
       0       0       0       0       0       0       0       0
       0       0       0       0       0       0       0       0
       0       0       0       0       0       0       0       0
       0       0       0       0       0       0       0       0
       0       0       0       0       0       0       0       0
       0       0       0       0       0       0       0       0
       0       0       0       0       0       0       0       0
       0       0       0       0       0       0       0       0
       0       0       0       0       0       0       0       0
       0       0       0       0       0       0       0       0
       0       0       0       0       0       0       0       0
       0       0       0       0       0       0       0       0
       0       0       0       0       0       0       0       0
       0       0       0       0       0       0       0       0
       0       0       0       0       0       0       0       0
       0       0       0       0       0       0       0       0
       0       0       0       0       0       0       0       0
       0       0       0       0       0       0       0       0
       0       0       0       0       0       0       0       0
       0       0       0       0       0       0       0       0
       0       0       0       0       0       0       0       0
       0       0       0       0       0       0       0       0
       0       0       0       0       0       0       0       0
       0       0       0       0       0       0       0       0
       0       0       0       0       0       0       0       0
       0       0       0       0       0       0       0       0
       0       0       0       0       0       0       0       0
       0       0       0       0       0       0       0       0
       0       0       0       0       0       0       0       0
       0       0       0       0       0       0       0       0
       0       0       0       0       0       0       0       0
       0       0       0       0       0       0       0       0
       0       0       0       0       0       0       0       0
       0       0       0       0       0       0       0       0
       0       0       0       0       0       0       0       0
       0       0       0       0       0       0       0       0
       0       0       0       0       0       0       0       0
       0       0       0       0       0       0       0       0
       0       0       0       0       0       0       0       0
       0       0       0       0       0       0       0       0
       0       0       0       0       0       0       0       0
       0       0       0       0       0       0       0       0
       0       0       0       0       0       0       0       0
       0       0       0       0       0       0       0       0
       0       0       0       0       0       0       0       0
       0       0       0       0       0       0       0       0
       0       0       0       0       0       0       0       0
       0       0       0       0       0       0       0       0
       0       0       0       0       0       0       0       0
       0       0       0       0       0       0       0       0
       0       0       0       0       0       0       0       0
       0       0       0       0       0       0       0       0
       0       0       0       0       0       0       0       0
       0       0       0       0       0       0       0       0
       0       0       0       0       0       0       0       0
       0       0       0       0       0       0       0       0
       0       0       0       0       0       0       0       0
       0       0       0       0       0       0       0       0
       0       0       0       0       0       0       0       0
       0       0       0       0       0       0       0       0
       0       0       0       0       0       0       0       0
       0       0       0       0       0       0       0       0
       0       0       0       0       0       0       0       0
       0       0       0       0       0       0       0       0
       0       0       0       0       0       0       0       0
       0       0       0       0       0       0       0       0
       0       0       0       0       0       0       0       0
       0       0       0       0       0       0       0       0
       0       0       0       0       0       0       0       0
       0       0       0       0       0       0       0       0
       0       0       0       0       0       0       0       0
       0       0       0       0       0       0       0       0
       0       0       0       0       0       0       0       0
       0       0       0       0       0       0       0       0
       0       0       0       0       0       0       0       0
       0       0       0       0       0       0       0       0
       0       0       0       0       0       0       0       0
       0       0       0       0       0       0       0       0
       0       0       0       0       0       0       0       0
       0       0       0       0       0       0       0       0
       0       0       0       0       0       0       0       0
       0       0       0       0       0       0       0       0
       0       0       0       0       0       0       0       0
       0       0       0       0       0       0       0       0
       0       0       0       0       0       0       0       0
       0       0       0       0       0       0       0       0
       0       0       0       0       0       0       0       0
       0       0       0       0       0       0       0       0
       0       0       0       0       0       0       0       0
       0       0       0       0       0       0       0       0
       0       0       0       0       0       0       0       0
       0       0       0       0       0       0       0       0
       0       0       0       0       0       0       0       0
       0       0       0       0       0       0       0       0
       0       0       0       0       0       0       0       0
       0       0       0       0       0       0       0       0
       0       0       0       0       0       0       0       0
       0       0       0       0       0       0       0       0
       0       0       0       0       0       0       0       0
       0       0       0       0       0       0       0       0
       0       0       0       0       0       0       0       0
       0       0       0       0       0       0       0       0
       0       0       0       0       0       0       0       0
       0       0       0       0       0       0       0       0
       0       0       0       0       0       0       0       0
       0       0       0       0       0       0       0       0
       0       0       0       0       0       0       0       0
       0       0       0       0       0       0       0       0
       0       0       0       0       0       0       0       0
       0       0       0       0       0       0       0       0
       0       0       0       0       0       0       0       0
       0       0       0       0       0       0       0       0
       0       0       0       0       0       0       0       0
       0       0       0       0       0       0       0       0
       0       0       0       0       0       0       0       0
       0       0       0       0       0       0       0       0
       0       0       0       0       0       0       0       0
       0       0       0       0       0       0       0       0
       0       0       0       0       0       0       0       0
       0       0       0       0       0       0       0       0
       0       0       0       0       0       0       0       0
       0       0       0       0       0       0       0       0
       0       0       0       0       0       0       0       0
       0       0       0       0       0       0       0       0
       0       0       0       0       0       0       0       0
       0       0       0       0       0       0       0       0
       0       0       0       0       0       0       0       0
       0       0       0       0       0       0       0       0
       0       0       0       0       0       0       0       0
       0       0       0       0       0       0       0       0
       0       0       0       0       0       0       0       0
       0       0       0       0       0       0       0       0
       0       0       0       0       0       0       0       0
       0       0       0       0       0       0       0       0
       0       0       0       0       0       0       0       0
       0       0       0       0       0       0       0       0
       0       0       0       0       0       0       0       0
       0       0       0       0       0       0       0       0
       0       0       0       0       0       0       0       0
       0       0       0       0       0       0       0       0
       0       0       0       0       0       0       0       0
       0       0       0       0       0       0       0       0
       0       0       0       0       0       0       0       0
       0       0       0       0       0       0       0       0
       0       0       0       0       0       0       0       0
       0       0       0       0       0       0       0       0
       0       0       0       0       0       0       0       0
       0       0       0       0       0       0       0       0
       0       0       0       0       0       0       0       0
       0       0       0       0       0       0       0       0
       0       0       0       0       0       0       0       0
       0       0       0       0       0       0       0       0
       0       0       0       0       0       0       0       0
       0       0       0       0       0       0       0       0
       0       0       0       0       0       0       0       0
       0       0       0       0       0       0       0       0
       0       0       0       0       0       0       0       0
       0       0       0       0       0       0       0       0
       0       0       0       0       0       0       0       0
       0       0       0       0       0       0       0       0
       0       0       0       0       0       0       0       0
       0       0       0       0       0       0       0       0
       0       0       0       0       0       0       0       0
       0       0       0       0       0       0       0       0
       0       0       0       0       0       0       0       0
       0       0       0       0       0       0       0       0
       0       0       0       0       0       0       0       0
       0       0       0       0       0       0       0       0
       0       0       0       0       0       0       0       0
       0       0       0       0       0       0       0       0
       0       0       0       0       0       0       0       0
       0       0       0       0       0       0       0       0
       0       0       0       0       0       0       0       0
       0       0       0       0       0       0       0       0
       0       0       0       0       0       0       0       0
       0       0       0       0       0       0       0       0
       0       0       0       0       0       0       0       0
       0       0       0       0       0       0       0       0
       0       0       0       0       0       0       0       0
       0       0       0       0       0       0       0       0
       0       0       0       0       0       0       0       0
       0       0       0       0       0       0       0       0
       0       0       0       0       0       0       0       0
       0       0       0       0       0       0       0       0
       0       0       0       0       0       0       0       0
       0       0       0       0       0       0       0       0
       0       0       0       0       0       0       0       0
       0       0       0       0       0       0       0       0
       0       0       0       0       0       0       0       0
       0       0       0       0       0       0       0       0
       0       0       0       0       0       0       0       0
       0       0       0       0       0       0       0       0
       0       0       0       0       0       0       0       0
       0       0       0       0       0       0       0       0
       0       0       0       0       0       0       0       0
       0       0       0       0       0       0       0       0
       0       0       0       0       0       0       0       0
       0       0       0       0       0       0       0       0
       0       0       0       0       0       0       0       0
       0       0       0       0       0       0       0       0
       0       0       0       0       0       0       0       0
       0       0       0       0       0       0       0       0
       0       0       0       0       0       0       0       0
       0       0       0       0       0       0       0       0
       0       0       0       0       0       0       0       0
       0       0       0       0       0       0       0       0
       0       0       0       0       0       0       0       0
       0       0       0       0       0       0       0       0
       0       0       0       0       0       0       0       0
       0       0       0       0       0       0       0       0
       0       0       0       0       0       0       0       0
       0       0       0       0       0       0       0       0
       0       0       0       0       0       0       0       0
       0       0       0       0       0       0       0       0
       0       0       0       0       0       0       0       0
       0       0       0       0       0       0       0       0
       0       0       0       0       0       0       0       0
       0       0       0       0       0       0       0       0
       0       0       0       0       0       0       0       0
       0       0       0       0       0       0       0       0
       0       0       0       0       0       0       0       0
       0       0       0       0       0       0       0       0
       0       0       0       0       0       0       0       0
       0       0       0       0       0       0       0       0
       0       0       0       0       0       0       0       0
       0       0       0       0       0       0       0       0
       0       0       0       0       0       0       0       0
       0       0       0       0       0       0       0       0
       0       0       0       0       0       0       0       0
       0       0       0       0       0       0       0       0
       0       0       0       0       0       0       0       0
       0       0       0       0       0       0       0       0
       0       0       0       0       0       0       0       0
       0       0       0       0       0       0       0       0
       0       0       0       0       0       0       0       0
       0       0       0       0       0       0       0       0
       0       0       0       0       0       0       0       0
       0       0       0       0       0       0       0       0
       0       0       0       0       0       0       0       0
       0       0       0       0       0       0       0       0
       0       0       0       0       0       0       0       0
       0       0       0       0       0       0       0       0
       0       0       0       0       0       0       0       0
       0       0       0       0       0       0       0       0
       0       0       0       0       0       0       0       0
       0       0       0       0       0       0       0       0
       0       0       0       0       0       0       0       0
       0       0       0       0       0       0       0       0
       0       0       0       0       0       0       0       0
       0       0       0       0       0       0       0       0
       0       0       0       0       0       0       0       0
       0       0       0       0       0       0       0       0
       0       0       0       0       0       0       0       0
       0       0       0       0       0       0       0       0
       0       0       0       0       0       0       0       0
       0       0       0       0       0       0       0       0
       0       0       0       0       0       0       0       0
       0       0       0       0       0       0       0       0
       0       0       0       0       0       0       0       0
       0       0       0       0       0       0       0       0
       0       0       0       0       0       0       0       0
       0       0       0       0       0       0       0       0
       0       0       0       0       0       0       0       0
       0       0       0       0       0       0       0       0
       0       0       0       0       0       0       0       0
       0       0       0       0       0       0       0       0
       0       0       0       0       0       0       0       0
       0       0       0       0       0       0       0       0
       0       0       0       0       0       0       0       0
       0       0       0       0       0       0       0       0
       0       0       0       0       0       0       0       0
       0       0       0       0       0       0       0       0
       0       0       0       0       0       0       0       0
       0       0       0       0       0       0       0       0
       0       0       0       0       0       0       0       0
       0       0       0       0       0       0       0       0
       0       0       0       0       0       0       0       0
       0       0       0       0       0       0       0       0
       0       0       0       0       0       0       0       0
       0       0       0       0       0       0       0       0
       0       0       0       0       0       0       0       0
       0       0       0       0       0       0       0       0
       0       0       0       0       0       0       0       0
       0       0       0       0       0       0       0       0
       0       0       0       0       0       0       0       0
       0       0       0       0       0       0       0       0
       0       0       0       0       0       0       0       0
       0       0       0       0       0       0       0       0
       0       0       0       0       0       0       0       0
       0       0       0       0       0       0       0       0
       0       0       0       0       0       0       0       0
       0       0       0       0       0       0       0       0
       0       0       0       0       0       0       0       0
       0       0       0       0       0       0       0       0
       0       0       0       0       0       0       0       0
       0       0       0       0       0       0       0       0
       0       0       0       0       0       0       0       0
       0       0       0       0       0       0       0       0
       0       0       0       0       0       0       0       0
       0       0       0       0       0       0       0       0
       0       0       0       0       0       0       0       0
       0       0       0       0       0       0       0       0
       0       0       0       0       0       0       0       0
       0       0       0       0       0       0       0       0
       0       0       0       0       0       0       0       0
       0       0       0       0       0       0       0       0
       0       0       0       0       0       0       0       0
       0       0       0       0       0       0       0       0
       0       0       0       0       0       0       0       0
       0       0       0       0       0       0       0       0
       0       0       0       0       0       0       0       0
       0       0       0       0       0       0       0       0
       0       0       0       0       0       0       0       0
       0       0       0       0       0       0       0       0
       0       0       0       0       0       0       0       0
       0       0       0       0       0       0       0       0
       0       0       0       0       0       0       0       0
       0       0       0       0       0       0       0       0
       0       0       0       0       0       0       0       0
       0       0       0       0       0       0       0       0
       0       0       0       0       0       0       0       0
       0       0       0       0       0       0       0       0
       0       0       0       0       0       0       0       0
       0       0       0       0       0       0       0       0
       0       0       0       0       0       0       0       0
       0       0       0       0       0       0       0       0
       0       0       0       0       0       0       0       0
       0       0       0       0       0       0       0       0
       0       0       0       0       0       0       0       0
       0       0       0       0       0       0       0       0
       0       0       0       0       0       0       0       0
       0       0       0       0       0       0       0       0
       0       0       0       0       0       0       0       0
       0       0       0       0       0       0       0       0
       0       0       0       0       0       0       0       0
       0       0       0       0       0       0       0       0
       0       0       0       0       0       0       0       0
       0       0       0       0       0       0       0       0
       0       0       0       0       0       0       0       0
       0       0       0       0       0       0       0       0
       0       0       0       0       0       0       0       0
       0       0       0       0       0       0       0       0
       0       0       0       0       0       0       0       0
       0       0       0       0       0       0       0       0
       0       0       0       0       0       0       0       0
       0       0       0       0       0       0       0       0
       0       0       0       0       0       0       0       0
       0       0       0       0       0       0       0       0
       0       0       0       0       0       0       0       0
       0       0       0       0       0       0       0       0
       0       0       0       0       0       0       0       0
       0       0       0       0       0       0       0       0
       0       0       0       0       0       0       0       0
       0       0       0       0       0       0       0       0
       0       0       0       0       0       0       0       0
       0       0       0       0       0       0       0       0
       0       0       0       0       0       0       0       0
       0       0       0       0       0       0       0       0
       0       0       0       0       0       0       0       0
       0       0       0       0       0       0       0       0
       0       0       0       0       0       0       0       0
       0       0       0       0       0       0       0       0
       0       0       0       0       0       0       0       0
       0       0       0       0       0       0       0       0
       0       0       0       0       0       0       0       0
       0       0       0       0       0       0       0       0
       0       0       0       0       0       0       0       0
       0       0       0       0       0       0       0       0
       0       0       0       0       0       0       0       0
       0       0       0       0       0       0       0       0
       0       0       0       0       0       0       0       0
       0       0       0       0       0       0       0       0
       0       0       0       0       0       0       0       0
       0       0       0       0       0       0       0       0
       0       0       0       0       0       0       0       0
       0       0       0       0       0       0       0       0
       0       0       0       0       0       0       0       0
       0       0       0       0       0       0       0       0
       0       0       0       0       0       0       0       0
       0       0       0       0       0       0       0       0
       0       0       0       0       0       0       0       0
       0       0       0       0       0       0       0       0
       0       0       0       0       0       0       0       0
       0       0       0       0       0       0       0       0
       0       0       0       0       0       0       0       0
       0       0       0       0       0       0       0       0
       0       0       0       0       0       0       0       0
       0       0       0       0       0       0       0       0
       0       0       0       0       0       0       0       0
       0       0       0       0       0       0       0       0
       0       0       0       0       0       0       0       0
       0       0       0       0       0       0       0       0
       0       0       0       0       0       0       0       0
       0       0       0       0       0       0       0       0
       0       0       0       0       0       0       0       0
       0       0       0       0       0       0       0       0
       0       0       0       0       0       0       0       0
       0       0       0       0       0       0       0       0
       0       0       0       0       0       0       0       0
       0       0       0       0       0       0       0       0
       0       0       0       0       0       0       0       0
       0       0       0       0       0       0       0       0
       0       0       0       0       0       0       0       0
       0       0       0       0       0       0       0       0
       0       0       0       0       0       0       0       0
       0       0       0       0       0       0       0       0
       0       0       0       0       0       0       0       0
       0       0       0       0       0       0       0       0
       0       0       0       0       0       0       0       0
       0       0       0       0       0       0       0       0
       0       0       0       0       0       0       0       0
       0       0       0       0       0       0       0       0
       0       0       0       0       0       0       0       0
       0       0       0       0       0       0       0       0
       0       0       0       0       0       0       0       0
       0       0       0       0       0       0       0       0
       0       0       0       0       0       0       0       0
       0       0       0       0       0       0       0       0
       0       0       0       0       0       0       0       0
       0       0       0       0       0       0       0       0
       0       0       0       0       0       0       0       0
       0       0       0       0       0       0       0       0
       0       0       0       0       0       0       0       0
       0       0       0       0       0       0       0       0
       0       0       0       0       0       0       0       0
       0       0       0       0       0       0       0       0
       0       0       0       0       0       0       0       0
       0       0       0       0       0       0       0       0
       0       0       0       0       0       0       0       0
       0       0       0       0       0       0       0       0
       0       0       0       0       0       0       0       0
       0       0       0       0       0       0       0       0
       0       0       0       0       0       0       0       0
       0       0       0       0       0       0       0       0
       0       0       0       0       0       0       0       0
       0       0       0       0       0       0       0       0
       0       0       0       0       0       0       0       0
       0       0       0       0       0       0       0       0
       0       0       0       0       0       0       0       0
       0       0       0       0       0       0       0       0
       0       0       0       0       0       0       0       0
       0       0       0       0       0       0       0       0
       0       0       0       0       0       0       0       0
       0       0       0       0       0       0       0       0
       0       0       0       0       0       0       0       0
       0       0       0       0       0       0       0       0
       0       0       0       0       0       0       0       0
       0       0       0       0       0       0       0       0
       0       0       0       0       0       0       0       0
       0       0       0       0       0       0       0       0
       0       0       0       0       0       0       0       0
       0       0       0       0       0       0       0       0
       0       0       0       0       0       0       0       0
       0       0       0       0       0       0       0       0
       0       0       0       0       0       0       0       0
       0       0       0       0       0       0       0       0
       0       0       0       0       0       0       0       0
       0       0       0       0       0       0       0       0
       0       0       0       0       0       0       0       0
       0       0       0       0       0       0       0       0
       0       0       0       0       0       0       0       0
       0       0       0       0       0       0       0       0
       0       0       0       0       0       0       0       0
       0       0       0       0       0       0       0       0
       0       0       0       0       0       0       0       0
       0       0       0       0       0       0       0       0
       0       0       0       0       0       0       0       0
       0       0       0       0       0       0       0       0
       0       0       0       0       0       0       0       0
       0       0       0       0       0       0       0       0
       0       0       0       0       0       0       0       0
       0       0       0       0       0       0       0       0
       0       0       0       0       0       0       0       0
       0       0       0       0       0       0       0       0
       0       0       0       0       0       0       0       0
       0       0       0       0       0       0       0       0
       0       0       0       0       0       0       0       0
       0       0       0       0       0       0       0       0
       0       0       0       0       0       0       0       0
       0       0       0       0       0       0       0       0
       0       0       0       0       0       0       0       0
       0       0       0       0       0       0       0       0
       0       0       0       0       0       0       0       0
       0       0       0       0       0       0       0       0
       0       0       0       0       0       0       0       0
       0       0       0       0       0       0       0       0
       0       0       0       0       0       0       0       0
       0       0       0       0       0       0       0       0
       0       0       0       0       0       0       0       0
       0       0       0       0       0       0       0       0
       0       0       0       0       0       0       0       0
       0       0       0       0       0       0       0       0
       0       0       0       0       0       0       0       0
       0       0       0       0       0       0       0       0
       0       0       0       0       0       0       0       0
       0       0       0       0       0       0       0       0
       0       0       0       0       0       0       0       0
       0       0       0       0       0       0       0       0
       0       0       0       0       0       0       0       0
       0       0       0       0       0       0       0       0
       0       0       0       0       0       0       0       0
       0       0       0       0       0       0       0       0
       0       0       0       0       0       0       0       0
       0       0       0       0       0       0       0       0
       0       0       0       0       0       0       0       0
       0       0       0       0       0       0       0       0
       0       0       0       0       0       0       0       0
       0       0       0       0       0       0       0       0
       0       0       0       0       0       0       0       0
       0       0       0       0       0       0       0       0
       0       0       0       0       0       0       0       0
       0       0       0       0       0       0       0       0
       0       0       0       0       0       0       0       0
       0       0       0       0       0       0       0       0
       0       0       0       0       0       0       0       0
       0       0       0       0       0       0       0       0
       0       0       0       0       0       0       0       0
       0       0       0       0       0       0       0       0
       0       0       0       0       0       0       0       0
       0       0       0       0       0       0       0       0
       0       0       0       0       0       0       0       0
       0       0       0       0       0       0       0       0
       0       0       0       0       0       0       0       0
       0       0       0       0       0       0       0       0
       0       0       0       0       0       0       0       0
       0       0       0       0       0       0       0       0
       0       0       0       0       0       0       0       0
       0       0       0       0       0       0       0       0
       0       0       0       0       0       0       0       0
       0       0       0       0       0       0       0       0
       0       0       0       0       0       0       0       0
       0       0       0       0       0       0       0       0
       0       0       0       0       0       0       0       0
       0       0       0       0       0       0       0       0
       0       0       0       0       0       0       0       0
       0       0       0       0       0       0       0       0
       0       0       0       0       0       0       0       0
       0       0       0       0       0       0       0       0
       0       0       0       0       0       0       0       0
       0       0       0       0       0       0       0       0
       0       0       0       0       0       0       0       0
       0       0       0       0       0       0       0       0
       0       0       0       0       0       0       0       0
       0       0       0       0       0       0       0       0
       0       0       0       0       0       0       0       0
       0       0       0       0       0       0       0       0
       0       0       0       0       0       0       0       0
       0       0       0       0       0       0       0       0
       0       0       0       0       0       0       0       0
       0       0       0       0       0       0       0       0
       0       0       0       0       0       0       0       0
       0       0       0       0       0       0       0       0
       0       0       0       0       0       0       0       0
       0       0       0       0       0       0       0       0
       0       0       0       0       0       0       0       0
       0       0       0       0       0       0       0       0
       0       0       0       0       0       0       0       0
       0       0       0       0       0       0       0       0
       0       0       0       0       0       0       0       0
       0       0       0       0       0       0       0       0
       0       0       0       0       0       0       0       0
       0       0       0       0       0       0       0       0
       0       0       0       0       0       0       0       0
       0       0       0       0       0       0       0       0
       0       0       0       0       0       0       0       0
       0       0       0       0       0       0       0       0
       0       0       0       0       0       0       0       0
       0       0       0       0       0       0       0       0
       0       0       0       0       0       0       0       0
       0       0       0       0       0       0       0       0
       0       0       0       0       0       0       0       0
       0       0       0       0       0       0       0       0
       0       0       0       0       0       0       0       0
       0       0       0       0       0       0       0       0
       0       0       0       0       0       0       0       0
       0       0       0       0       0       0       0       0
       0       0       0       0       0       0       0       0
       0       0       0       0       0       0       0       0
       0       0       0       0       0       0       0       0
       0       0       0       0       0       0       0       0
       0       0       0       0       0       0       0       0
       0       0       0       0       0       0       0       0
       0       0       0       0       0       0       0       0
       0       0       0       0       0       0       0       0
       0       0       0       0       0       0       0       0
       0       0       0       0       0       0       0       0
       0       0       0       0       0       0       0       0
       0       0       0       0       0       0       0       0
       0       0       0       0       0       0       0       0
       0       0       0       0       0       0       0       0
       0       0       0       0       0       0       0       0
       0       0       0       0       0       0       0       0
       0       0       0       0       0       0       0       0
       0       0       0       0       0       0       0       0
       0       0       0       0       0       0       0       0
       0       0       0       0       0       0       0       0
       0       0       0       0       0       0       0       0
       0       0       0       0       0       0       0       0
       0       0       0       0       0       0       0       0
       0       0       0       0       0       0       0       0
       0       0       0       0       0       0       0       0
       0       0       0       0       0       0       0       0
       0       0       0       0       0       0       0       0
       0       0       0       0       0       0       0       0
       0       0       0       0       0       0       0       0
       0       0       0       0       0       0       0       0
       0       0       0       0       0       0       0       0
       0       0       0       0       0       0       0       0
       0       0       0       0       0       0       0       0
       0       0       0       0       0       0       0       0
       0       0       0       0       0       0       0       0
       0       0       0       0       0       0       0       0
       0       0       0       0       0       0       0       0
       0       0       0       0       0       0       0       0
       0       0       0       0       0       0       0       0
       0       0       0       0       0       0       0       0
       0       0       0       0       0       0       0       0
       0       0       0       0       0       0       0       0
       0       0       0       0       0       0       0       0
       0       0       0       0       0       0       0       0
       0       0       0       0       0       0       0       0
       0       0       0       0       0       0       0       0
       0       0       0       0       0       0       0       0
       0       0       0       0       0       0       0       0
       0       0       0       0       0       0       0       0
       0       0       0       0       0       0       0       0
       0       0       0       0       0       0       0       0
       0       0       0       0       0       0       0       0
       0       0       0       0       0       0       0       0
       0       0       0       0       0       0       0       0
       0       0       0       0       0       0       0       0
       0       0       0       0       0       0       0       0
       0       0       0       0       0       0       0       0
       0       0       0       0       0       0       0       0
       0       0       0       0       0       0       0       0
       0       0       0       0       0       0       0       0
       0       0       0       0       0       0       0       0
       0       0       0       0       0       0       0       0
       0       0       0       0       0       0       0       0
       0       0       0       0       0       0       0       0
       0       0       0       0       0       0       0       0
       0       0       0       0       0       0       0       0
       0       0       0       0       0       0       0       0
       0       0       0       0       0       0       0       0
       0       0       0       0       0       0       0       0
       0       0       0       0       0       0       0       0
       0       0       0       0       0       0       0       0
       0       0       0       0       0       0       0       0
       0       0       0       0       0       0       0       0
       0       0       0       0       0       0       0       0
       0       0       0       0       0       0       0       0
       0       0       0       0       0       0       0       0
       0       0       0       0       0       0       0       0
       0       0       0       0       0       0       0       0
       0       0       0       0       0       0       0       0
       0       0       0       0       0       0       0       0
       0       0       0       0       0       0       0       0
       0       0       0       0       0       0       0       0
       0       0       0       0       0       0       0       0
       0       0       0       0       0       0       0       0
       0       0       0       0       0       0       0       0
       0       0       0       0       0       0       0       0
       0       0       0       0       0       0       0       0
       0       0       0       0       0       0       0       0
       0       0       0       0       0       0       0       0
       0       0       0       0       0       0       0       0
       0       0       0       0       0       0       0       0
       0       0       0       0       0       0       0       0
       0       0       0       0       0       0       0       0
       0       0       0       0       0       0       0       0
       0       0       0       0       0       0       0       0
       0       0       0       0       0       0       0       0
       0       0       0       0       0       0       0       0
       0       0       0       0       0       0       0       0
       0       0       0       0       0       0       0       0
       0       0       0       0       0       0       0       0
       0       0       0       0       0       0       0       0
       0       0       0       0       0       0       0       0
       0       0       0       0       0       0       0       0
       0       0       0       0       0       0       0       0
       0       0       0       0       0       0       0       0
       0       0       0       0       0       0       0       0
       0       0       0       0       0       0       0       0
       0       0       0       0       0       0       0       0
       0       0       0       0       0       0       0       0
       0       0       0       0       0       0       0       0
       0       0       0       0       0       0       0       0
       0       0       0       0       0       0       0       0
       0       0       0       0       0       0       0       0
       0       0       0       0       0       0       0       0
       0       0       0       0       0       0       0       0
       0       0       0       0       0       0       0       0
       0       0       0       0       0       0       0       0
       0       0       0       0       0       0       0       0
       0       0       0       0       0       0       0       0
       0       0       0       0       0       0       0       0
       0       0       0       0       0       0       0       0
       0       0       0       0       0       0       0       0
       0       0       0       0       0       0       0       0
       0       0       0       0       0       0       0       0
       0       0       0       0       0       0       0       0
       0       0       0       0       0       0       0       0
       0       0       0       0       0       0       0       0
       0       0       0       0       0       0       0       0
       0       0       0       0       0       0       0       0
       0       0       0       0       0       0       0       0
       0       0       0       0       0       0       0       0
       0       0       0       0       0       0       0       0
       0       0       0       0       0       0       0       0
       0       0       0       0       0       0       0       0
       0       0       0       0       0       0       0       0
       0       0       0       0       0       0       0       0
       0       0       0       0       0       0       0       0
       0       0       0       0       0       0       0       0
       0       0       0       0       0       0       0       0
       0       0       0       0       0       0       0       0
       0       0       0       0       0       0       0       0
       0       0       0       0       0       0       0       0
       0       0       0       0       0       0       0       0
       0       0       0       0       0       0       0       0
       0       0       0       0       0       0       0       0
       0       0       0       0       0       0       0       0
       0       0       0       0       0       0       0       0
       0       0       0       0       0       0       0       0
       0       0       0       0       0       0       0       0
       0       0       0       0       0       0       0       0
       0       0       0       0       0       0       0       0
       0       0       0       0       0       0       0       0
       0       0       0       0       0       0       0       0
       0       0       0       0       0       0       0       0
       0       0       0       0       0       0       0       0
       0       0       0       0       0       0       0       0
       0       0       0       0       0       0       0       0
       0       0       0       0       0       0       0       0
       0       0       0       0       0       0       0       0
       0       0       0       0       0       0       0       0
       0       0       0       0       0       0       0       0
       0       0       0       0       0       0       0       0
       0       0       0       0       0       0       0       0
       0       0       0       0       0       0       0       0
       0       0       0       0       0       0       0       0
       0       0       0       0       0       0       0       0
       0       0       0       0       0       0       0       0
       0       0       0       0       0       0       0       0
       0       0       0       0       0       0       0       0
       0       0       0       0       0       0       0       0
       0       0       0       0       0       0       0       0
       0       0       0       0       0       0       0       0
       0       0       0       0       0       0       0       0
       0       0       0       0       0       0       0       0
       0       0       0       0       0       0       0       0
       0       0       0       0       0       0       0       0
       0       0       0       0       0       0       0       0
       0       0       0       0       0       0       0       0
       0       0       0       0       0       0       0       0
       0       0       0       0       0       0       0       0
       0       0       0       0       0       0       0       0
       0       0       0       0       0       0       0       0
       0       0       0       0       0       0       0       0
       0       0       0       0       0       0       0       0
       0       0       0       0       0       0       0       0
       0       0       0       0       0       0       0       0
       0       0       0       0       0       0       0       0
       0       0       0       0       0       0       0       0
       0       0       0       0       0       0       0       0
       0       0       0       0       0       0       0       0
       0       0       0       0       0       0       0       0
       0       0       0       0       0       0       0       0
       0       0       0       0       0       0       0       0
       0       0       0       0       0       0       0       0
       0       0       0       0       0       0       0       0
       0       0       0       0       0       0       0       0
       0       0       0       0       0       0       0       0
       0       0       0       0       0       0       0       0
       0       0       0       0       0       0       0       0
       0       0       0       0       0       0       0       0
       0       0       0       0       0       0       0       0
       0       0       0       0       0       0       0       0
       0       0       0       0       0       0       0       0
       0       0       0       0       0       0       0       0
       0       0       0       0       0       0       0       0
       0       0       0       0       0       0       0       0
       0       0       0       0       0       0       0       0
       0       0       0       0       0       0       0       0
       0       0       0       0       0       0       0       0
       0       0       0       0       0       0       0       0
       0       0       0       0       0       0       0       0
       0       0       0       0       0       0       0       0
       0       0       0       0       0       0       0       0
       0       0       0       0       0       0       0       0
       0       0       0       0       0       0       0       0
       0       0       0       0       0       0       0       0
       0       0       0       0       0       0       0       0
       0       0       0       0       0       0       0       0
       0       0       0       0       0       0       0       0
       0       0       0       0       0       0       0       0
       0       0       0       0       0       0       0       0
       0       0       0       0       0       0       0       0
       0       0       0       0       0       0       0       0
       0       0       0       0       0       0       0       0
       0       0       0       0       0       0       0       0
       0       0       0       0       0       0       0       0
       0       0       0       0       0       0       0       0
       0       0       0       0       0       0       0       0
       0       0       0       0       0       0       0       0
       0       0       0       0       0       0       0       0
       0       0       0       0       0       0       0       0
       0       0       0       0       0       0       0       0
       0       0       0       0       0       0       0       0
       0       0       0       0       0       0       0       0
       0       0       0       0       0       0       0       0
       0       0       0       0       0       0       0       0
       0       0       0       0       0       0       0       0
       0       0       0       0       0       0       0       0
       0       0       0       0       0       0       0       0
       0       0       0       0       0       0       0       0
       0       0       0       0       0       0       0       0
       0       0       0       0       0       0       0       0
       0       0       0       0       0       0       0       0
       0       0       0       0       0       0       0       0
       0       0       0       0       0       0       0       0
       0       0       0       0       0       0       0       0
       0       0       0       0       0       0       0       0
       0       0       0       0       0       0       0       0
       0       0       0       0       0       0       0       0
       0       0       0       0       0       0       0       0
       0       0       0       0       0       0       0       0
       0       0       0       0       0       0       0       0
       0       0       0       0       0       0       0       0
       0       0       0       0       0       0       0       0
       0       0       0       0       0       0       0       0
       0       0       0       0       0       0       0       0
       0       0       0       0       0       0       0       0
       0       0       0       0       0       0       0       0
       0       0       0       0       0       0       0       0
       0       0       0       0       0       0       0       0
       0       0       0       0       0       0       0       0
       0       0       0       0       0       0       0       0
       0       0       0       0       0       0       0       0
       0       0       0       0       0       0       0       0
       0       0       0       0       0       0       0       0
       0       0       0       0       0       0       0       0
       0       0       0       0       0       0       0       0
       0       0       0       0       0       0       0       0
       0       0       0       0       0       0       0       0
       0       0       0       0       0       0       0       0
       0       0       0       0       0       0       0       0
       0       0       0       0       0       0       0       0
       0       0       0       0       0       0       0       0
       0       0       0       0       0       0       0       0
       0       0       0       0       0       0       0       0
       0       0       0       0       0       0       0       0
       0       0       0       0       0       0       0       0
       0       0       0       0       0       0       0       0
       0       0       0       0       0       0       0       0
       0       0       0       0       0       0       0       0
       0       0       0       0       0       0       0       0
       0       0       0       0       0       0       0       0
       0       0       0       0       0       0       0       0
       0       0       0       0       0       0       0       0
       0       0       0       0       0       0       0       0
       0       0       0       0       0       0       0       0
       0       0       0       0       0       0       0       0
       0       0       0       0       0       0       0       0
       0       0       0       0       0       0       0       0
       0       0       0       0       0       0       0       0
       0       0       0       0       0       0       0       0
       0       0       0       0       0       0       0       0
       0       0       0       0       0       0       0       0
       0       0       0       0       0       0       0       0
       0       0       0       0       0       0       0       0
       0       0       0       0       0       0       0       0
       0       0       0       0       0       0       0       0
       0       0       0       0       0       0       0       0
       0       0       0       0       0       0       0       0
       0       0       0       0       0       0       0       0
       0       0       0       0       0       0       0       0
       0       0       0       0       0       0       0       0
       0       0       0       0       0       0       0       0
       0       0       0       0       0       0       0       0
       0       0       0       0       0       0       0       0
       0       0       0       0       0       0       0       0
       0       0       0       0       0       0       0       0
       0       0       0       0       0       0       0       0
       0       0       0       0       0       0       0       0
       0       0       0       0       0       0       0       0
       0       0       0       0       0       0       0       0
       0       0       0       0       0       0       0       0
       0       0       0       0       0       0       0       0
       0       0       0       0       0       0       0       0
       0       0       0       0       0       0       0       0
       0       0       0       0       0       0       0       0
       0       0       0       0       0       0       0       0
       0       0       0       0       0       0       0       0
       0       0       0       0       0       0       0       0
       0       0       0       0       0       0       0       0
       0       0       0       0       0       0       0       0
       0       0       0       0       0       0       0       0
       0       0       0       0       0       0       0       0
       0       0       0       0       0       0       0       0
       0       0       0       0       0       0       0       0
       0       0       0       0       0       0       0       0
       0       0       0       0       0       0       0       0
       0       0       0       0       0       0       0       0
       0       0       0       0       0       0       0       0
       0       0       0       0       0       0       0       0
       0       0       0       0       0       0       0       0
       0       0       0       0       0       0       0       0
       0       0       0       0       0       0       0       0
       0       0       0       0       0       0       0       0
       0       0       0       0       0       0       0       0
       0       0       0       0       0       0       0       0
       0       0       0       0       0       0       0       0
       0       0       0       0       0       0       0       0
       0       0       0       0       0       0       0       0
       0       0       0       0       0       0       0       0
       0       0       0       0       0       0       0       0
       0       0       0       0       0       0       0       0
       0       0       0       0       0       0       0       0
       0       0       0       0       0       0       0       0
       0       0       0       0       0       0       0       0
       0       0       0       0       0       0       0       0
       0       0       0       0       0       0       0       0
       0       0       0       0       0       0       0       0
       0       0       0       0       0       0       0       0
       0       0       0       0       0       0       0       0
       0       0       0       0       0       0       0       0
       0       0       0       0       0       0       0       0
       0       0       0       0       0       0       0       0
       0       0       0       0       0       0       0       0
       0       0       0       0       0       0       0       0
       0       0       0       0       0       0       0       0
       0       0       0       0       0       0       0       0
       0       0       0       0       0       0       0       0
       0       0       0       0       0       0       0       0
       0       0       0       0       0       0       0       0
       0       0       0       0       0       0       0       0
       0       0       0       0       0       0       0       0
       0       0       0       0       0       0       0       0
       0       0       0       0       0       0       0       0
       0       0       0       0       0       0       0       0
       0       0       0       0       0       0       0       0
       0       0       0       0       0       0       0       0
       0       0       0       0       0       0       0       0
       0       0       0       0       0       0       0       0
       0       0       0       0       0       0       0       0
       0       0       0       0       0       0       0       0
       0       0       0       0       0       0       0       0
       0       0       0       0       0       0       0       0
       0       0       0       0       0       0       0       0
       0       0       0       0       0       0       0       0
       0       0       0       0       0       0       0       0
       0       0       0       0       0       0       0       0
       0       0       0       0       0       0       0       0
       0       0       0       0       0       0       0       0
       0       0       0       0       0       0       0       0
       0       0       0       0       0       0       0       0
       0       0       0       0       0       0       0       0
       0       0       0       0       0       0       0       0
       0       0       0       0       0       0       0       0
       0       0       0       0       0       0       0       0
       0       0       0       0       0       0       0       0
       0       0       0       0       0       0       0       0
       0       0       0       0       0       0       0       0
       0       0       0       0       0       0       0       0
       0       0       0       0       0       0       0       0
       0       0       0       0       0       0       0       0
       0       0       0       0       0       0       0       0
       0       0       0       0       0       0       0       0
       0       0       0       0       0       0       0       0
       0       0       0       0       0       0       0       0
       0       0       0       0       0       0       0       0
       0       0       0       0       0       0       0       0
       0       0       0       0       0       0       0       0
       0       0       0       0       0       0       0       0
       0       0       0       0       0       0       0       0
       0       0       0       0       0       0       0       0
       0       0       0       0       0       0       0       0
       0       0       0       0       0       0       0       0
       0       0       0       0       0       0       0       0
       0       0       0       0       0       0       0       0
       0       0       0       0       0       0       0       0
       0       0       0       0       0       0       0       0
       0       0       0       0       0       0       0       0
       0       0       0       0       0       0       0       0
       0       0       0       0       0       0       0       0
       0       0       0       0       0       0       0       0
       0       0       0       0       0       0       0       0
       0       0       0       0       0       0       0       0
       0       0       0       0       0       0       0       0
       0       0       0       0       0       0       0       0
       0       0       0       0       0       0       0       0
       0       0       0       0       0       0       0       0
       0       0       0       0       0       0       0       0
       0       0       0       0       0       0       0       0
       0       0       0       0       0       0       0       0
       0       0       0       0       0       0       0       0
       0       0       0       0       0       0       0       0
       0       0       0       0       0       0       0       0
       0       0       0       0       0       0       0       0
       0       0       0       0       0       0       0       0
       0       0       0       0       0       0       0       0
       0       0       0       0       0       0       0       0
       0       0       0       0       0       0       0       0
       0       0       0       0       0       0       0       0
       0       0       0       0       0       0       0       0
       0       0       0       0       0       0       0       0
       0       0       0       0       0       0       0       0
       0       0       0       0       0       0       0       0
       0       0       0       0       0       0       0       0
       0       0       0       0       0       0       0       0
       0       0       0       0       0       0       0       0
       0       0       0       0       0       0       0       0
       0       0       0       0       0       0       0       0
       0       0       0       0       0       0       0       0
       0       0       0       0       0       0       0       0
       0       0       0       0       0       0       0       0
       0       0       0       0       0       0       0       0
       0       0       0       0       0       0       0       0
       0       0       0       0       0       0       0       0
       0       0       0       0       0       0       0       0
       0       0       0       0       0       0       0       0
       0       0       0       0       0       0       0       0
       0       0       0       0       0       0       0       0
       0       0       0       0       0       0       0       0
       0       0       0       0       0       0       0       0
       0       0       0       0       0       0       0       0
       0       0       0       0       0       0       0       0
       0       0       0       0       0       0       0       0
       0       0       0       0       0       0       0       0
       0       0       0       0       0       0       0       0
       0       0       0       0       0       0       0       0
       0       0       0       0       0       0       0       0
       0       0       0       0       0       0       0       0
       0       0       0       0       0       0       0       0
       0       0       0       0       0       0       0       0
       0       0       0       0       0       0       0       0
       0       0       0       0       0       0       0       0
       0       0       0       0       0       0       0       0
       0       0       0       0       0       0       0       0
       0       0       0       0       0       0       0       0
       0       0       0       0       0       0       0       0
       0       0       0       0       0       0       0       0
       0       0       0       0       0       0       0       0
       0       0       0       0       0       0       0       0
       0       0       0       0       0       0       0       0
       0       0       0       0       0       0       0       0
       0       0       0       0       0       0       0       0
       0       0       0       0       0       0       0       0
       0       0       0       0       0       0       0       0
       0       0       0       0       0       0       0       0
       0       0       0       0       0       0       0       0
       0       0       0       0       0       0       0       0
       0       0       0       0       0       0       0       0
       0       0       0       0       0       0       0       0
       0       0       0       0       0       0       0       0
       0       0       0       0       0       0       0       0
       0       0       0       0       0       0       0       0
       0       0       0       0       0       0       0       0
       0       0       0       0       0       0       0       0
       0       0       0       0       0       0       0       0
       0       0       0       0       0       0       0       0
       0       0       0       0       0       0       0       0
       0       0       0       0       0       0       0       0
       0       0       0       0       0       0       0       0
       0       0       0       0       0       0       0       0
       0       0       0       0       0       0       0       0
       0       0       0       0       0       0       0       0
       0       0       0       0       0       0       0       0
       0       0       0       0       0       0       0       0
       0       0       0       0       0       0       0       0
       0       0       0       0       0       0       0       0
       0       0       0       0       0       0       0       0
       0       0       0       0       0       0       0       0
       0       0       0       0       0       0       0       0
       0       0       0       0       0       0       0       0
       0       0       0       0       0       0       0       0
       0       0       0       0       0       0       0       0
       0       0       0       0       0       0       0       0
       0       0       0       0       0       0       0       0
       0       0       0       0       0       0       0       0
       0       0       0       0       0       0       0       0
       0       0       0       0       0       0       0       0
       0       0       0       0       0       0       0       0
       0       0       0       0       0       0       0       0
       0       0       0       0       0       0       0       0
       0       0       0       0       0       0       0       0
       0       0       0       0       0       0       0       0
       0       0       0       0       0       0       0       0
       0       0       0       0       0       0       0       0
       0       0       0       0       0       0       0       0
       0       0       0       0       0       0       0       0
       0       0       0       0       0       0       0       0
       0       0       0       0       0       0       0       0
       0       0       0       0       0       0       0       0
       0       0       0       0       0       0       0       0
       0       0       0       0       0       0       0       0
       0       0       0       0       0       0       0       0
       0       0       0       0       0       0       0       0
       0       0       0       0       0       0       0       0
       0       0       0       0       0       0       0       0
       0       0       0       0       0       0       0       0
       0       0       0       0       0       0       0       0
       0       0       0       0       0       0       0       0
       0       0       0       0       0       0       0       0
       0       0       0       0       0       0       0       0
       0       0       0       0       0       0       0       0
       0       0       0       0       0       0       0       0
       0       0       0       0       0       0       0       0
       0       0       0       0       0       0       0       0
       0       0       0       0       0       0       0       0
       0       0       0       0       0       0       0       0
       0       0       0       0       0       0       0       0
       0       0       0       0       0       0       0       0
       0       0       0       0       0       0       0       0
       0       0       0       0       0       0       0       0
       0       0       0       0       0       0       0       0
       0       0       0       0       0       0       0       0
       0       0       0       0       0       0       0       0
       0       0       0       0       0       0       0       0
       0       0       0       0       0       0       0       0
       0       0       0       0       0       0       0       0
       0       0       0       0       0       0       0       0
       0       0       0       0       0       0       0       0
       0       0       0       0       0       0       0       0
       0       0       0       0       0       0       0       0
       0       0       0       0       0       0       0       0
       0       0       0       0       0       0       0       0
       0       0       0       0       0       0       0       0
       0       0       0       0       0       0       0       0
       0       0       0       0       0       0       0       0
       0       0       0       0       0       0       0       0
       0       0       0       0       0       0       0       0
       0       0       0       0       0       0       0       0
       0       0       0       0       0       0       0       0
       0       0       0       0       0       0       0       0
       0       0       0       0       0       0       0       0
       0       0       0       0       0       0       0       0
       0       0       0       0       0       0       0       0
       0       0       0       0       0       0       0       0
       0       0       0       0       0       0       0       0
       0       0       0       0       0       0       0       0
       0       0       0       0       0       0       0       0
       0       0       0       0       0       0       0       0
       0       0       0       0       0       0       0       0
       0       0       0       0       0       0       0       0
       0       0       0       0       0       0       0       0
       0       0       0       0       0       0       0       0
       0       0       0       0       0       0       0       0
       0       0       0       0       0       0       0       0
       0       0       0       0       0       0       0       0
       0       0       0       0       0       0       0       0
       0       0       0       0       0       0       0       0
       0       0       0       0       0       0       0       0
       0       0       0       0       0       0       0       0
       0       0       0       0       0       0       0       0
       0       0       0       0       0       0       0       0
       0       0       0       0       0       0       0       0
       0       0       0       0       0       0       0       0
       0       0       0       0       0       0       0       0
       0       0       0       0       0       0       0       0
       0       0       0       0       0       0       0       0
       0       0       0       0       0       0       0       0
       0       0       0       0       0       0       0       0
       0       0       0       0       0       0       0       0
       0       0       0       0       0       0       0       0
       0       0       0       0       0       0       0       0
       0       0       0       0       0       0       0       0
       0       0       0       0       0       0       0       0
       0       0       0       0       0       0       0       0
       0       0       0       0       0       0       0       0
       0       0       0       0       0       0       0       0
       0       0       0       0       0       0       0       0
       0       0       0       0       0       0       0       0
       0       0       0       0       0       0       0       0
       0       0       0       0       0       0       0       0
       0       0       0       0       0       0       0       0
       0       0       0       0       0       0       0       0
       0       0       0       0       0       0       0       0
       0       0       0       0       0       0       0       0
       0       0       0       0       0       0       0       0
       0       0       0       0       0       0       0       0
       0       0       0       0       0       0       0       0
       0       0       0       0       0       0       0       0
       0       0       0       0       0       0       0       0
       0       0       0       0       0       0       0       0
       0       0       0       0       0       0       0       0
       0       0       0       0       0       0       0       0
       0       0       0       0       0       0       0       0
       0       0       0       0       0       0       0       0
       0       0       0       0       0       0       0       0
       0       0       0       0       0       0       0       0
       0       0       0       0       0       0       0       0
       0       0       0       0       0       0       0       0
       0       0       0       0       0       0       0       0
       0       0       0       0       0       0       0       0
       0       0       0       0       0       0       0       0
       0       0       0       0       0       0       0       0
       0       0       0       0       0       0       0       0
       0       0       0       0       0       0       0       0
       0       0       0       0       0       0       0       0
       0       0       0       0       0       0       0       0
       0       0       0       0       0       0       0       0
       0       0       0       0       0       0       0       0
       0       0       0       0       0       0       0       0
       0       0       0       0       0       0       0       0
       0       0       0       0       0       0       0       0
       0       0       0       0       0       0       0       0
       0       0       0       0       0       0       0       0
       0       0       0       0       0       0       0       0
       0       0       0       0       0       0       0       0
       0       0       0       0       0       0       0       0
       0       0       0       0       0       0       0       0
       0       0       0       0       0       0       0       0
       0       0       0       0       0       0       0       0
       0       0       0       0       0       0       0       0
       0       0       0       0       0       0       0       0
       0       0       0       0       0       0       0       0
       0       0       0       0       0       0       0       0
       0       0       0       0       0       0       0       0
       0       0       0       0       0       0       0       0
       0       0       0       0       0       0       0       0
       0       0       0       0       0       0       0       0
       0       0       0       0       0       0       0       0
       0       0       0       0       0       0       0       0
       0       0       0       0       0       0       0       0
       0       0       0       0       0       0       0       0
       0       0       0       0       0       0       0       0
       0       0       0       0       0       0       0       0
       0       0       0       0       0       0       0       0
       0       0       0       0       0       0       0       0
       0       0       0       0       0       0       0       0
       0       0       0       0       0       0       0       0
       0       0       0       0       0       0       0       0
       0       0       0       0       0       0       0       0
       0       0       0       0       0       0       0       0
       0       0       0       0       0       0       0       0
       0       0       0       0       0       0       0       0
       0       0       0       0       0       0       0       0
       0       0       0       0       0       0       0       0
       0       0       0       0       0       0       0       0
       0       0       0       0       0       0       0       0
       0       0       0       0       0       0       0       0
       0       0       0       0       0       0       0       0
       0       0       0       0       0       0       0       0
       0       0       0       0       0       0       0       0
       0       0       0       0       0       0       0       0
       0       0       0       0       0       0       0       0
       0       0       0       0       0       0       0       0
       0       0       0       0       0       0       0       0
       0       0       0       0       0       0       0       0
       0       0       0       0       0       0       0       0
       0       0       0       0       0       0       0       0
       0       0       0       0       0       0       0       0
       0       0       0       0       0       0       0       0
       0       0       0       0       0       0       0       0
       0       0       0       0       0       0       0       0
       0       0       0       0       0       0       0       0
       0       0       0       0       0       0       0       0
       0       0       0       0       0       0       0       0
       0       0       0       0       0       0       0       0
       0       0       0       0       0       0       0       0
       0       0       0       0       0       0       0       0
       0       0       0       0       0       0       0       0
       0       0       0       0       0       0       0       0
       0       0       0       0       0       0       0       0
       0       0       0       0       0       0       0       0
       0       0       0       0       0       0       0       0
       0       0       0       0       0       0       0       0
       0       0       0       0       0       0       0       0
       0       0       0       0       0       0       0       0
       0       0       0       0       0       0       0       0
       0       0       0       0       0       0       0       0
       0       0       0       0       0       0       0       0
       0       0       0       0       0       0       0       0
       0       0       0       0       0       0       0       0
       0       0       0       0       0       0       0       0
       0       0       0       0       0       0       0       0
       0       0       0       0       0       0       0       0
       0       0       0       0       0       0       0       0
       0       0       0       0       0       0       0       0
       0       0       0       0       0       0       0       0
       0       0       0       0       0       0       0       0
       0       0       0       0       0       0       0       0
       0       0       0       0       0       0       0       0
       0       0       0       0       0       0       0       0
       0       0       0       0       0       0       0       0
       0       0       0       0       0       0       0       0
       0       0       0       0       0       0       0       0
       0       0       0       0       0       0       0       0
       0       0       0       0       0       0       0       0
       0       0       0       0       0       0       0       0
       0       0       0       0       0       0       0       0
       0       0       0       0       0       0       0       0
       0       0       0       0       0       0       0       0
       0       0       0       0       0       0       0       0
       0       0       0       0       0       0       0       0
       0       0       0       0       0       0       0       0
       0       0       0       0       0       0       0       0
       0       0       0       0       0       0       0       0
       0       0       0       0       0       0       0       0
       0       0       0       0       0       0       0       0
       0       0       0       0       0       0       0       0
       0       0       0       0       0       0       0       0
       0       0       0       0       0       0       0       0
       0       0       0       0       0       0       0       0
       0       0       0       0       0       0       0       0
       0       0       0       0       0       0       0       0
       0       0       0       0       0       0       0       0
       0       0       0       0       0       0       0       0
       0       0       0       0       0       0       0       0
       0       0       0       0       0       0       0       0
       0       0       0       0       0       0       0       0
       0       0       0       0       0       0       0       0
       0       0       0       0       0       0       0       0
       0       0       0       0       0       0       0       0
       0       0       0       0       0       0       0       0
       0       0       0       0       0       0       0       0
       0       0       0       0       0       0       0       0
       0       0       0       0       0       0       0       0
       0       0       0       0       0       0       0       0
       0       0       0       0       0       0       0       0
       0       0       0       0       0       0       0       0
       0       0       0       0       0       0       0       0
       0       0       0       0       0       0       0       0
       0       0       0       0       0       0       0       0
       0       0       0       0       0       0       0       0
       0       0       0       0       0       0       0       0
       0       0       0       0       0       0       0       0
       0       0       0       0       0       0       0       0
       0       0       0       0       0       0       0       0
       0       0       0       0       0       0       0       0
       0       0       0       0       0       0       0       0
       0       0       0       0       0       0       0       0
       0       0       0       0       0       0       0       0
       0       0       0       0       0       0       0       0
       0       0       0       0       0       0       0       0
       0       0       0       0       0       0       0       0
       0       0       0       0       0       0       0       0
       0       0       0       0       0       0       0       0
       0       0       0       0       0       0       0       0
       0       0       0       0       0       0       0       0
       0       0       0       0       0       0       0       0
       0       0       0       0       0       0       0       0
       0       0       0       0       0       0       0       0
       0       0       0       0       0       0       0       0
       0       0       0       0       0       0       0       0
       0       0       0       0       0       0       0       0
       0       0       0       0       0       0       0       0
       0       0       0       0       0       0       0       0
       0       0       0       0       0       0       0       0
       0       0       0       0       0       0       0       0
       0       0       0       0       0       0       0       0
       0       0       0       0       0       0       0       0
       0       0       0       0       0       0       0       0
       0       0       0       0       0       0       0       0
       0       0       0       0       0       0       0       0
       0       0       0       0       0       0       0       0
       0       0       0       0       0       0       0       0
       0       0       0       0       0       0       0       0
       0       0       0       0       0       0       0       0
       0       0       0       0       0       0       0       0
       0       0       0       0       0       0       0       0
       0       0       0       0       0       0       0       0
       0       0       0       0       0       0       0       0
       0       0       0       0       0       0       0       0
       0       0       0       0       0       0       0       0
       0       0       0       0       0       0       0       0
       0       0       0       0       0       0       0       0
       0       0       0       0       0       0       0       0
       0       0       0       0       0       0       0       0
       0       0       0       0       0       0       0       0
       0       0       0       0       0       0       0       0
       0       0       0       0       0       0       0       0
       0       0       0       0       0       0       0       0
       0       0       0       0       0       0       0       0
       0       0       0       0       0       0       0       0
       0       0       0       0       0       0       0       0
       0       0       0       0       0       0       0       0
       0       0       0       0       0       0       0       0
       0       0       0       0       0       0       0       0
       0       0       0       0       0       0       0       0
       0       0       0       0       0       0       0       0
       0       0       0       0       0       0       0       0
       0       0       0       0       0       0       0       0
       0       0       0       0       0       0       0       0
       0       0       0       0       0       0       0       0
       0       0       0       0       0       0       0       0
       0       0       0       0       0       0       0       0
       0       0       0       0       0       0       0       0
       0       0       0       0       0       0       0       0
       0       0       0       0       0       0       0       0
       0       0       0       0       0       0       0       0
       0       0       0       0       0       0       0       0
       0       0       0       0       0       0       0       0
       0       0       0       0       0       0       0       0
       0       0       0       0       0       0       0       0
       0       0       0       0       0       0       0       0
       0       0       0       0       0       0       0       0
       0       0       0       0       0       0       0       0
       0       0       0       0       0       0       0       0
       0       0       0       0       0       0       0       0
       0       0       0       0       0       0       0       0
       0       0       0       0       0       0       0       0
       0       0       0       0       0       0       0       0
       0       0       0       0       0       0       0       0
       0       0       0       0       0       0       0       0
       0       0       0       0       0       0       0       0
       0       0       0       0       0       0       0       0
       0       0       0       0       0       0       0       0
       0       0       0       0       0       0       0       0
       0       0       0       0       0       0       0       0
       0       0       0       0       0       0       0       0
       0       0       0       0       0       0       0       0
       0       0       0       0       0       0       0       0
       0       0       0       0       0       0       0       0
       0       0       0       0       0       0       0       0
       0       0       0       0       0       0       0       0
       0       0       0       0       0       0       0       0
       0       0       0       0       0       0       0       0
       0       0       0       0       0       0       0       0
       0       0       0       0       0       0       0       0
       0       0       0       0       0       0       0       0
       0       0       0       0       0       0       0       0
       0       0       0       0       0       0       0       0
       0       0       0       0       0       0       0       0
       0       0       0       0       0       0       0       0
       0       0       0       0       0       0       0       0
       0       0       0       0       0       0       0       0
       0       0       0       0       0       0       0       0
       0       0       0       0       0       0       0       0
       0       0       0       0       0       0       0       0
       0       0       0       0       0       0       0       0
       0       0       0       0       0       0       0       0
       0       0       0       0       0       0       0       0
       0       0       0       0       0       0       0       0
       0       0       0       0       0       0       0       0
       0       0       0       0       0       0       0       0
       0       0       0       0       0       0       0       0
       0       0       0       0       0       0       0       0
       0       0       0       0       0       0       0       0
       0       0       0       0       0       0       0       0
       0       0       0       0       0       0       0       0
       0       0       0       0       0       0       0       0
       0       0       0       0       0       0       0       0
       0       0       0       0       0       0       0       0
       0       0       0       0       0       0       0       0
       0       0       0       0       0       0       0       0
       0       0       0       0       0       0       0       0
       0       0       0       0       0       0       0       0
       0       0       0       0       0       0       0       0
       0       0       0       0       0       0       0       0
       0       0       0       0       0       0       0       0
       0       0       0       0       0       0       0       0
       0       0       0       0       0       0       0       0
       0       0       0       0       0       0       0       0
       0       0       0       0       0       0       0       0
       0       0       0       0       0       0       0       0
       0       0       0       0       0       0       0       0
       0       0       0       0       0       0       0       0
       0       0       0       0       0       0       0       0
       0       0       0       0       0       0       0       0
       0       0       0       0       0       0       0       0
       0       0       0       0       0       0       0       0
       0       0       0       0       0       0       0       0
       0       0       0       0       0       0       0       0
       0       0       0       0       0       0       0       0
       0       0       0       0       0       0       0       0
       0       0       0       0       0       0       0       0
       0       0       0       0       0       0       0       0
       0       0       0       0       0       0       0       0
       0       0       0       0       0       0       0       0
       0       0       0       0       0       0       0       0
       0       0       0       0       0       0       0       0
       0       0       0       0       0       0       0       0
       0       0       0       0       0       0       0       0
       0       0       0       0       0       0       0       0
       0       0       0       0       0       0       0       0
       0       0       0       0       0       0       0       0
       0       0       0       0       0       0       0       0
       0       0       0       0       0       0       0       0
       0       0       0       0       0       0       0       0
       0       0       0       0       0       0       0       0
       0       0       0       0       0       0       0       0
       0       0       0       0       0       0       0       0
       0       0       0       0       0       0       0       0
       0       0       0       0       0       0       0       0
       0       0       0       0       0       0       0       0
       0       0       0       0       0       0       0       0
       0       0       0       0       0       0       0       0
       0       0       0       0       0       0       0       0
       0       0       0       0       0       0       0       0
       0       0       0       0       0       0       0       0
       0       0       0       0       0       0       0       0
       0       0       0       0       0       0       0       0
       0       0       0       0       0       0       0       0
       0       0       0       0       0       0       0       0
       0       0       0       0       0       0       0       0
       0       0       0       0       0       0       0       0
       0       0       0       0       0       0       0       0
       0       0       0       0       0       0       0       0
       0       0       0       0       0       0       0       0
       0       0       0       0       0       0       0       0
       0       0       0       0       0       0       0       0
       0       0       0       0       0       0       0       0
       0       0       0       0       0       0       0       0
       0       0       0       0       0       0       0       0
       0       0       0       0       0       0       0       0
       0       0       0       0       0       0       0       0
       0       0       0       0       0       0       0       0
       0       0       0       0       0       0       0       0
       0       0       0       0       0       0       0       0
       0       0       0       0       0       0       0       0
       0       0       0       0       0       0       0       0
       0       0       0       0       0       0       0       0
       0       0       0       0       0       0       0       0
       0       0       0       0       0       0       0       0
       0       0       0       0       0       0       0       0
       0       0       0       0       0       0       0       0
       0       0       0       0       0       0       0       0
       0       0       0       0       0       0       0       0
       0       0       0       0       0       0       0       0
       0       0       0       0       0       0       0       0
       0       0       0       0       0       0       0       0
       0       0       0       0       0       0       0       0
       0       0       0       0       0       0       0       0
       0       0       0       0       0       0       0       0
       0       0       0       0       0       0       0       0
       0       0       0       0       0       0       0       0
       0       0       0       0       0       0       0       0
       0       0       0       0       0       0       0       0
       0       0       0       0       0       0       0       0
       0       0       0       0       0       0       0       0
       0       0       0       0       0       0       0       0
       0       0       0       0       0       0       0       0
       0       0       0       0       0       0       0       0
       0       0       0       0       0       0       0       0
       0       0       0       0       0       0       0       0
       0       0       0       0       0       0       0       0
       0       0       0       0       0       0       0       0
       0       0       0       0       0       0       0       0
       0       0       0       0       0       0       0       0
       0       0       0       0       0       0       0       0
       0       0       0       0       0       0       0       0
       0       0       0       0       0       0       0       0
       0       0       0       0       0       0       0       0
       0       0       0       0       0       0       0       0
       0       0       0       0       0       0       0       0
       0       0       0       0       0       0       0       0
       0       0       0       0       0       0       0       0
       0       0       0       0       0       0       0       0
       0       0       0       0       0       0       0       0
       0       0       0       0       0       0       0       0
       0       0       0       0       0       0       0       0
       0       0       0       0       0       0       0       0
       0       0       0       0       0       0       0       0
       0       0       0       0       0       0       0       0
       0       0       0       0       0       0       0       0
       0       0       0       0       0       0       0       0
       0       0       0       0       0       0       0       0
       0       0       0       0       0       0       0       0
       0       0       0       0       0       0       0       0
       0       0       0       0       0       0       0       0
       0       0       0       0       0       0       0       0
       0       0       0       0       0       0       0       0
       0       0       0       0       0       0       0       0
       0       0       0       0       0       0       0       0
       0       0       0       0       0       0       0       0
       0       0       0       0       0       0       0       0
       0       0       0       0       0       0       0       0
       0       0       0       0       0       0       0       0
       0       0       0       0       0       0       0       0
       0       0       0       0       0       0       0       0
       0       0       0       0       0       0       0       0
       0       0       0       0       0       0       0       0
       0       0       0       0       0       0       0       0
       0       0       0       0       0       0       0       0
       0       0       0       0       0       0       0       0
       0       0       0       0       0       0       0       0
       0       0       0       0       0       0       0       0
       0       0       0       0       0       0       0       0
       0       0       0       0       0       0       0       0
       0       0       0       0       0       0       0       0
       0       0       0       0       0       0       0       0
       0       0       0       0       0       0       0       0
       0       0       0       0       0       0       0       0
       0       0       0       0       0       0       0       0
       0       0       0       0       0       0       0       0
       0       0       0       0       0       0       0       0
       0       0       0       0       0       0       0       0
       0       0       0       0       0       0       0       0
       0       0       0       0       0       0       0       0
       0       0       0       0       0       0       0       0
       0       0       0       0       0       0       0       0
       0       0       0       0       0       0       0       0
       0       0       0       0       0       0       0       0
       0       0       0       0       0       0       0       0
       0       0       0       0       0       0       0       0
       0       0       0       0       0       0       0       0
       0       0       0       0       0       0       0       0
       0       0       0       0       0       0       0       0
       0       0       0       0       0       0       0       0
       0       0       0       0       0       0       0       0
       0       0       0       0       0       0       0       0
       0       0       0       0       0       0       0       0
       0       0       0       0       0       0       0       0
       0       0       0       0       0       0       0       0
       0       0       0       0       0       0       0       0
       0       0       0       0       0       0       0       0
       0       0       0       0       0       0       0       0
       0       0       0       0       0       0       0       0
       0       0       0       0       0       0       0       0
       0       0       0       0       0       0       0       0
       0       0       0       0       0       0       0       0
       0       0       0       0       0       0       0       0
       0       0       0       0       0       0       0       0
       0       0       0       0       0       0       0       0
       0       0       0       0       0       0       0       0
       0       0       0       0       0       0       0       0
       0       0       0       0       0       0       0       0
       0       0       0       0       0       0       0       0
       0       0       0       0       0       0       0       0
       0       0       0       0       0       0       0       0
       0       0       0       0       0       0       0       0
       0       0       0       0       0       0       0       0
       0       0       0       0       0       0       0       0
       0       0       0       0       0       0       0       0
       0       0       0       0       0       0       0       0
       0       0       0       0       0       0       0       0
       0       0       0       0       0       0       0       0
       0       0       0       0       0       0       0       0
       0       0       0       0       0       0       0       0
       0       0       0       0       0       0       0       0
       0       0       0       0       0       0       0       0
       0       0       0       0       0       0       0       0
       0       0       0       0       0       0       0       0
       0       0       0       0       0       0       0       0
       0       0       0       0       0       0       0       0
       0       0       0       0       0       0       0       0
       0       0       0       0       0       0       0       0
       0       0       0       0       0       0       0       0
       0       0       0       0       0       0       0       0
       0       0       0       0       0       0       0       0
       0       0       0       0       0       0       0       0
       0       0       0       0       0       0       0       0
       0       0       0       0       0       0       0       0
       0       0       0       0       0       0       0       0
       0       0       0       0       0       0       0       0
       0       0       0       0       0       0       0       0
       0       0       0       0       0       0       0       0
       0       0       0       0       0       0       0       0
       0       0       0       0       0       0       0       0
       0       0       0       0       0       0       0       0
       0       0       0       0       0       0       0       0
       0       0       0       0       0       0       0       0
       0       0       0       0       0       0       0       0
       0       0       0       0       0       0       0       0
       0       0       0       0       0       0       0       0
       0       0       0       0       0       0       0       0
       0       0       0       0       0       0       0       0
       0       0       0       0       0       0       0       0
       0       0       0       0       0       0       0       0
       0       0       0       0       0       0       0       0
       0       0       0       0       0       0       0       0
       0       0       0       0       0       0       0       0
       0       0       0       0       0       0       0       0
       0       0       0       0       0       0       0       0
       0       0       0       0       0       0       0       0
       0       0       0       0       0       0       0       0
       0       0       0       0       0       0       0       0
       0       0       0       0       0       0       0       0
       0       0       0       0       0       0       0       0
       0       0       0       0       0       0       0       0
       0       0       0       0       0       0       0       0
       0       0       0       0       0       0       0       0
       0       0       0       0       0       0       0       0
       0       0       0       0       0       0       0       0
       0       0       0       0       0       0       0       0
       0       0       0       0       0       0       0       0
       0       0       0       0       0       0       0       0
       0       0       0       0       0       0       0       0
       0       0       0       0       0       0       0       0
       0       0       0       0       0       0       0       0
       0       0       0       0       0       0       0       0
       0       0       0       0       0       0       0       0
       0       0       0       0       0       0       0       0
       0       0       0       0       0       0       0       0
       0       0       0       0       0       0       0       0
       0       0       0       0       0       0       0       0
       0       0       0       0       0       0       0       0
       0       0       0       0       0       0       0       0
       0       0       0       0       0       0       0       0
       0       0       0       0       0       0       0       0
       0       0       0       0       0       0       0       0
       0       0       0       0       0       0       0       0
       0       0       0       0       0       0       0       0
       0       0       0       0       0       0       0       0
       0       0       0       0       0       0       0       0
       0       0       0       0       0       0       0       0
       0       0       0       0       0       0       0       0
       0       0       0       0       0       0       0       0
       0       0       0       0       0       0       0       0
       0       0       0       0       0       0       0       0
       0       0       0       0       0       0       0       0
       0       0       0       0       0       0       0       0
       0       0       0       0       0       0       0       0
       0       0       0       0       0       0       0       0
       0       0       0       0       0       0       0       0
       0       0       0       0       0       0       0       0
       0       0       0       0       0       0       0       0
       0       0       0       0       0       0       0       0
       0       0       0       0       0       0       0       0
       0       0       0       0       0       0       0       0
       0       0       0       0       0       0       0       0
       0       0       0       0       0       0       0       0
       0       0       0       0       0       0       0       0
       0       0       0       0       0       0       0       0
       0       0       0       0       0       0       0       0
       0       0       0       0       0       0       0       0
       0       0       0       0       0       0       0       0
       0       0       0       0       0       0       0       0
       0       0       0       0       0       0       0       0
       0       0       0       0       0       0       0       0
       0       0       0       0       0       0       0       0
       0       0       0       0       0       0       0       0
       0       0       0       0       0       0       0       0
       0       0       0       0       0       0       0       0
       0       0       0       0       0       0       0       0
       0       0       0       0       0       0       0       0
       0       0       0       0       0       0       0       0
       0       0       0       0       0       0       0       0
       0       0       0       0       0       0       0       0
       0       0       0       0       0       0       0       0
       0       0       0       0       0       0       0       0
       0       0       0       0       0       0       0       0
       0       0       0       0       0       0       0       0
       0       0       0       0       0       0       0       0
       0       0       0       0       0       0       0       0
       0       0       0       0       0       0       0       0
       0       0       0       0       0       0       0       0
       0       0       0       0       0       0       0       0
       0       0       0       0       0       0       0       0
       0       0       0       0       0       0       0       0
       0       0       0       0       0       0       0       0
       0       0       0       0       0       0       0       0
       0       0       0       0       0       0       0       0
       0       0       0       0       0       0       0       0
       0       0       0       0       0       0       0       0
       0       0       0       0       0       0       0       0
       0       0       0       0       0       0       0       0
       0       0       0       0       0       0       0       0
       0       0       0       0       0       0       0       0
       0       0       0       0       0       0       0       0
       0       0       0       0       0       0       0       0
       0       0       0       0       0       0       0       0
       0       0       0       0       0       0       0       0
       0       0       0       0       0       0       0       0
       0       0       0       0       0       0       0       0
       0       0       0       0       0       0       0       0
       0       0       0       0       0       0       0       0
       0       0       0       0       0       0       0       0
       0       0       0       0       0       0       0       0
       0       0       0       0       0       0       0       0
       0       0       0       0       0       0       0       0
       0       0       0       0       0       0       0       0
       0       0       0       0       0       0       0       0
       0       0       0       0       0       0       0       0
       0       0       0       0       0       0       0       0
       0       0       0       0       0       0       0       0
       0       0       0       0       0       0       0       0
       0       0       0       0       0       0       0       0
       0       0       0       0       0       0       0       0
       0       0       0       0       0       0       0       0
       0       0       0       0       0       0       0       0
       0       0       0       0       0       0       0       0
       0       0       0       0       0       0       0       0
       0       0       0       0       0       0       0       0
       0       0       0       0       0       0       0       0
       0       0       0       0       0       0       0       0
       0       0       0       0       0       0       0       0
       0       0       0       0       0       0       0       0
       0       0       0       0       0       0       0       0
       0       0       0       0       0       0       0       0
       0       0       0       0       0       0       0       0
       0       0       0       0       0       0       0       0
       0       0       0       0       0       0       0       0
       0       0       0       0       0       0       0       0
       0       0       0       0       0       0       0       0
       0       0       0       0       0       0       0       0
       0       0       0       0       0       0       0       0
       0       0       0       0       0       0       0       0
       0       0       0       0       0       0       0       0
       0       0       0       0       0       0       0       0
       0       0       0       0       0       0       0       0
       0       0       0       0       0       0       0       0
       0       0       0       0       0       0       0       0
       0       0       0       0       0       0       0       0
       0       0       0       0       0       0       0       0
       0       0       0       0       0       0       0       0
       0       0       0       0       0       0       0       0
       0       0       0       0       0       0       0       0
       0       0       0       0       0       0       0       0
       0       0       0       0       0       0       0       0
       0       0       0       0       0       0       0       0
       0       0       0       0       0       0       0       0
       0       0       0       0       0       0       0       0
       0       0       0       0       0       0       0       0
       0       0       0       0       0       0       0       0
       0       0       0       0       0       0       0       0
       0       0       0       0       0       0       0       0
       0       0       0       0       0       0       0       0
       0       0       0       0       0       0       0       0
       0       0       0       0       0       0       0       0
       0       0       0       0       0       0       0       0
       0       0       0       0       0       0       0       0
       0       0       0       0       0       0       0       0
       0       0       0       0       0       0       0       0
       0       0       0       0       0       0       0       0
       0       0       0       0       0       0       0       0
       0       0       0       0       0       0       0       0
       0       0       0       0       0       0       0       0
       0       0       0       0       0       0       0       0
       0       0       0       0       0       0       0       0
       0       0       0       0       0       0       0       0
       0       0       0       0       0       0       0       0
       0       0       0       0       0       0       0       0
       0       0       0       0       0       0       0       0
       0       0       0       0       0       0       0       0
       0       0       0       0       0       0       0       0
       0       0       0       0       0       0       0       0
       0       0       0       0       0       0       0       0
       0       0       0       0       0       0       0       0
       0       0       0       0       0       0       0       0
       0       0       0       0       0       0       0       0
       0       0       0       0       0       0       0       0
       0       0       0       0       0       0       0       0
       0       0       0       0       0       0       0       0
       0       0       0       0       0       0       0       0
       0       0       0       0       0       0       0       0
       0       0       0       0       0       0       0       0
       0       0       0       0       0       0       0       0
       0       0       0       0       0       0       0       0
       0       0       0       0       0       0       0       0
       0       0       0       0       0       0       0       0
       0       0       0       0       0       0       0       0
       0       0       0       0       0       0       0       0
       0       0       0       0       0       0       0       0
       0       0       0       0       0       0       0       0
       0       0       0       0       0       0       0       0
       0       0       0       0       0       0       0       0
       0       0       0       0       0       0       0       0
       0       0       0       0       0       0       0       0
       0       0       0       0       0       0       0       0
       0       0       0       0       0       0       0       0
       0       0       0       0       0       0       0       0
       0       0       0       0       0       0       0       0
       0       0       0       0       0       0       0       0
       0       0       0       0       0       0       0       0
       0       0       0       0       0       0       0       0
       0       0       0       0       0       0       0       0
       0       0       0       0       0       0       0       0
       0       0       0       0       0       0       0       0
       0       0       0       0       0       0       0       0
       0       0       0       0       0       0       0       0
       0       0       0       0       0       0       0       0
       0       0       0       0       0       0       0       0
       0       0       0       0       0       0       0       0
       0       0       0       0       0       0       0       0
       0       0       0       0       0       0       0       0
       0       0       0       0       0       0       0       0
       0       0       0       0       0       0       0       0
       0       0       0       0       0       0       0       0
       0       0       0       0       0       0       0       0
       0       0       0       0       0       0       0       0
       0       0       0       0       0       0       0       0
       0       0       0       0       0       0       0       0
       0       0       0       0       0       0       0       0
       0       0       0       0       0       0       0       0
       0       0       0       0       0       0       0       0
       0       0       0       0       0       0       0       0
       0       0       0       0       0       0       0       0
       0       0       0       0       0       0       0       0
       0       0       0       0       0       0       0       0
       0       0       0       0       0       0       0       0
       0       0       0       0       0       0       0       0
       0       0       0       0       0       0       0       0
       0       0       0       0       0       0       0       0
       0       0       0       0       0       0       0       0
       0       0       0       0       0       0       0       0
       0       0       0       0       0       0       0       0
       0       0       0       0       0       0       0       0
       0       0       0       0       0       0       0       0
       0       0       0       0       0       0       0       0
       0       0       0       0       0       0       0       0
       0       0       0       0       0       0       0       0
       0       0       0       0       0       0       0       0
       0       0       0       0       0       0       0       0
       0       0       0       0       0       0       0       0
       0       0       0       0       0       0       0       0
       0       0       0       0       0       0       0       0
       0       0       0       0       0       0       0       0
       0       0       0       0       0       0       0       0
       0       0       0       0       0       0       0       0
       0       0       0       0       0       0       0       0
       0       0       0       0       0       0       0       0
       0       0       0       0       0       0       0       0
       0       0       0       0       0       0       0       0
       0       0       0       0       0       0       0       0
       0       0       0       0       0       0       0       0
       0       0       0       0       0       0       0       0
       0       0       0       0       0       0       0       0
       0       0       0       0       0       0       0       0
       0       0       0       0       0       0       0       0
       0       0       0       0       0       0       0       0
       0       0       0       0       0       0       0       0
       0       0       0       0       0       0       0       0
       0       0       0       0       0       0       0       0
       0       0       0       0       0       0       0       0
       0       0       0       0       0       0       0       0
       0       0       0       0       0       0       0       0
       0       0       0       0       0       0       0       0
       0       0       0       0       0       0       0       0
       0       0       0       0       0       0       0       0
       0       0       0       0       0       0       0       0
       0       0       0       0       0       0       0       0
       0       0       0       0       0       0       0       0
       0       0       0       0       0       0       0       0
       0       0       0       0       0       0       0       0
       0       0       0       0       0       0       0       0
       0       0       0       0       0       0       0       0
       0       0       0       0       0       0       0       0
       0       0       0       0       0       0       0       0
       0       0       0       0       0       0       0       0
       0       0       0       0       0       0       0       0
       0       0       0       0       0       0       0       0
       0       0       0       0       0       0       0       0
       0       0       0       0       0       0       0       0
       0       0       0       0       0       0       0       0
       0       0       0       0       0       0       0       0
       0       0       0       0       0       0       0       0
       0       0       0       0       0       0       0       0
       0       0       0       0       0       0       0       0
       0       0       0       0       0       0       0       0
       0       0       0       0       0       0       0       0
       0       0       0       0       0       0       0       0
       0       0       0       0       0       0       0       0
       0       0       0       0       0       0       0       0
       0       0       0       0       0       0       0       0
       0       0       0       0       0       0       0       0
       0       0       0       0       0       0       0       0
       0       0       0       0       0       0       0       0
       0       0       0       0       0       0       0       0
       0       0       0       0       0       0       0       0
       0       0       0       0       0       0       0       0
       0       0       0       0       0       0       0       0
       0       0       0       0       0       0       0       0
       0       0       0       0       0       0       0       0
       0       0       0       0       0       0       0       0
       0       0       0       0       0       0       0       0
       0       0       0       0       0       0       0       0
       0       0       0       0       0       0       0       0
       0       0       0       0       0       0       0       0
       0       0       0       0       0       0       0       0
       0       0       0       0       0       0       0       0
       0       0       0       0       0       0       0       0
       0       0       0       0       0       0       0       0
       0       0       0       0       0       0       0       0
       0       0       0       0       0       0       0       0
       0       0       0       0       0       0       0       0
       0       0       0       0       0       0       0       0
       0       0       0       0       0       0       0       0
       0       0       0       0       0       0       0       0
       0       0       0       0       0       0       0       0
       0       0       0       0       0       0       0       0
       0       0       0       0       0       0       0       0
       0       0       0       0       0       0       0       0
       0       0       0       0       0       0       0       0
       0       0       0       0       0       0       0       0
       0       0       0       0       0       0       0       0
       0       0       0       0       0       0       0       0
       0       0       0       0       0       0       0       0
       0       0       0       0       0       0       0       0
       0       0       0       0       0       0       0       0
       0       0       0       0       0       0       0       0
       0       0       0       0       0       0       0       0
       0       0       0       0       0       0       0       0
       0       0       0       0       0       0       0       0
       0       0       0       0       0       0       0       0
       0       0       0       0       0       0       0       0
       0       0       0       0       0       0       0       0
       0       0       0       0       0       0       0       0
       0       0       0       0       0       0       0       0
       0       0       0       0       0       0       0       0
       0       0       0       0       0       0       0       0
       0       0       0       0       0       0       0       0
       0       0       0       0       0       0       0       0
       0       0       0       0       0       0       0       0
       0       0       0       0       0       0       0       0
       0       0       0       0       0       0       0       0
       0       0       0       0       0       0       0       0
       0       0       0       0       0       0       0       0
       0       0       0       0       0       0       0       0
       0       0       0       0       0       0       0       0
       0       0       0       0       0       0       0       0
       0       0       0       0       0       0       0       0
       0       0       0       0       0       0       0       0
       0       0       0       0       0       0       0       0
       0       0       0       0       0       0       0       0
       0       0       0       0       0       0       0       0
       0       0       0       0       0       0       0       0
       0       0       0       0       0       0       0       0
       0       0       0       0       0       0       0       0
       0       0       0       0       0       0       0       0
       0       0       0       0       0       0       0       0
       0       0       0       0       0       0       0       0
       0       0       0       0       0       0       0       0
       0       0       0       0       0       0       0       0
       0       0       0       0       0       0       0       0
       0       0       0       0       0       0       0       0
       0       0       0       0       0       0       0       0
       0       0       0       0       0       0       0       0
       0       0       0       0       0       0       0       0
       0       0       0       0       0       0       0       0
       0       0       0       0       0       0       0       0
       0       0       0       0       0       0       0       0
       0       0       0       0       0       0       0       0
       0       0       0       0       0       0       0       0
       0       0       0       0       0       0       0       0
       0       0       0       0       0       0       0       0
       0       0       0       0       0       0       0       0
       0       0       0       0       0       0       0       0
       0       0       0       0       0       0       0       0
       0       0       0       0       0       0       0       0
       0       0       0       0       0       0       0       0
       0       0       0       0       0       0       0       0
       0       0       0       0       0       0       0       0
       0       0       0       0       0       0       0       0
       0       0       0       0       0       0       0       0
       0       0       0       0       0       0       0       0
       0       0       0       0       0       0       0       0
       0       0       0       0       0       0       0       0
       0       0       0       0       0       0       0       0
       0       0       0       0       0       0       0       0
       0       0       0       0       0       0       0       0
       0       0       0       0       0       0       0       0
       0       0       0       0       0       0       0       0
       0       0       0       0       0       0       0       0
       0       0       0       0       0       0       0       0
       0       0       0       0       0       0       0       0
       0       0       0       0       0       0       0       0
       0       0       0       0       0       0       0       0
       0       0       0       0       0       0       0       0
       0       0       0       0       0       0       0       0
       0       0       0       0       0       0       0       0
       0       0       0       0       0       0       0       0
       0       0       0       0       0       0       0       0
       0       0       0       0       0       0       0       0
       0       0       0       0       0       0       0       0
       0       0       0       0       0       0       0       0
       0       0       0       0       0       0       0       0
       0       0       0       0       0       0       0       0
       0       0       0       0       0       0       0       0
       0       0       0       0       0       0       0       0
       0       0       0       0       0       0       0       0
       0       0       0       0       0       0       0       0
       0       0       0       0       0       0       0       0
       0       0       0       0       0       0       0       0
       0       0       0       0       0       0       0       0
       0       0       0       0       0       0       0       0
       0       0       0       0       0       0       0       0
       0       0       0       0       0       0       0       0
       0       0       0       0       0       0       0       0
       0       0       0       0       0       0       0       0
       0       0       0       0       0       0       0       0
       0       0       0       0       0       0       0       0
       0       0       0       0       0       0       0       0
       0       0       0       0       0       0       0       0
       0       0       0       0       0       0       0       0
       0       0       0       0       0       0       0       0
       0       0       0       0       0       0       0       0
       0       0       0       0       0       0       0       0
       0       0       0       0       0       0       0       0
       0       0       0       0       0       0       0       0
       0       0       0       0       0       0       0       0
       0       0       0       0       0       0       0       0
       0       0       0       0       0       0       0       0
       0       0       0       0       0       0       0       0
       0       0       0       0       0       0       0       0
       0       0       0       0       0       0       0       0
       0       0       0       0       0       0       0       0
       0       0       0       0       0       0       0       0
       0       0       0       0       0       0       0       0
       0       0       0       0       0       0       0       0
       0       0       0       0       0       0       0       0
       0       0       0       0       0       0       0       0
       0       0       0       0       0       0       0       0
       0       0       0       0       0       0       0       0
       0       0       0       0       0       0       0       0
       0       0       0       0       0       0       0       0
       0       0       0       0       0       0       0       0
       0       0       0       0       0       0       0       0
       0       0       0       0       0       0       0       0
       0       0       0       0       0       0       0       0
       0       0       0       0       0       0       0       0
       0       0       0       0       0       0       0       0
       0       0       0       0       0       0       0       0
       0       0       0       0       0       0       0       0
       0       0       0       0       0       0       0       0
       0       0       0       0       0       0       0       0
       0       0       0       0       0       0       0       0
       0       0       0       0       0       0       0       0
       0       0       0       0       0       0       0       0
       0       0       0       0       0       0       0       0
       0       0       0       0       0       0       0       0
       0       0       0       0       0       0       0       0
       0       0       0       0       0       0       0       0
       0       0       0       0       0       0       0       0
       0       0       0       0       0       0       0       0
       0       0       0       0       0       0       0       0
       0       0       0       0       0       0       0       0
       0       0       0       0       0       0       0       0
       0       0       0       0       0       0       0       0
       0       0       0       0       0       0       0       0
       0       0       0       0       0       0       0       0
       0       0       0       0       0       0       0       0
       0       0       0       0       0       0       0       0
       0       0       0       0       0       0       0       0
       0       0       0       0       0       0       0       0
       0       0       0       0       0       0       0       0
       0       0       0       0       0       0       0       0
       0       0       0       0       0       0       0       0
       0       0       0       0       0       0       0       0
       0       0       0       0       0       0       0       0
       0       0       0       0       0       0       0       0
       0       0       0       0       0       0       0       0
       0       0       0       0       0       0       0       0
       0       0       0       0       0       0       0       0
       0       0       0       0       0       0       0       0
       0       0       0       0       0       0       0       0
       0       0       0       0       0       0       0       0
       0       0       0       0       0       0       0       0
       0       0       0       0       0       0       0       0
       0       0       0       0       0       0       0       0
       0       0       0       0       0       0       0       0
       0       0       0       0       0       0       0       0
       0       0       0       0       0       0       0       0
       0       0       0       0       0       0       0       0
       0       0       0       0       0       0       0       0
       0       0       0       0       0       0       0       0
       0       0       0       0       0       0       0       0
       0       0       0       0       0       0       0       0
       0       0       0       0       0       0       0       0
       0       0       0       0       0       0       0       0
       0       0       0       0       0       0       0       0
       0       0       0       0       0       0       0       0
       0       0       0       0       0       0       0       0
       0       0       0       0       0       0       0       0
       0       0       0       0       0       0       0       0
       0       0       0       0       0       0       0       0
       0       0       0       0       0       0       0       0
       0       0       0       0       0       0       0       0
       0       0       0       0       0       0       0       0
       0       0       0       0       0       0       0       0
       0       0       0       0       0       0       0       0
       0       0       0       0       0       0       0       0
       0       0       0       0       0       0       0       0
       0       0       0       0       0       0       0       0
       0       0       0       0       0       0       0       0
       0       0       0       0       0       0       0       0
       0       0       0       0       0       0       0       0
       0       0       0       0       0       0       0       0
       0       0       0       0       0       0       0       0
       0       0       0       0       0       0       0       0
       0       0       0       0       0       0       0       0
       0       0       0       0       0       0       0       0
       0       0       0       0       0       0       0       0
       0       0       0       0       0       0       0       0
       0       0       0       0       0       0       0       0
       0       0       0       0       0       0       0       0
       0       0       0       0       0       0       0       0
       0       0       0       0       0       0       0       0
       0       0       0       0       0       0       0       0
       0       0       0       0       0       0       0       0
       0       0       0       0       0       0       0       0
       0       0       0       0       0       0       0       0
       0       0       0       0       0       0       0       0
       0       0       0       0       0       0       0       0
       0       0       0       0       0       0       0       0
       0       0       0       0       0       0       0       0
       0       0       0       0       0       0       0       0
       0       0       0       0       0       0       0       0
       0       0       0       0       0       0       0       0
       0       0       0       0       0       0       0       0
       0       0       0       0       0       0       0       0
       0       0       0       0       0       0       0       0
       0       0       0       0       0       0       0       0
       0       0       0       0       0       0       0       0
       0       0       0       0       0       0       0       0
       0       0       0       0       0       0       0       0
       0       0       0       0       0       0       0       0
       0       0       0       0       0       0       0       0
       0       0       0       0       0       0       0       0
       0       0       0       0       0       0       0       0
       0       0       0       0       0       0       0       0
       0       0       0       0       0       0       0       0
       0       0       0       0       0       0       0       0
       0       0       0       0       0       0       0       0
       0       0       0       0       0       0       0       0
       0       0       0       0       0       0       0       0
       0       0       0       0       0       0       0       0
       0       0       0       0       0       0       0       0
       0       0       0       0       0       0       0       0
       0       0       0       0       0       0       0       0
       0       0       0       0       0       0       0       0
       0       0       0       0       0       0       0       0
       0       0       0       0       0       0       0       0
       0       0       0       0       0       0       0       0
       0       0       0       0       0       0       0       0
       0       0       0       0       0       0       0       0
       0       0       0       0       0       0       0       0
       0       0       0       0       0       0       0       0
       0       0       0       0       0       0       0       0
       0       0       0       0       0       0       0       0
       0       0       0       0       0       0       0       0
       0       0       0       0       0       0       0       0
       0       0       0       0       0       0       0       0
       0       0       0       0       0       0       0       0
       0       0       0       0       0       0       0       0
       0       0       0       0       0       0       0       0
       0       0       0       0       0       0       0       0
       0       0       0       0       0       0       0       0
       0       0       0       0       0       0       0       0
       0       0       0       0       0       0       0       0
       0       0       0       0       0       0       0       0
       0       0       0       0       0       0       0       0
       0       0       0       0       0       0       0       0
       0       0       0       0       0       0       0       0
       0       0       0       0       0       0       0       0
       0       0       0       0       0       0       0       0
       0       0       0       0       0       0       0       0
       0       0       0       0       0       0       0       0
       0       0       0       0       0       0       0       0
       0       0       0       0       0       0       0       0
       0       0       0       0       0       0       0       0
       0       0       0       0       0       0       0       0
       0       0       0       0       0       0       0       0
       0       0       0       0       0       0       0       0
       0       0       0       0       0       0       0       0
       0       0       0       0       0       0       0       0
       0       0       0       0       0       0       0       0
       0       0       0       0       0       0       0       0
       0       0       0       0       0       0       0       0
       0       0       0       0       0       0       0       0
       0       0       0       0       0       0       0       0
       0       0       0       0       0       0       0       0
       0       0       0       0       0       0       0       0
       0       0       0       0       0       0       0       0
       0       0       0       0       0       0       0       0
       0       0       0       0       0       0       0       0
       0       0       0       0       0       0       0       0
       0       0       0       0       0       0       0       0
       0       0       0       0       0       0       0       0
       0       0       0       0       0       0       0       0
       0       0       0       0       0       0       0       0
       0       0       0       0       0       0       0       0
       0       0       0       0       0       0       0       0
       0       0       0       0       0       0       0       0
       0       0       0       0       0       0       0       0
       0       0       0       0       0       0       0       0
       0       0       0       0       0       0       0       0
       0       0       0       0       0       0       0       0
       0       0       0       0       0       0       0       0
       0       0       0       0       0       0       0       0
       0       0       0       0       0       0       0       0
       0       0       0       0       0       0       0       0
       0       0       0       0       0       0       0       0
       0       0       0       0       0       0       0       0
       0       0       0       0       0       0       0       0
       0       0       0       0       0       0       0       0
       0       0       0       0       0       0       0       0
       0       0       0       0       0       0       0       0
       0       0       0       0       0       0       0       0
       0       0       0       0       0       0       0       0
       0       0       0       0       0       0       0       0
       0       0       0       0       0       0       0       0
       0       0       0       0       0       0       0       0
       0       0       0       0       0       0       0       0
       0       0       0       0       0       0       0       0
       0       0       0       0       0       0       0       0
       0       0       0       0       0       0       0       0
       0       0       0       0       0       0       0       0
       0       0       0       0       0       0       0       0
       0       0       0       0       0       0       0       0
       0       0       0       0       0       0       0       0
       0       0       0       0       0       0       0       0
       0       0       0       0       0       0       0       0
       0       0       0       0       0       0       0       0
       0       0       0       0       0       0       0       0
       0       0       0       0       0       0       0       0
       0       0       0       0       0       0       0       0
       0       0       0       0       0       0       0       0
       0       0       0       0       0       0       0       0
       0       0       0       0       0       0       0       0
       0       0       0       0       0       0       0       0
       0       0       0       0       0       0       0       0
       0       0       0       0       0       0       0       0
       0       0       0       0       0       0       0       0
       0       0       0       0       0       0       0       0
       0       0       0       0       0       0       0       0
       0       0       0       0       0       0       0       0
       0       0       0       0       0       0       0       0
       0       0       0       0       0       0       0       0
       0       0       0       0       0       0       0       0
       0       0       0       0       0       0       0       0
       0       0       0       0       0       0       0       0
       0       0       0       0       0       0       0       0
       0       0       0       0       0       0       0       0
       0       0       0       0       0       0       0       0
       0       0       0       0       0       0       0       0
       0       0       0       0       0       0       0       0
       0       0       0       0       0       0       0       0
       0       0       0       0       0       0       0       0
       0       0       0       0       0       0       0       0
       0       0       0       0       0       0       0       0
       0       0       0       0       0       0       0       0
       0       0       0       0       0       0       0       0
       0       0       0       0       0       0       0       0
       0       0       0       0       0       0       0       0
       0       0       0       0       0       0       0       0
       0       0       0       0       0       0       0       0
       0       0       0       0       0       0       0       0
       0       0       0       0       0       0       0       0
       0       0       0       0       0       0       0       0
       0       0       0       0       0       0       0       0
       0       0       0       0       0       0       0       0
       0       0       0       0       0       0       0       0
       0       0       0       0       0       0       0       0
       0       0       0       0       0       0       0       0
       0       0       0       0       0       0       0       0
       0       0       0       0       0       0       0       0
       0       0       0       0       0       0       0       0
       0       0       0       0       0       0       0       0
       0       0       0       0       0       0       0       0
       0       0       0       0       0       0       0       0
       0       0       0       0       0       0       0       0
       0       0       0       0       0       0       0       0
       0       0       0       0       0       0       0       0
       0       0       0       0       0       0       0       0
       0       0       0       0       0       0       0       0
       0       0       0       0       0       0       0       0
       0       0       0       0       0       0       0       0
       0       0       0       0       0       0       0       0
       0       0       0       0       0       0       0       0
       0       0       0       0       0       0       0       0
       0       0       0       0       0       0       0       0
       0       0       0       0       0       0       0       0
       0       0       0       0       0       0       0       0
       0       0       0       0       0       0       0       0
       0       0       0       0       0       0       0       0
       0       0       0       0       0       0       0       0
       0       0       0       0       0       0       0       0
       0       0       0       0       0       0       0       0
       0       0       0       0       0       0       0       0
       0       0       0       0       0       0       0       0
       0       0       0       0       0       0       0       0
       0       0       0       0       0       0       0       0
       0       0       0       0       0       0       0       0
       0       0       0       0       0       0       0       0
       0       0       0       0       0       0       0       0
       0       0       0       0       0       0       0       0
       0       0       0       0       0       0       0       0
       0       0       0       0       0       0       0       0
       0       0       0       0       0       0       0       0
       0       0       0       0       0       0       0       0
       0       0       0       0       0       0       0       0
       0       0       0       0       0       0       0       0
       0       0       0       0       0       0       0       0
       0       0       0       0       0       0       0       0
       0       0       0       0       0       0       0       0
       0       0       0       0       0       0       0       0
       0       0       0       0       0       0       0       0
       0       0       0       0       0       0       0       0
       0       0       0       0       0       0       0       0
       0       0       0       0       0       0       0       0
       0       0       0       0       0       0       0       0
       0       0       0       0       0       0       0       0
       0       0       0       0       0       0       0       0
       0       0       0       0       0       0       0       0
       0       0       0       0       0       0       0       0
       0       0       0       0       0       0       0       0
       0       0       0       0       0       0       0       0
       0       0       0       0       0       0       0       0
       0       0       0       0       0       0       0       0
       0       0       0       0       0       0       0       0
       0       0       0       0       0       0       0       0
       0       0       0       0       0       0       0       0
       0       0       0       0       0       0       0       0
       0       0       0       0       0       0       0       0
       0       0       0       0       0       0       0       0
       0       0       0       0       0       0       0       0
       0       0       0       0       0       0       0       0
       0       0       0       0       0       0       0       0
       0       0       0       0       0       0       0       0
       0       0       0       0       0       0       0       0
       0       0       0       0       0       0       0       0
       0       0       0       0       0       0       0       0
       0       0       0       0       0       0       0       0
       0       0       0       0       0       0       0       0
       0       0       0       0       0       0       0       0
       0       0       0       0       0       0       0       0
       0       0       0       0       0       0       0       0
       0       0       0       0       0       0       0       0
       0       0       0       0       0       0       0       0
       0       0       0       0       0       0       0       0
       0       0       0       0       0       0       0       0
       0       0       0       0       0       0       0       0
       0       0       0       0       0       0       0       0
       0       0       0       0       0       0       0       0
       0       0       0       0       0       0       0       0
       0       0       0       0       0       0       0       0
       0       0       0       0       0       0       0       0
       0       0       0       0       0       0       0       0
       0       0       0       0       0       0       0       0
       0       0       0       0       0       0       0       0
       0       0       0       0       0       0       0       0
       0       0       0       0       0       0       0       0
       0       0       0       0       0       0       0       0
       0       0       0       0       0       0       0       0
       0       0       0       0       0       0       0       0
       0       0       0       0       0       0       0       0
       0       0       0       0       0       0       0       0
       0       0       0       0       0       0       0       0
       0       0       0       0       0       0       0       0
       0       0       0       0       0       0       0       0
       0       0       0       0       0       0       0       0
       0       0       0       0       0       0       0       0
       0       0       0       0       0       0       0       0
       0       0       0       0       0       0       0       0
       0       0       0       0       0       0       0       0
       0       0       0       0       0       0       0       0
       0       0       0       0       0       0       0       0
       0       0       0       0       0       0       0       0
       0       0       0       0       0       0       0       0
       0       0       0       0       0       0       0       0
       0       0       0       0       0       0       0       0
       0       0       0       0       0       0       0       0
       0       0       0       0       0       0       0       0
       0       0       0       0       0       0       0       0
       0       0       0       0       0       0       0       0
       0       0       0       0       0       0       0       0
       0       0       0       0       0       0       0       0
       0       0       0       0       0       0       0       0
       0       0       0       0       0       0       0       0
       0       0       0       0       0       0       0       0
       0       0       0       0       0       0       0       0
       0       0       0       0       0       0       0       0
       0       0       0       0       0       0       0       0
       0       0       0       0       0       0       0       0
       0       0       0       0       0       0       0       0
       0       0       0       0       0       0       0       0
       0       0       0       0       0       0       0       0
       0       0       0       0       0       0       0       0
       0       0       0       0       0       0       0       0
       0       0       0       0       0       0       0       0
       0       0       0       0       0       0       0       0
       0       0       0       0       0       0       0       0
       0       0       0       0       0       0       0       0
       0       0       0       0       0       0       0       0
       0       0       0       0       0       0       0       0
       0       0       0       0       0       0       0       0
       0       0       0       0       0       0       0       0
       0       0       0       0       0       0       0       0
       0       0       0       0       0       0       0       0
       0       0       0       0       0       0       0       0
       0       0       0       0       0       0       0       0
       0       0       0       0       0       0       0       0
       0       0       0       0       0       0       0       0
       0       0       0       0       0       0       0       0
       0       0       0       0       0       0       0       0
       0       0       0       0       0       0       0       0
       0       0       0       0       0       0       0       0
       0       0       0       0       0       0       0       0
       0       0       0       0       0       0       0       0
       0       0       0       0       0       0       0       0
       0       0       0       0       0       0       0       0
       0       0       0       0       0       0       0       0
       0       0       0       0       0       0       0       0
       0       0       0       0       0       0       0       0
       0       0       0       0       0       0       0       0
       0       0       0       0       0       0       0       0
       0       0       0       0       0       0       0       0
       0       0       0       0       0       0       0       0
       0       0       0       0       0       0       0       0
       0       0       0       0       0       0       0       0
       0       0       0       0       0       0       0       0
       0       0       0       0       0       0       0       0
       0       0       0       0       0       0       0       0
       0       0       0       0       0       0       0       0
       0       0       0       0       0       0       0       0
       0       0       0       0       0       0       0       0
       0       0       0       0       0       0       0       0
       0       0       0       0       0       0       0       0
       0       0       0       0       0       0       0       0
       0       0       0       0       0       0       0       0
       0       0       0       0       0       0       0       0
       0       0       0       0       0       0       0       0
       0       0       0       0       0       0       0       0
       0       0       0       0       0       0       0       0
       0       0       0       0       0       0       0       0
       0       0       0       0       0       0       0       0
       0       0       0       0       0       0       0       0
       0       0       0       0       0       0       0       0
       0       0       0       0       0       0       0       0
       0       0       0       0       0       0       0       0
       0       0       0       0       0       0       0       0
       0       0       0       0       0       0       0       0
       0       0       0       0       0       0       0       0
       0       0       0       0       0       0       0       0
       0       0       0       0       0       0       0       0
       0       0       0       0       0       0       0       0
       0       0       0       0       0       0       0       0
       0       0       0       0       0       0       0       0
       0       0       0       0       0       0       0       0
       0       0       0       0       0       0       0       0
       0       0       0       0       0       0       0       0
       0       0       0       0       0       0       0       0
       0       0       0       0       0       0       0       0
       0       0       0       0       0       0       0       0
       0       0       0       0       0       0       0       0
       0       0       0       0       0       0       0       0
       0       0       0       0       0       0       0       0
       0       0       0       0       0       0       0       0
       0       0       0       0       0       0       0       0
       0       0       0       0       0       0       0       0
       0       0       0       0       0       0       0       0
       0       0       0       0       0       0       0       0
       0       0       0       0       0       0       0       0
       0       0       0       0       0       0       0       0
       0       0       0       0       0       0       0       0
       0       0       0       0       0       0       0       0
       0       0       0       0       0       0       0       0
       0       0       0       0       0       0       0       0
       0       0       0       0       0       0       0       0
       0       0       0       0       0       0       0       0
       0       0       0       0       0       0       0       0
       0       0       0       0       0       0       0       0
       0       0       0       0       0       0       0       0
       0       0       0       0       0       0       0       0
       0       0       0       0       0       0       0       0
       0       0       0       0       0       0       0       0
       0       0       0       0       0       0       0       0
       0       0       0       0       0       0       0       0
       0       0       0       0       0       0       0       0
       0       0       0       0       0       0       0       0
       0       0       0       0       0       0       0       0
       0       0       0       0       0       0       0       0
       0       0       0       0       0       0       0       0
       0       0       0       0       0       0       0       0
       0       0       0       0       0       0       0       0
       0       0       0       0       0       0       0       0
       0       0       0       0       0       0       0       0
       0       0       0       0       0       0       0       0
       0       0       0       0       0       0       0       0
       0       0       0       0       0       0       0       0
       0       0       0       0       0       0       0       0
       0       0       0       0       0       0       0       0
       0       0       0       0       0       0       0       0
       0       0       0       0       0       0       0       0
       0       0       0       0       0       0       0       0
       0       0       0       0       0       0       0       0
       0       0       0       0       0       0       0       0
       0       0       0       0       0       0       0       0
       0       0       0       0       0       0       0       0
       0       0       0       0       0       0       0       0
       0       0       0       0       0       0       0       0
       0       0       0       0       0       0       0       0
       0       0       0       0       0       0       0       0
       0       0       0       0       0       0       0       0
       0       0       0       0       0       0       0       0
       0       0       0       0       0       0       0       0
       0       0       0       0       0       0       0       0
       0       0       0       0       0       0       0       0
       0       0       0       0       0       0       0       0
       0       0       0       0       0       0       0       0
       0       0       0       0       0       0       0       0
       0       0       0       0       0       0       0       0
       0       0       0       0       0       0       0       0
       0       0       0       0       0       0       0       0
       0       0       0       0       0       0       0       0
       0       0       0       0       0       0       0       0
       0       0       0       0       0       0       0       0
       0       0       0       0       0       0       0       0
       0       0       0       0       0       0       0       0
       0       0       0       0       0       0       0       0
       0       0       0       0       0       0       0       0
       0       0       0       0       0       0       0       0
       0       0       0       0       0       0       0       0
       0       0       0       0       0       0       0       0
       0       0       0       0       0       0       0       0
       0       0       0       0       0       0       0       0
       0       0       0       0       0       0       0       0
       0       0       0       0       0       0       0       0
       0       0       0       0       0       0       0       0
       0       0       0       0       0       0       0       0
       0       0       0       0       0       0       0       0
       0       0       0       0       0       0       0       0
       0       0       0       0       0       0       0       0
       0       0       0       0       0       0       0       0
       0       0       0       0       0       0       0       0
       0       0       0       0       0       0       0       0
       0       0       0       0       0       0       0       0
       0       0       0       0       0       0       0       0
       0       0       0       0       0       0       0       0
       0       0       0       0       0       0       0       0
       0       0       0       0       0       0       0       0
       0       0       0       0       0       0       0       0
       0       0       0       0       0       0       0       0
       0       0       0       0       0       0       0       0
       0       0       0       0       0       0       0       0
       0       0       0       0       0       0       0       0
       0       0       0       0       0       0       0       0
       0       0       0       0       0       0       0       0
       0       0       0       0       0       0       0       0
       0       0       0       0       0       0       0       0
       0       0       0       0       0       0       0       0
       0       0       0       0       0       0       0       0
       0       0       0       0       0       0       0       0
       0       0       0       0       0       0       0       0
       0       0       0       0       0       0       0       0
       0       0       0       0       0       0       0       0
       0       0       0       0       0       0       0       0
       0       0       0       0       0       0       0       0
       0       0       0       0       0       0       0       0
       0       0       0       0       0       0       0       0
       0       0       0       0       0       0       0       0
       0       0       0       0       0       0       0       0
       0       0       0       0       0       0       0       0
       0       0       0       0       0       0       0       0
       0       0       0       0       0       0       0       0
       0       0       0       0       0       0       0       0
       0       0       0       0       0       0       0       0
       0       0       0       0       0       0       0       0
       0       0       0       0       0       0       0       0
       0       0       0       0       0       0       0       0
       0       0       0       0       0       0       0       0
       0       0       0       0       0       0       0       0
       0       0       0       0       0       0       0       0
       0       0       0       0       0       0       0       0
       0       0       0       0       0       0       0       0
       0       0       0       0       0       0       0       0
       0       0       0       0       0       0       0       0
       0       0       0       0       0       0       0       0
       0       0       0       0       0       0       0       0
       0       0       0       0       0       0       0       0
       0       0       0       0       0       0       0       0
       0       0       0       0       0       0       0       0
       0       0       0       0       0       0       0       0
       0       0       0       0       0       0       0       0
       0       0       0       0       0       0       0       0
       0       0       0       0       0       0       0       0
       0       0       0       0       0       0       0       0
       0       0       0       0       0       0       0       0
       0       0       0       0       0       0       0       0
       0       0       0       0       0       0       0       0
       0       0       0       0       0       0       0       0
       0       0       0       0       0       0       0       0
       0       0       0       0       0       0       0       0
       0       0       0       0       0       0       0       0
       0       0       0       0       0       0       0       0
       0       0       0       0       0       0       0       0
       0       0       0       0       0       0       0       0
       0       0       0       0       0       0       0       0
       0       0       0       0       0       0       0       0
       0       0       0       0       0       0       0       0
       0       0       0       0       0       0       0       0
       0       0       0       0       0       0       0       0
       0       0       0       0       0       0       0       0
       0       0       0       0       0       0       0       0
       0       0       0       0       0       0       0       0
       0       0       0       0       0       0       0       0
       0       0       0       0       0       0       0       0
       0       0       0       0       0       0       0       0
       0       0       0       0       0       0       0       0
       0       0       0       0       0       0       0       0
       0       0       0       0       0       0       0       0
       0       0       0       0       0       0       0       0
       0       0       0       0       0       0       0       0
       0       0       0       0       0       0       0       0
       0       0       0       0       0       0       0       0
       0       0       0       0       0       0       0       0
       0       0       0       0       0       0       0       0
       0       0       0       0       0       0       0       0
       0       0       0       0       0       0       0       0
       0       0       0       0       0       0       0       0
       0       0       0       0       0       0       0       0
       0       0       0       0       0       0       0       0
       0       0       0       0       0       0       0       0
       0       0       0       0       0       0       0       0
       0       0       0       0       0       0       0       0
       0       0       0       0       0       0       0       0
       0       0       0       0       0       0       0       0
       0       0       0       0       0       0       0       0
       0       0       0       0       0       0       0       0
       0       0       0       0       0       0       0       0
       0       0       0       0       0       0       0       0
       0       0       0       0       0       0       0       0
       0       0       0       0       0       0       0       0
       0       0       0       0       0       0       0       0
       0       0       0       0       0       0       0       0
       0       0       0       0       0       0       0       0
       0       0       0       0       0       0       0       0
       0       0       0       0       0       0       0       0
       0       0       0       0       0       0       0       0
       0       0       0       0       0       0       0       0
       0       0       0       0       0       0       0       0
       0       0       0       0       0       0       0       0
       0       0       0       0       0       0       0       0
       0       0       0       0       0       0       0       0
       0       0       0       0       0       0       0       0
       0       0       0       0       0       0       0       0
       0       0       0       0       0       0       0       0
       0       0       0       0       0       0       0       0
       0       0       0       0       0       0       0       0
       0       0       0       0       0       0       0       0
       0       0       0       0       0       0       0       0
       0       0       0       0       0       0       0       0
       0       0       0       0       0       0       0       0
       0       0       0       0       0       0       0       0
       0       0       0       0       0       0       0       0
       0       0       0       0       0       0       0       0
       0       0       0       0       0       0       0       0
       0       0       0       0       0       0       0       0
       0       0       0       0       0       0       0       0
       0       0       0       0       0       0       0       0
       0       0       0       0       0       0       0       0
       0       0       0       0       0       0       0       0
       0       0       0       0       0       0       0       0
       0       0       0       0       0       0       0       0
       0       0       0       0       0       0       0       0
       0       0       0       0       0       0       0       0
       0       0       0       0       0       0       0       0
       0       0       0       0       0       0       0       0
       0       0       0       0       0       0       0       0
       0       0       0       0       0       0       0       0
       0       0       0       0       0       0       0       0
       0       0       0       0       0       0       0       0
       0       0       0       0       0       0       0       0
       0       0       0       0       0       0       0       0
       0       0       0       0       0       0       0       0
       0       0       0       0       0       0       0       0
       0       0       0       0       0       0       0       0
       0       0       0       0       0       0       0       0
       0       0       0       0       0       0       0       0
       0       0       0       0       0       0       0       0
       0       0       0       0       0       0       0       0
       0       0       0       0       0       0       0       0
       0       0       0       0       0       0       0       0
       0       0       0       0       0       0       0       0
       0       0       0       0       0       0       0       0
       0       0       0       0       0       0       0       0
       0       0       0       0       0       0       0       0
       0       0       0       0       0       0       0       0
       0       0       0       0       0       0       0       0
       0       0       0       0       0       0       0       0
       0       0       0       0       0       0       0       0
       0       0       0       0       0       0       0       0
       0       0       0       0       0       0       0       0
       0       0       0       0       0       0       0       0
       0       0       0       0       0       0       0       0
       0       0       0       0       0       0       0       0
       0       0       0       0       0       0       0       0
       0       0       0       0       0       0       0       0
       0       0       0       0       0       0       0       0
       0       0       0       0       0       0       0       0
       0       0       0       0       0       0       0       0
       0       0       0       0       0       0       0       0
       0       0       0       0       0       0       0       0
       0       0       0       0       0       0       0       0
       0       0       0       0       0       0       0       0
       0       0       0       0       0       0       0       0
       0       0       0       0       0       0       0       0
       0       0       0       0       0       0       0       0
       0       0       0       0       0       0       0       0
       0       0       0       0       0       0       0       0
       0       0       0       0       0       0       0       0
       0       0       0       0       0       0       0       0
       0       0       0       0       0       0       0       0
       0       0       0       0       0       0       0       0
       0       0       0       0       0       0       0       0
       0       0       0       0       0       0       0       0
       0       0       0       0       0       0       0       0
       0       0       0       0       0       0       0       0
       0       0       0       0       0       0       0       0
       0       0       0       0       0       0       0       0
       0       0       0       0       0       0       0       0
       0       0       0       0       0       0       0       0
       0       0       0       0       0       0       0       0
       0       0       0       0       0       0       0       0
       0       0       0       0       0       0       0       0
       0       0       0       0       0       0       0       0
       0       0       0       0       0       0       0       0
       0       0       0       0       0       0       0       0
       0       0       0       0       0       0       0       0
       0       0       0       0       0       0       0       0
       0       0       0       0       0       0       0       0
       0       0       0       0       0       0       0       0
       0       0       0       0       0       0       0       0
       0       0       0       0       0       0       0       0
       0       0       0       0       0       0       0       0
       0       0       0       0       0       0       0       0
       0       0       0       0       0       0       0       0
       0       0       0       0       0       0       0       0
       0       0       0       0       0       0       0       0
       0       0       0       0       0       0       0       0
       0       0       0       0       0       0       0       0
       0       0       0       0       0       0       0       0
       0       0       0       0       0       0       0       0
       0       0       0       0       0       0       0       0
       0       0       0       0       0       0       0       0
       0       0       0       0       0       0       0       0
       0       0       0       0       0       0       0       0
       0       0       0       0       0       0       0       0
       0       0       0       0       0       0       0       0
       0       0       0       0       0       0       0       0
       0       0       0       0       0       0       0       0
       0       0       0       0       0       0       0       0
       0       0       0       0       0       0       0       0
       0       0       0       0       0       0       0       0
       0       0       0       0       0       0       0       0
       0       0       0       0       0       0       0       0
       0       0       0       0       0       0       0       0
       0       0       0       0       0       0       0       0
       0       0       0       0       0       0       0       0
       0       0       0       0       0       0       0       0
       0       0       0       0       0       0       0       0
       0       0       0       0       0       0       0       0
       0       0       0       0       0       0       0       0
       0       0       0       0       0       0       0       0
       0       0       0       0       0       0       0       0
       0       0       0       0       0       0       0       0
       0       0       0       0       0       0       0       0
       0       0       0       0       0       0       0       0
       0       0       0       0       0       0       0       0
       0       0       0       0       0       0       0       0
       0       0       0       0       0       0       0       0
       0       0       0       0       0       0       0       0
       0       0       0       0       0       0       0       0
       0       0       0       0       0       0       0       0
       0       0       0       0       0       0       0       0
       0       0       0       0       0       0       0       0
       0       0       0       0       0       0       0       0
       0       0       0       0       0       0       0       0
       0       0       0       0       0       0       0       0
       0       0       0       0       0       0       0       0
       0       0       0       0       0       0       0       0
       0       0       0       0       0       0       0       0
       0       0       0       0       0       0       0       0
       0       0       0       0       0       0       0       0
       0       0       0       0       0       0       0       0
       0       0       0       0       0       0       0       0
       0       0       0       0       0       0       0       0
       0       0       0       0       0       0       0       0
       0       0       0       0       0       0       0       0
       0       0       0       0       0       0       0       0
       0       0       0       0       0       0       0       0
       0       0       0       0       0       0       0       0
       0       0       0       0       0       0       0       0
       0       0       0       0       0       0       0       0
       0       0       0       0       0       0       0       0
       0       0       0       0       0       0       0       0
       0       0       0       0       0       0       0       0
       0       0       0       0       0       0       0       0
       0       0       0       0       0       0       0       0
       0       0       0       0       0       0       0       0
       0       0       0       0       0       0       0       0
       0       0       0       0       0       0       0       0
       0       0       0       0       0       0       0       0
       0       0       0       0       0       0       0       0
       0       0       0       0       0       0       0       0
       0       0       0       0       0       0       0       0
       0       0       0       0       0       0       0       0
       0       0       0       0       0       0       0       0
       0       0       0       0       0       0       0       0
       0       0       0       0       0       0       0       0
       0       0       0       0       0       0       0       0
       0       0       0       0       0       0       0       0
       0       0       0       0       0       0       0       0
       0       0       0       0       0       0       0       0
       0       0       0       0       0       0       0       0
       0       0       0       0       0       0       0       0
       0       0       0       0       0       0       0       0
       0       0       0       0       0       0       0       0
       0       0       0       0       0       0       0       0
       0       0       0       0       0       0       0       0
       0       0       0       0       0       0       0       0
       0       0       0       0       0       0       0       0
       0       0       0       0       0       0       0       0
       0       0       0       0       0       0       0       0
       0       0       0       0       0       0       0       0
       0       0       0       0       0       0       0       0
       0       0       0       0       0       0       0       0
       0       0       0       0       0       0       0       0
       0       0       0       0       0       0       0       0
       0       0       0       0       0       0       0       0
       0       0       0       0       0       0       0       0
       0       0       0       0       0       0       0       0
       0       0       0       0       0       0       0       0
       0       0       0       0       0       0       0       0
       0       0       0       0       0       0       0       0
       0       0       0       0       0       0       0       0
       0       0       0       0       0       0       0       0
       0       0       0       0       0       0       0       0
       0       0       0       0       0       0       0       0
       0       0       0       0       0       0       0       0
       0       0       0       0       0       0       0       0
       0       0       0       0       0       0       0       0
       0       0       0       0       0       0       0       0
       0       0       0       0       0       0       0       0
       0       0       0       0       0       0       0       0
       0       0       0       0       0       0       0       0
       0       0       0       0       0       0       0       0
       0       0       0       0       0       0       0       0
       0       0       0       0       0       0       0       0
       0       0       0       0       0       0       0       0
       0       0       0       0       0       0       0       0
       0       0       0       0       0       0       0       0
       0       0       0       0       0       0       0       0
       0       0       0       0       0       0       0       0
       0       0       0       0       0       0       0       0
       0       0       0       0       0       0       0       0
       0       0       0       0       0       0       0       0
       0       0       0       0       0       0       0       0
       0       0       0       0       0       0       0       0
       0       0       0       0       0       0       0       0
       0       0       0       0       0       0       0       0
       0       0       0       0       0       0       0       0
       0       0       0       0       0       0       0       0
       0       0       0       0       0       0       0       0
       0       0       0       0       0       0       0       0
       0       0       0       0       0       0       0       0
       0       0       0       0       0       0       0       0
       0       0       0       0       0       0       0       0
       0       0       0       0       0       0       0       0
       0       0       0       0       0       0       0       0
       0       0       0       0       0       0       0       0
       0       0       0       0       0       0       0       0
       0       0       0       0       0       0       0       0
       0       0       0       0       0       0       0       0
       0       0       0       0       0       0       0       0
       0       0       0       0       0       0       0       0
       0       0       0       0       0       0       0       0
       0       0       0       0       0       0       0       0
       0       0       0       0       0       0       0       0
       0       0       0       0       0       0       0       0
       0       0       0       0       0       0       0       0
       0       0       0       0       0       0       0       0
       0       0       0       0       0       0       0       0
       0       0       0       0       0       0       0       0
       0       0       0       0       0       0       0       0
       0       0       0       0       0       0       0       0
       0       0       0       0       0       0       0       0
       0       0       0       0       0       0       0       0
       0       0       0       0       0       0       0       0
       0       0       0       0       0       0       0       0
       0       0       0       0       0       0       0       0
       0       0       0       0       0       0       0       0
       0       0       0       0       0       0       0       0
       0       0       0       0       0       0       0       0
       0       0       0       0       0       0       0       0
       0       0       0       0       0       0       0       0
       0       0       0       0       0       0       0       0
       0       0       0       0       0       0       0       0
       0       0       0       0       0       0       0       0
       0       0       0       0       0       0       0       0
       0       0       0       0       0       0       0       0
       0       0       0       0       0       0       0       0
       0       0       0       0       0       0       0       0
       0       0       0       0       0       0       0       0
       0       0       0       0       0       0       0       0
       0       0       0       0       0       0       0       0
       0       0       0       0       0       0       0       0
       0       0       0       0       0       0       0       0
       0       0       0       0       0       0       0       0
       0       0       0       0       0       0       0       0
       0       0       0       0       0       0       0       0
       0       0       0       0       0       0       0       0
       0       0       0       0       0       0       0       0
       0       0       0       0       0       0       0       0
       0       0       0       0       0       0       0       0
       0       0       0       0       0       0       0       0
       0       0       0       0       0       0       0       0
       0       0       0       0       0       0       0       0
       0       0       0       0       0       0       0       0
       0       0       0       0       0       0       0       0
       0       0       0       0       0       0       0       0
       0       0       0       0       0       0       0       0
       0       0       0       0       0       0       0       0
       0       0       0       0       0       0       0       0
       0       0       0       0       0       0       0       0
       0       0       0       0       0       0       0       0
       0       0       0       0       0       0       0       0
       0       0       0       0       0       0       0       0
       0       0       0       0       0       0       0       0
       0       0       0       0       0       0       0       0
       0       0       0       0       0       0       0       0
       0       0       0       0       0       0       0       0
       0       0       0       0       0       0       0       0
       0       0       0       0       0       0       0       0
       0       0       0       0       0       0       0       0
       0       0       0       0       0       0       0       0
       0       0       0       0       0       0       0       0
       0       0       0       0       0       0       0       0
       0       0       0       0       0       0       0       0
       0       0       0       0       0       0       0       0
       0       0       0       0       0       0       0       0
       0       0       0       0       0       0       0       0
       0       0       0       0       0       0       0       0
       0       0       0       0       0       0       0       0
       0       0       0       0       0       0       0       0
       0       0       0       0       0       0       0       0
       0       0       0       0       0       0       0       0
       0       0       0       0       0       0       0       0
       0       0       0       0       0       0       0       0
       0       0       0       0       0       0       0       0
       0       0       0       0       0       0       0       0
       0       0       0       0       0       0       0       0
       0       0       0       0       0       0       0       0
       0       0       0       0       0       0       0       0
       0       0       0       0       0       0       0       0
       0       0       0       0       0       0       0       0
       0       0       0       0       0       0       0       0
       0       0       0       0       0       0       0       0
       0       0       0       0       0       0       0       0
       0       0       0       0       0       0       0       0
       0       0       0       0       0       0       0       0
       0       0       0       0       0       0       0       0
       0       0       0       0       0       0       0       0
       0       0       0       0       0       0       0       0
       0       0       0       0       0       0       0       0
       0       0       0       0       0       0       0       0
       0       0       0       0       0       0       0       0
       0       0       0       0       0       0       0       0
       0       0       0       0       0       0       0       0
       0       0       0       0       0       0       0       0
       0       0       0       0       0       0       0       0
       0       0       0       0       0       0       0       0
       0       0       0       0       0       0       0       0
       0       0       0       0       0       0       0       0
       0       0       0       0       0       0       0       0
       0       0       0       0       0       0       0       0
       0       0       0       0       0       0       0       0
       0       0       0       0       0       0       0       0
       0       0       0       0       0       0       0       0
       0       0       0       0       0       0       0       0
       0       0       0       0       0       0       0       0
       0       0       0       0       0       0       0       0
       0       0       0       0       0       0       0       0
       0       0       0       0       0       0       0       0
       0       0       0       0       0       0       0       0
       0       0       0       0       0       0       0       0
       0       0       0       0       0       0       0       0
       0       0       0       0       0       0       0       0
       0       0       0       0       0       0       0       0
       0       0       0       0       0       0       0       0
       0       0       0       0       0       0       0       0
       0       0       0       0       0       0       0       0
       0       0       0       0       0       0       0       0
       0       0       0       0       0       0       0       0
       0       0       0       0       0       0       0       0
       0       0       0       0       0       0       0       0
       0       0       0       0       0       0       0       0
       0       0       0       0       0       0       0       0
       0       0       0       0       0       0       0       0
       0       0       0       0       0       0       0       0
       0       0       0       0       0       0       0       0
       0       0       0       0       0       0       0       0
       0       0       0       0       0       0       0       0
       0       0       0       0       0       0       0       0
       0       0       0       0       0       0       0       0
       0       0       0       0       0       0       0       0
       0       0       0       0       0       0       0       0
       0       0       0       0       0       0       0       0
       0       0       0       0       0       0       0       0
       0       0       0       0       0       0       0       0
       0       0       0       0       0       0       0       0
       0       0       0       0       0       0       0       0
       0       0       0       0       0       0       0       0
       0       0       0       0       0       0       0       0
       0       0       0       0       0       0       0       0
       0       0       0       0       0       0       0       0
       0       0       0       0       0       0       0       0
       0       0       0       0       0       0       0       0
       0       0       0       0       0       0       0       0
       0       0       0       0       0       0       0       0
       0       0       0       0       0       0       0       0
       0       0       0       0       0       0       0       0
       0       0       0       0       0       0       0       0
       0       0       0       0       0       0       0       0
       0       0       0       0       0       0       0       0
       0       0       0       0       0       0       0       0
       0       0       0       0       0       0       0       0
       0       0       0       0       0       0       0       0
       0       0       0       0       0       0       0       0
       0       0       0       0       0       0       0       0
       0       0       0       0       0       0       0       0
       0       0       0       0       0       0       0       0
       0       0       0       0       0       0       0       0
       0       0       0       0       0       0       0       0
       0       0       0       0       0       0       0       0
       0       0       0       0       0       0       0       0
       0       0       0       0       0       0       0       0
       0       0       0       0       0       0       0       0
       0       0       0       0       0       0       0       0
       0       0       0       0       0       0       0       0
       0       0       0       0       0       0       0       0
       0       0       0       0       0       0       0       0
       0       0       0       0       0       0       0       0
       0       0       0       0       0       0       0       0
       0       0       0       0       0       0       0       0
       0       0       0       0       0       0       0       0
       0       0       0       0       0       0       0       0
       0       0       0       0       0       0       0       0
       0       0       0       0       0       0       0       0
       0       0       0       0       0       0       0       0
       0       0       0       0       0       0       0       0
       0       0       0       0       0       0       0       0
       0       0       0       0       0       0       0       0
       0       0       0       0       0       0       0       0
       0       0       0       0       0       0       0       0
       0       0       0       0       0       0       0       0
       0       0       0       0       0       0       0       0
       0       0       0       0       0       0       0       0
       0       0       0       0       0       0       0       0
       0       0       0       0       0       0       0       0
       0       0       0       0       0       0       0       0
       0       0       0       0       0       0       0       0
       0       0       0       0       0       0       0       0
       0       0       0       0       0       0       0       0
       0       0       0       0       0       0       0       0
       0       0       0       0       0       0       0       0
       0       0       0       0       0       0       0       0
       0       0       0       0       0       0       0       0
       0       0       0       0       0       0       0       0
       0       0       0       0       0       0       0       0
       0       0       0       0       0       0       0       0
       0       0       0       0       0       0       0       0
       0       0       0       0       0       0       0       0
       0       0       0       0       0       0       0       0
       0       0       0       0       0       0       0       0
       0       0       0       0       0       0       0       0
       0       0       0       0       0       0       0       0
       0       0       0       0       0       0       0       0
       0       0       0       0       0       0       0       0
       0       0       0       0       0       0       0       0
       0       0       0       0       0       0       0       0
       0       0       0       0       0       0       0       0
       0       0       0       0       0       0       0       0
       0       0       0       0       0       0       0       0
       0       0       0       0       0       0       0       0
       0       0       0       0       0       0       0       0
       0       0       0       0       0       0       0       0
       0       0       0       0       0       0       0       0
       0       0       0       0       0       0       0       0
       0       0       0       0       0       0       0       0
       0       0       0       0       0       0       0       0
       0       0       0       0       0       0       0       0
       0       0       0       0       0       0       0       0
       0       0       0       0       0       0       0       0
       0       0       0       0       0       0       0       0
       0       0       0       0       0       0       0       0
       0       0       0       0       0       0       0       0
       0       0       0       0       0       0       0       0
       0       0       0       0       0       0       0       0
       0       0       0       0       0       0       0       0
       0       0       0       0       0       0       0       0
       0       0       0       0       0       0       0       0
       0       0       0       0       0       0       0       0
       0       0       0       0       0       0       0       0
       0       0       0       0       0       0       0       0
       0       0       0       0       0       0       0       0
       0       0       0       0       0       0       0       0
       0       0       0       0       0       0       0       0
       0       0       0       0       0       0       0       0
       0       0       0       0       0       0       0       0
       0       0       0       0       0       0       0       0
       0       0       0       0       0       0       0       0
       0       0       0       0       0       0       0       0
       0       0       0       0       0       0       0       0
       0       0       0       0       0       0       0       0
       0       0       0       0       0       0       0       0
       0       0       0       0       0       0       0       0
       0       0       0       0       0       0       0       0
       0       0       0       0       0       0       0       0
       0       0       0       0       0       0       0       0
       0       0       0       0       0       0       0       0
       0       0       0       0       0       0       0       0
       0       0       0       0       0       0       0       0
       0       0       0       0       0       0       0       0
       0       0       0       0       0       0       0       0
       0       0       0       0       0       0       0       0
       0       0       0       0       0       0       0       0
       0       0       0       0       0       0       0       0
       0       0       0       0       0       0       0       0
       0       0       0       0       0       0       0       0
       0       0       0       0       0       0       0       0
       0       0       0       0       0       0       0       0
       0       0       0       0       0       0       0       0
       0       0       0       0       0       0       0       0
       0       0       0       0       0       0       0       0
       0       0       0       0       0       0       0       0
       0       0       0       0       0       0       0       0
       0       0       0       0       0       0       0       0
       0       0       0       0       0       0       0       0
       0       0       0       0       0       0       0       0
       0       0       0       0       0       0       0       0
       0       0       0       0       0       0       0       0
       0       0       0       0       0       0       0       0
       0       0       0       0       0       0       0       0
       0       0       0       0       0       0       0       0
       0       0       0       0       0       0       0       0
       0       0       0       0       0       0       0       0
       0       0       0       0       0       0       0       0
       0       0       0       0       0       0       0       0
       0       0       0       0       0       0       0       0
       0       0       0       0       0       0       0       0
       0       0       0       0       0       0       0       0
       0       0       0       0       0       0       0       0
       0       0       0       0       0       0       0       0
       0       0       0       0       0       0       0       0
       0       0       0       0       0       0       0       0
       0       0       0       0       0       0       0       0
       0       0       0       0       0       0       0       0
       0       0       0       0       0       0       0       0
       0       0       0       0       0       0       0       0
       0       0       0       0       0       0       0       0
       0       0       0       0       0       0       0       0
       0       0       0       0       0       0       0       0
       0       0       0       0       0       0       0       0
       0       0       0       0       0       0       0       0
       0       0       0       0       0       0       0       0
       0       0       0       0       0       0       0       0
       0       0       0       0       0       0       0       0
       0       0       0       0       0       0       0       0
       0       0       0       0       0       0       0       0
       0       0       0       0       0       0       0       0
       0       0       0       0       0       0       0       0
       0       0       0       0       0       0       0       0
       0       0       0       0       0       0       0       0
       0       0       0       0       0       0       0       0
       0       0       0       0       0       0       0       0
       0       0       0       0       0       0       0       0
       0       0       0       0       0       0       0       0
       0       0       0       0       0       0       0       0
       0       0       0       0       0       0       0       0
       0       0       0       0       0       0       0       0
       0       0       0       0       0       0       0       0
       0       0       0       0       0       0       0       0
       0       0       0       0       0       0       0       0
       0       0       0       0       0       0       0       0
       0       0       0       0       0       0       0       0
       0       0       0       0       0       0       0       0
       0       0       0       0       0       0       0       0
       0       0       0       0       0       0       0       0
       0       0       0       0       0       0       0       0
       0       0       0       0       0       0       0       0
       0       0       0       0       0       0       0       0
       0       0       0       0       0       0       0       0
       0       0       0       0       0       0       0       0
       0       0       0       0       0       0       0       0
       0       0       0       0       0       0       0       0
       0       0       0       0       0       0       0       0
       0       0       0       0       0       0       0       0
       0       0       0       0       0       0       0       0
       0       0       0       0       0       0       0       0
       0       0       0       0       0       0       0       0
       0       0       0       0       0       0       0       0
       0       0       0       0       0       0       0       0
       0       0       0       0       0       0       0       0
       0       0       0       0       0       0       0       0
       0       0       0       0       0       0       0       0
       0       0       0       0       0       0       0       0
       0       0       0       0       0       0       0       0
       0       0       0       0       0       0       0       0
       0       0       0       0       0       0       0       0
       0       0       0       0       0       0       0       0
       0       0       0       0       0       0       0       0
       0       0       0       0       0       0       0       0
       0       0       0       0       0       0       0       0
       0       0       0       0       0       0       0       0
       0       0       0       0       0       0       0       0
       0       0       0       0       0       0       0       0
       0       0       0       0       0       0       0       0
       0       0       0       0       0       0       0       0
       0       0       0       0       0       0       0       0
       0       0       0       0       0       0       0       0
       0       0       0       0       0       0       0       0
       0       0       0       0       0       0       0       0
       0       0       0       0       0       0       0       0
       0       0       0       0       0       0       0       0
       0       0       0       0       0       0       0       0
       0       0       0       0       0       0       0       0
       0       0       0       0       0       0       0       0
       0       0       0       0       0       0       0       0
       0       0       0       0       0       0       0       0
       0       0       0       0       0       0       0       0
       0       0       0       0       0       0       0       0
       0       0       0       0       0       0       0       0
       0       0       0       0       0       0       0       0
       0       0       0       0       0       0       0       0
       0       0       0       0       0       0       0       0
       0       0       0       0       0       0       0       0
       0       0       0       0       0       0       0       0
       0       0       0       0       0       0       0       0
       0       0       0       0       0       0       0       0
       0       0       0       0       0       0       0       0
       0       0       0       0       0       0       0       0
       0       0       0       0       0       0       0       0
       0       0       0       0       0       0       0       0
       0       0       0       0       0       0       0       0
       0       0       0       0       0       0       0       0
       0       0       0       0       0       0       0       0
       0       0       0       0       0       0       0       0
       0       0       0       0       0       0       0       0
       0       0       0       0       0       0       0       0
       0       0       0       0       0       0       0       0
       0       0       0       0       0       0       0       0
       0       0       0       0       0       0       0       0
       0       0       0       0       0       0       0       0
       0       0       0       0       0       0       0       0
       0       0       0       0       0       0       0       0
       0       0       0       0       0       0       0       0
       0       0       0       0       0       0       0       0
       0       0       0       0       0       0       0       0
       0       0       0       0       0       0       0       0
       0       0       0       0       0       0       0       0
       0       0       0       0       0       0       0       0
       0       0       0       0       0       0       0       0
       0       0       0       0       0       0       0       0
       0       0       0       0       0       0       0       0
       0       0       0       0       0       0       0       0
       0       0       0       0       0       0       0       0
       0       0       0       0       0       0       0       0
       0       0       0       0       0       0       0       0
       0       0       0       0       0       0       0       0
       0       0       0       0       0       0       0       0
       0       0       0       0       0       0       0       0
       0       0       0       0       0       0       0       0
       0       0       0       0       0       0       0       0
       0       0       0       0       0       0       0       0
       0       0       0       0       0       0       0       0
       0       0       0       0       0       0       0       0
       0       0       0       0       0       0       0       0
       0       0       0       0       0       0       0       0
       0       0       0       0       0       0       0       0
       0       0       0       0       0       0       0       0
       0       0       0       0       0       0       0       0
       0       0       0       0       0       0       0       0
       0       0       0       0       0       0       0       0
       0       0       0       0       0       0       0       0
       0       0       0       0       0       0       0       0
       0       0       0       0       0       0       0       0
       0       0       0       0       0       0       0       0
       0       0       0       0       0       0       0       0
       0       0       0       0       0       0       0       0
       0       0       0       0       0       0       0       0
       0       0       0       0       0       0       0       0
       0       0       0       0       0       0       0       0
       0       0       0       0       0       0       0       0
       0       0       0       0       0       0       0       0
       0       0       0       0       0       0       0       0
       0       0       0       0       0       0       0       0
       0       0       0       0       0       0       0       0
       0       0       0       0       0       0       0       0
       0       0       0       0       0       0       0       0
       0       0       0       0       0       0       0       0
       0       0       0       0       0       0       0       0
       0       0       0       0       0       0       0       0
       0       0       0       0       0       0       0       0
       0       0       0       0       0       0       0       0
       0       0       0       0       0       0       0       0
       0       0       0       0       0       0       0       0
       0       0       0       0       0       0       0       0
       0       0       0       0       0       0       0       0
       0       0       0       0       0       0       0       0
       0       0       0       0       0       0       0       0
       0       0       0       0       0       0       0       0
       0       0       0       0       0       0       0       0
       0       0       0       0       0       0       0       0
       0       0       0       0       0       0       0       0
       0       0       0       0       0       0       0       0
       0       0       0       0       0       0       0       0
       0       0       0       0       0       0       0       0
       0       0       0       0       0       0       0       0
       0       0       0       0       0       0       0       0
       0       0       0       0       0       0       0       0
       0       0       0       0       0       0       0       0
       0       0       0       0       0       0       0       0
       0       0       0       0       0       0       0       0
       0       0       0       0       0       0       0       0
       0       0       0       0       0       0       0       0
       0       0       0       0       0       0       0       0
       0       0       0       0       0       0       0       0
       0       0       0       0       0       0       0       0
       0       0       0       0       0       0       0       0
       0       0       0       0       0       0       0       0
       0       0       0       0       0       0       0       0
       0       0       0       0       0       0       0       0
       0       0       0       0       0       0       0       0
       0       0       0       0       0       0       0       0
       0       0       0       0       0       0       0       0
       0       0       0       0       0       0       0       0
       0       0       0       0       0       0       0       0
       0       0       0       0       0       0       0       0
       0       0       0       0       0       0       0       0
       0       0       0       0       0       0       0       0
       0       0       0       0       0       0       0       0
       0       0       0       0       0       0       0       0
       0       0       0       0       0       0       0       0
       0       0       0       0       0       0       0       0
       0       0       0       0       0       0       0       0
       0       0       0       0       0       0       0       0
       0       0       0       0       0       0       0       0
       0       0       0       0       0       0       0       0
       0       0       0       0       0       0       0       0
       0       0       0       0       0       0       0       0
       0       0       0       0       0       0       0       0
       0       0       0       0       0       0       0       0
       0       0       0       0       0       0       0       0
       0       0       0       0       0       0       0       0
       0       0       0       0       0       0       0       0
       0       0       0       0       0       0       0       0
       0       0       0       0       0       0       0       0
       0       0       0       0       0       0       0       0
       0       0       0       0       0       0       0       0
       0       0       0       0       0       0       0       0
       0       0       0       0       0       0       0       0
       0       0       0       0       0       0       0       0
       0       0       0       0       0       0       0       0
       0       0       0       0       0       0       0       0
       0       0       0       0       0       0       0       0
       0       0       0       0       0       0       0       0
       0       0       0       0       0       0       0       0
       0       0       0       0       0       0       0       0
       0       0       0       0       0       0       0       0
       0       0       0       0       0       0       0       0
       0       0       0       0       0       0       0       0
       0       0       0       0       0       0       0       0
       0       0       0       0       0       0       0       0
       0       0       0       0       0       0       0       0
       0       0       0       0       0       0       0       0
       0       0       0       0       0       0       0       0
       0       0       0       0       0       0       0       0
       0       0       0       0       0       0       0       0
       0       0       0       0       0       0       0       0
       0       0       0       0       0       0       0       0
       0       0       0       0       0       0       0       0
       0       0       0       0       0       0       0       0
       0       0       0       0       0       0       0       0
       0       0       0       0       0       0       0       0
       0       0       0       0       0       0       0       0
       0       0       0       0       0       0       0       0
       0       0       0       0       0       0       0       0
       0       0       0       0       0       0       0       0
       0       0       0       0       0       0       0       0
       0       0       0       0       0       0       0       0
       0       0       0       0       0       0       0       0
       0       0       0       0       0       0       0       0
       0       0       0       0       0       0       0       0
       0       0       0       0       0       0       0       0
       0       0       0       0       0       0       0       0
       0       0       0       0       0       0       0       0
       0       0       0       0       0       0       0       0
       0       0       0       0       0       0       0       0
       0       0       0       0       0       0       0       0
       0       0       0       0       0       0       0       0
       0       0       0       0       0       0       0       0
       0       0       0       0       0       0       0       0
       0       0       0       0       0       0       0       0
       0       0       0       0       0       0       0       0
       0       0       0       0       0       0       0       0
       0       0       0       0       0       0       0       0
       0       0       0       0       0       0       0       0
       0       0       0       0       0       0       0       0
       0       0       0       0       0       0       0       0
       0       0       0       0       0       0       0       0
       0       0       0       0       0       0       0       0
       0       0       0       0       0       0       0       0
       0       0       0       0       0       0       0       0
       0       0       0       0       0       0       0       0
       0       0       0       0       0       0       0       0
       0       0       0       0       0       0       0       0
       0       0       0       0       0       0       0       0
       0       0       0       0       0       0       0       0
       0       0       0       0       0       0       0       0
       0       0       0       0       0       0       0       0
       0       0       0       0       0       0       0       0
       0       0       0       0       0       0       0       0
       0       0       0       0       0       0       0       0
       0       0       0       0       0       0       0       0
       0       0       0       0       0       0       0       0
       0       0       0       0       0       0       0       0
       0       0       0       0       0       0       0       0
       0       0       0       0       0       0       0       0
       0       0       0       0       0       0       0       0
       0       0       0       0       0       0       0       0
       0       0       0       0       0       0       0       0
       0       0       0       0       0       0       0       0
       0       0       0       0       0       0       0       0
       0       0       0       0       0       0       0       0
       0       0       0       0       0       0       0       0
       0       0       0       0       0       0       0       0
       0       0       0       0       0       0       0       0
       0       0       0       0       0       0       0       0
       0       0       0       0       0       0       0       0
       0       0       0       0       0       0       0       0
       0       0       0       0       0       0       0       0
       0       0       0       0       0       0       0       0
       0       0       0       0       0       0       0       0
       0       0       0       0       0       0       0       0
       0       0       0       0       0       0       0       0
       0       0       0       0       0       0       0       0
       0       0       0       0       0       0       0       0
       0       0       0       0       0       0       0       0
       0       0       0       0       0       0       0       0
       0       0       0       0       0       0       0       0
       0       0       0       0       0       0       0       0
       0       0       0       0       0       0       0       0
       0       0       0       0       0       0       0       0
       0       0       0       0       0       0       0       0
       0       0       0       0       0       0       0       0
       0       0       0       0       0       0       0       0
       0       0       0       0       0       0       0       0
       0       0       0       0       0       0       0       0
       0       0       0       0       0       0       0       0
       0       0       0       0       0       0       0       0
       0       0       0       0       0       0       0       0
       0       0       0       0       0       0       0       0
       0       0       0       0       0       0       0       0
       0       0       0       0       0       0       0       0
       0       0       0       0       0       0       0       0
       0       0       0       0       0       0       0       0
       0       0       0       0       0       0       0       0
       0       0       0       0       0       0       0       0
       0       0       0       0       0       0       0       0
       0       0       0       0       0       0       0       0
       0       0       0       0       0       0       0       0
       0       0       0       0       0       0       0       0
       0       0       0       0       0       0       0       0
       0       0       0       0       0       0       0       0
       0       0       0       0       0       0       0       0
       0       0       0       0       0       0       0       0
       0       0       0       0       0       0       0       0
       0       0       0       0       0       0       0       0
       0       0       0       0       0       0       0       0
       0       0       0       0       0       0       0       0
       0       0       0       0       0       0       0       0
       0       0       0       0       0       0       0       0
       0       0       0       0       0       0       0       0
       0       0       0       0       0       0       0       0
       0       0       0       0       0       0       0       0
       0       0       0       0       0       0       0       0
       0       0       0       0       0       0       0       0
       0       0       0       0       0       0       0       0
       0       0       0       0       0       0       0       0
       0       0       0       0       0       0       0       0
       0       0       0       0       0       0       0       0
       0       0       0       0       0       0       0       0
       0       0       0       0       0       0       0       0
       0       0       0       0       0       0       0       0
       0       0       0       0       0       0       0       0
       0       0       0       0       0       0       0       0
       0       0       0       0       0       0       0       0
       0       0       0       0       0       0       0       0
       0       0       0       0       0       0       0       0
       0       0       0       0       0       0       0       0
       0       0       0       0       0       0       0       0
       0       0       0       0       0       0       0       0
       0       0       0       0       0       0       0       0
       0       0       0       0       0       0       0       0
       0       0       0       0       0       0       0       0
       0       0       0       0       0       0       0       0
       0       0       0       0       0       0       0       0
       0       0       0       0       0       0       0       0
       0       0       0       0       0       0       0       0
       0       0       0       0       0       0       0       0
       0       0       0       0       0       0       0       0
       0       0       0       0       0       0       0       0
       0       0       0       0       0       0       0       0
       0       0       0       0       0       0       0       0
       0       0       0       0       0       0       0       0
       0       0       0       0       0       0       0       0
       0       0       0       0       0       0       0       0
       0       0       0       0       0       0       0       0
       0       0       0       0       0       0       0       0
       0       0       0       0       0       0       0       0
       0       0       0       0       0       0       0       0
       0       0       0       0       0       0       0       0
       0       0       0       0       0       0       0       0
       0       0       0       0       0       0       0       0
       0       0       0       0       0       0       0       0
       0       0       0       0       0       0       0       0
       0       0       0       0       0       0       0       0
       0       0       0       0       0       0       0       0
       0       0       0       0       0       0       0       0
       0       0       0       0       0       0       0       0
       0       0       0       0       0       0       0       0
       0       0       0       0       0       0       0       0
       0       0       0       0       0       0       0       0
       0       0       0       0       0       0       0       0
       0       0       0       0       0       0       0       0
       0       0       0       0       0       0       0       0
       0       0       0       0       0       0       0       0
       0       0       0       0       0       0       0       0
       0       0       0       0       0       0       0       0
       0       0       0       0       0       0       0       0
       0       0       0       0       0       0       0       0
       0       0       0       0       0       0       0       0
       0       0       0       0       0       0       0       0
       0       0       0       0       0       0       0       0
       0       0       0       0       0       0       0       0
       0       0       0       0       0       0       0       0
       0       0       0       0       0       0       0       0
       0       0       0       0       0       0       0       0
       0       0       0       0       0       0       0       0
       0       0       0       0       0       0       0       0
       0       0       0       0       0       0       0       0
       0       0       0       0       0       0       0       0
       0       0       0       0       0       0       0       0
       0       0       0       0       0       0       0       0
       0       0       0       0       0       0       0       0
       0       0       0       0       0       0       0       0
       0       0       0       0       0       0       0       0
       0       0       0       0       0       0       0       0
       0       0       0       0       0       0       0       0
       0       0       0       0       0       0       0       0
       0       0       0       0       0       0       0       0
       0       0       0       0       0       0       0       0
       0       0       0       0       0       0       0       0
       0       0       0       0       0       0       0       0
       0       0       0       0       0       0       0       0
       0       0       0       0       0       0       0       0
       0       0       0       0       0       0       0       0
       0       0       0       0       0       0       0       0
       0       0       0       0       0       0       0       0
       0       0       0       0       0       0       0       0
       0       0       0       0       0       0       0       0
       0       0       0       0       0       0       0       0
       0       0       0       0       0       0       0       0
       0       0       0       0       0       0       0       0
       0       0       0       0       0       0       0       0
       0       0       0       0       0       0       0       0
       0       0       0       0       0       0       0       0
       0       0       0       0       0       0       0       0
       0       0       0       0       0       0       0       0
       0       0       0       0       0       0       0       0
       0       0       0       0       0       0       0       0
       0       0       0       0       0       0       0       0
       0       0       0       0       0       0       0       0
       0       0       0       0       0       0       0       0
       0       0       0       0       0       0       0       0
       0       0       0       0       0       0       0       0
       0       0       0       0       0       0       0       0
       0       0       0       0       0       0       0       0
       0       0       0       0       0       0       0       0
       0       0       0       0       0       0       0       0
       0       0       0       0       0       0       0       0
       0       0       0       0       0       0       0       0
       0       0       0       0       0       0       0       0
       0       0       0       0       0       0       0       0
       0       0       0       0       0       0       0       0
       0       0       0       0       0       0       0       0
       0       0       0       0       0       0       0       0
       0       0       0       0       0       0       0       0
       0       0       0       0       0       0       0       0
       0       0       0       0       0       0       0       0
       0       0       0       0       0       0       0       0
       0       0       0       0       0       0       0       0
       0       0       0       0       0       0       0       0
       0       0       0       0       0       0       0       0
       0       0       0       0       0       0       0       0
       0       0       0       0       0       0       0       0
       0       0       0       0       0       0       0       0
       0       0       0       0       0       0       0       0
       0       0       0       0       0       0       0       0
       0       0       0       0       0       0       0       0
       0       0       0       0       0       0       0       0
       0       0       0       0       0       0       0       0
       0       0       0       0       0       0       0       0
       0       0       0       0       0       0       0       0
       0       0       0       0       0       0       0       0
       0       0       0       0       0       0       0       0
       0       0       0       0       0       0       0       0
       0       0       0       0       0       0       0       0
       0       0       0       0       0       0       0       0
       0       0       0       0       0       0       0       0
       0       0       0       0       0       0       0       0
       0       0       0       0       0       0       0       0
       0       0       0       0       0       0       0       0
       0       0       0       0       0       0       0       0
       0       0       0       0       0       0       0       0
       0       0       0       0       0       0       0       0
       0       0       0       0       0       0       0       0
       0       0       0       0       0       0       0       0
       0       0       0       0       0       0       0       0
       0       0       0       0       0       0       0       0
       0       0       0       0       0       0       0       0
       0       0       0       0       0       0       0       0
       0       0       0       0       0       0       0       0
       0       0       0       0       0       0       0       0
       0       0       0       0       0       0       0       0
       0       0       0       0       0       0       0       0
       0       0       0       0       0       0       0       0
       0       0       0       0       0       0       0       0
       0       0       0       0       0       0       0       0
       0       0       0       0       0       0       0       0
       0       0       0       0       0       0       0       0
       0       0       0       0       0       0       0       0
       0       0       0       0       0       0       0       0
       0       0       0       0       0       0       0       0
       0       0       0       0       0       0       0       0
       0       0       0       0       0       0       0       0
       0       0       0       0       0       0       0       0
       0       0       0       0       0       0       0       0
       0       0       0       0       0       0       0       0
       0       0       0       0       0       0       0       0
       0       0       0       0       0       0       0       0
       0       0       0       0       0       0       0       0
       0       0       0       0       0       0       0       0
       0       0       0       0       0       0       0       0
       0       0       0       0       0       0       0       0
       0       0       0       0       0       0       0       0
       0       0       0       0       0       0       0       0
       0       0       0       0       0       0       0       0
       0       0       0       0       0       0       0       0
       0       0       0       0       0       0       0       0
       0       0       0       0       0       0       0       0
       0       0       0       0       0       0       0       0
       0       0       0       0       0       0       0       0
       0       0       0       0       0       0       0       0
       0       0       0       0       0       0       0       0
       0       0       0       0       0       0       0       0
       0       0       0       0       0       0       0       0
       0       0       0       0       0       0       0       0
       0       0       0       0       0       0       0       0
       0       0       0       0       0       0       0       0
       0       0       0       0       0       0       0       0
       0       0       0       0       0       0       0       0
       0       0       0       0       0       0       0       0
       0       0       0       0       0       0       0       0
       0       0       0       0       0       0       0       0
       0       0       0       0       0       0       0       0
       0       0       0       0       0       0       0       0
       0       0       0       0       0       0       0       0
       0       0       0       0       0       0       0       0
       0       0       0       0       0       0       0       0
       0       0       0       0       0       0       0       0
       0       0       0       0       0       0       0       0
       0       0       0       0       0       0       0       0
       0       0       0       0       0       0       0       0
       0       0       0       0       0       0       0       0
       0       0       0       0       0       0       0       0
       0       0       0       0       0       0       0       0
       0       0       0       0       0       0       0       0
       0       0       0       0       0       0       0       0
       0       0       0       0       0       0       0       0
       0       0       0       0       0       0       0       0
       0       0       0       0       0       0       0       0
       0       0       0       0       0       0       0       0
       0       0       0       0       0       0       0       0
       0       0       0       0       0       0       0       0
       0       0       0       0       0       0       0       0
       0       0       0       0       0       0       0       0
       0       0       0       0       0       0       0       0
       0       0       0       0       0       0       0       0
       0       0       0       0       0       0       0       0
       0       0       0       0       0       0       0       0
       0       0       0       0       0       0       0       0
       0       0       0       0       0       0       0       0
       0       0       0       0       0       0       0       0
       0       0       0       0       0       0       0       0
       0       0       0       0       0       0       0       0
       0       0       0       0       0       0       0       0
       0       0       0       0       0       0       0       0
       0       0       0       0       0       0       0       0
       0       0       0       0       0       0       0       0
       0       0       0       0       0       0       0       0
       0       0       0       0       0       0       0       0
       0       0       0       0       0       0       0       0
       0       0       0       0       0       0       0       0
       0       0       0       0       0       0       0       0
       0       0       0       0       0       0       0       0
       0       0       0       0       0       0       0       0
       0       0       0       0       0       0       0       0
       0       0       0       0       0       0       0       0
       0       0       0       0       0       0       0       0
       0       0       0       0       0       0       0       0
       0       0       0       0       0       0       0       0
       0       0       0       0       0       0       0       0
       0       0       0       0       0       0       0       0
       0       0       0       0       0       0       0       0
       0       0       0       0       0       0       0       0
       0       0       0       0       0       0       0       0
       0       0       0       0       0       0       0       0
       0       0       0       0       0       0       0       0
       0       0       0       0       0       0       0       0
       0       0       0       0       0       0       0       0
       0       0       0       0       0       0       0       0
       0       0       0       0       0       0       0       0
       0       0       0       0       0       0       0       0
       0       0       0       0       0       0       0       0
       0       0       0       0       0       0       0       0
       0       0       0       0       0       0       0       0
       0       0       0       0       0       0       0       0
       0       0       0       0       0       0       0       0
       0       0       0       0       0       0       0       0
       0       0       0       0       0       0       0       0
       0       0       0       0       0       0       0       0
       0       0       0       0       0       0       0       0
       0       0       0       0       0       0       0       0
       0       0       0       0       0       0       0       0
       0       0       0       0       0       0       0       0
       0       0       0       0       0       0       0       0
       0       0       0       0       0       0       0       0
       0       0       0       0       0       0       0       0
       0       0       0       0       0       0       0       0
       0       0       0       0       0       0       0       0
       0       0       0       0       0       0       0       0
       0       0       0       0       0       0       0       0
       0       0       0       0       0       0       0       0
       0       0       0       0       0       0       0       0
       0       0       0       0       0       0       0       0
       0       0       0       0       0       0       0       0
       0       0       0       0       0       0       0       0
       0       0       0       0       0       0       0       0
       0       0       0       0       0       0       0       0
       0       0       0       0       0       0       0       0
       0       0       0       0       0       0       0       0
       0       0       0       0       0       0       0       0
       0       0       0       0       0       0       0       0
       0       0       0       0       0       0       0       0
       0       0       0       0       0       0       0       0
       0       0       0       0       0       0       0       0
       0       0       0       0       0       0       0       0
       0       0       0       0       0       0       0       0
       0       0       0       0       0       0       0       0
       0       0       0       0       0       0       0       0
       0       0       0       0       0       0       0       0
       0       0       0       0       0       0       0       0
       0       0       0       0       0       0       0       0
       0       0       0       0       0       0       0       0
       0       0       0       0       0       0       0       0
       0       0       0       0       0       0       0       0
       0       0       0       0       0       0       0       0
       0       0       0       0       0       0       0       0
       0       0       0       0       0       0       0       0
       0       0       0       0       0       0       0       0
       0       0       0       0       0       0       0       0
       0       0       0       0       0       0       0       0
       0       0       0       0       0       0       0       0
       0       0       0       0       0       0       0       0
       0       0       0       0       0       0       0       0
       0       0       0       0       0       0       0       0
       0       0       0       0       0       0       0       0
       0       0       0       0       0       0       0       0
       0       0       0       0       0       0       0       0
       0       0       0       0       0       0       0       0
       0       0       0       0       0       0       0       0
       0       0       0       0       0       0       0       0
       0       0       0       0       0       0       0       0
       0       0       0       0       0       0       0       0
       0       0       0       0       0       0       0       0
       0       0       0       0       0       0       0       0
       0       0       0       0       0       0       0       0
       0       0       0       0       0       0       0       0
       0       0       0       0       0       0       0       0
       0       0       0       0       0       0       0       0
       0       0       0       0       0       0       0       0
       0       0       0       0       0       0       0       0
       0       0       0       0       0       0       0       0
       0       0       0       0       0       0       0       0
       0       0       0       0       0       0       0       0
       0       0       0       0       0       0       0       0
       0       0       0       0       0       0       0       0
       0       0       0       0       0       0       0       0
       0       0       0       0       0       0       0       0
       0       0       0       0       0       0       0       0
       0       0       0       0       0       0       0       0
       0       0       0       0       0       0       0       0
       0       0       0       0       0       0       0       0
       0       0       0       0       0       0       0       0
       0       0       0       0       0       0       0       0
       0       0       0       0       0       0       0       0
       0       0       0       0       0       0       0       0
       0       0       0       0       0       0       0       0
       0       0       0       0       0       0       0       0
       0       0       0       0       0       0       0       0
       0       0       0       0       0       0       0       0
       0       0       0       0       0       0       0       0
       0       0       0       0       0       0       0       0
       0       0       0       0       0       0       0       0
       0       0       0       0       0       0       0       0
       0       0       0       0       0       0       0       0
       0       0       0       0       0       0       0       0
       0       0       0       0       0       0       0       0
       0       0       0       0       0       0       0       0
       0       0       0       0       0       0       0       0
       0       0       0       0       0       0       0       0
       0       0       0       0       0       0       0       0
       0       0       0       0       0       0       0       0
       0       0       0       0       0       0       0       0
       0       0       0       0       0       0       0       0
       0       0       0       0       0       0       0       0
       0       0       0       0       0       0       0       0
       0       0       0       0       0       0       0       0
       0       0       0       0       0       0       0       0
       0       0       0       0       0       0       0       0
       0       0       0       0       0       0       0       0
       0       0       0       0       0       0       0       0
       0       0       0       0       0       0       0       0
       0       0       0       0       0       0       0       0
       0       0       0       0       0       0       0       0
       0       0       0       0       0       0       0       0
       0       0       0       0       0       0       0       0
       0       0       0       0       0       0       0       0
       0       0       0       0       0       0       0       0
       0       0       0       0       0       0       0       0
       0       0       0       0       0       0       0       0
       0       0       0       0       0       0       0       0
       0       0       0       0       0       0       0       0
       0       0       0       0       0       0       0       0
       0       0       0       0       0       0       0       0
       0       0       0       0       0       0       0       0
       0       0       0       0       0       0       0       0
       0       0       0       0       0       0       0       0
       0       0       0       0       0       0       0       0
       0       0       0       0       0       0       0       0
       0       0       0       0       0       0       0       0
       0       0       0       0       0       0       0       0
       0       0       0       0       0       0       0       0
       0       0       0       0       0       0       0       0
       0       0       0       0       0       0       0       0
       0       0       0       0       0       0       0       0
       0       0       0       0       0       0       0       0
       0       0       0       0       0       0       0       0
       0       0       0       0       0       0       0       0
       0       0       0       0       0       0       0       0
       0       0       0       0       0       0       0       0
       0       0       0       0       0       0       0       0
       0       0       0       0       0       0       0       0
       0       0       0       0       0       0       0       0
       0       0       0       0       0       0       0       0
       0       0       0       0       0       0       0       0
       0       0       0       0       0       0       0       0
       0       0       0       0       0       0       0       0
       0       0       0       0       0       0       0       0
       0       0       0       0       0       0       0       0
       0       0       0       0       0       0       0       0
       0       0       0       0       0       0       0       0
       0       0       0       0       0       0       0       0
       0       0       0       0       0       0       0       0
       0       0       0       0       0       0       0       0
       0       0       0       0       0       0       0       0
       0       0       0       0       0       0       0       0
       0       0       0       0       0       0       0       0
       0       0       0       0       0       0       0       0
       0       0       0       0       0       0       0       0
       0       0       0       0       0       0       0       0
       0       0       0       0       0       0       0       0
       0       0       0       0       0       0       0       0
       0       0       0       0       0       0       0       0
       0       0       0       0       0       0       0       0
       0       0       0       0       0       0       0       0
       0       0       0       0       0       0       0       0
       0       0       0       0       0       0       0       0
       0       0       0       0       0       0       0       0
       0       0       0       0       0       0       0       0
       0       0       0       0       0       0       0       0
       0       0       0       0       0       0       0       0
       0       0       0       0       0       0       0       0
       0       0       0       0       0       0       0       0
       0       0       0       0       0       0       0       0
       0       0       0       0       0       0       0       0
       0       0       0       0       0       0       0       0
       0       0       0       0       0       0       0       0
       0       0       0       0       0       0       0       0
       0       0       0       0       0       0       0       0
       0       0       0       0       0       0       0       0
       0       0       0       0       0       0       0       0
       0       0       0       0       0       0       0       0
       0       0       0       0       0       0       0       0
       0       0       0       0       0       0       0       0
       0       0       0       0       0       0       0       0
       0       0       0       0       0       0       0       0
       0       0       0       0       0       0       0       0
       0       0       0       0       0       0       0       0
       0       0       0       0       0       0       0       0
       0       0       0       0       0       0       0       0
       0       0       0       0       0       0       0       0
       0       0       0       0       0       0       0       0
       0       0       0       0       0       0       0       0
       0       0       0       0       0       0       0       0
       0       0       0       0       0       0       0       0
       0       0       0       0       0       0       0       0
       0       0       0       0       0       0       0       0
       0       0       0       0       0       0       0       0
       0       0       0       0       0       0       0       0
       0       0       0       0       0       0       0       0
       0       0       0       0       0       0       0       0
       0       0       0       0       0       0       0       0
       0       0       0       0       0       0       0       0
       0       0       0       0       0       0       0       0
       0       0       0       0       0       0       0       0
       0       0       0       0       0       0       0       0
       0       0       0       0       0       0       0       0
       0       0       0       0       0       0       0       0
       0       0       0       0       0       0       0       0
       0       0       0       0       0       0       0       0
       0       0       0       0       0       0       0       0
       0       0       0       0       0       0       0       0
       0       0       0       0       0       0       0       0
       0       0       0       0       0       0       0       0
       0       0       0       0       0       0       0       0
       0       0       0       0       0       0       0       0
       0       0       0       0       0       0       0       0
       0       0       0       0       0       0       0       0
       0       0       0       0       0       0       0       0
       0       0       0       0       0       0       0       0
       0       0       0       0       0       0       0       0
       0       0       0       0       0       0       0       0
       0       0       0       0       0       0       0       0
       0       0       0       0       0       0       0       0
       0       0       0       0       0       0       0       0
       0       0       0       0       0       0       0       0
       0       0       0       0       0       0       0       0
       0       0       0       0       0       0       0       0
       0       0       0       0       0       0       0       0
       0       0       0       0       0       0       0       0
       0       0       0       0       0       0       0       0
       0       0       0       0       0       0       0       0
       0       0       0       0       0       0       0       0
       0       0       0       0       0       0       0       0
       0       0       0       0       0       0       0       0
       0       0       0       0       0       0       0       0
       0       0       0       0       0       0       0       0
       0       0       0       0       0       0       0       0
       0       0       0       0       0       0       0       0
       0       0       0       0       0       0       0       0
       0       0       0       0       0       0       0       0
       0       0       0       0       0       0       0       0
       0       0       0       0       0       0       0       0
       0       0       0       0       0       0       0       0
       0       0       0       0       0       0       0       0
       0       0       0       0       0       0       0       0
       0       0       0       0       0       0       0       0
       0       0       0       0       0       0       0       0
       0       0       0       0       0       0       0       0
       0       0       0       0       0       0       0       0
       0       0       0       0       0       0       0       0
       0       0       0       0       0       0       0       0
       0       0       0       0       0       0       0       0
       0       0       0       0       0       0       0       0
       0       0       0       0       0       0       0       0
       0       0       0       0       0       0       0       0
       0       0       0       0       0       0       0       0
       0       0       0       0       0       0       0       0
       0       0       0       0       0       0       0       0
       0       0       0       0       0       0       0       0
       0       0       0       0       0       0       0       0
       0       0       0       0       0       0       0       0
       0       0       0       0       0       0       0       0
       0       0       0       0       0       0       0       0
       0       0       0       0       0       0       0       0
       0       0       0       0       0       0       0       0
       0       0       0       0       0       0       0       0
       0       0       0       0       0       0       0       0
       0       0       0       0       0       0       0       0
       0       0       0       0       0       0       0       0
       0       0       0       0       0       0       0       0
       0       0       0       0       0       0       0       0
       0       0       0       0       0       0       0       0
       0       0       0       0       0       0       0       0
       0       0       0       0       0       0       0       0
       0       0       0       0       0       0       0       0
       0       0       0       0       0       0       0       0
       0       0       0       0       0       0       0       0
       0       0       0       0       0       0       0       0
       0       0       0       0       0       0       0       0
       0       0       0       0       0       0       0       0
       0       0       0       0       0       0       0       0
       0       0       0       0       0       0       0       0
       0       0       0       0       0       0       0       0
       0       0       0       0       0       0       0       0
       0       0       0       0       0       0       0       0
       0       0       0       0       0       0       0       0
       0       0       0       0       0       0       0       0
       0       0       0       0       0       0       0       0
       0       0       0       0       0       0       0       0
       0       0       0       0       0       0       0       0
       0       0       0       0       0       0       0       0
       0       0       0       0       0       0       0       0
       0       0       0       0       0       0       0       0
       0       0       0       0       0       0       0       0
       0       0       0       0       0       0       0       0
       0       0       0       0       0       0       0       0
       0       0       0       0       0       0       0       0
       0       0       0       0       0       0       0       0
       0       0       0       0       0       0       0       0
       0       0       0       0       0       0       0       0
       0       0       0       0       0       0       0       0
       0       0       0       0       0       0       0       0
       0       0       0       0       0       0       0       0
       0       0       0       0       0       0       0       0
       0       0       0       0       0       0       0       0
       0       0       0       0       0       0       0       0
       0       0       0       0       0       0       0       0
       0       0       0       0       0       0       0       0
       0       0       0       0       0       0       0       0
       0       0       0       0       0       0       0       0
       0       0       0       0       0       0       0       0
       0       0       0       0       0       0       0       0
       0       0       0       0       0       0       0       0
       0       0       0       0       0       0       0       0
       0       0       0       0       0       0       0       0
       0       0       0       0       0       0       0       0
       0       0       0       0       0       0       0       0
       0       0       0       0       0       0       0       0
       0       0       0       0       0       0       0       0
       0       0       0       0       0       0       0       0
       0       0       0       0       0       0       0       0
       0       0       0       0       0       0       0       0
       0       0       0       0       0       0       0       0
       0       0       0       0       0       0       0       0
       0       0       0       0       0       0       0       0
       0       0       0       0       0       0       0       0
       0       0       0       0       0       0       0       0
       0       0       0       0       0       0       0       0
       0       0       0       0       0       0       0       0
       0       0       0       0       0       0       0       0
       0       0       0       0       0       0       0       0
       0       0       0       0       0       0       0       0
       0       0       0       0       0       0       0       0
       0       0       0       0       0       0       0       0
       0       0       0       0       0       0       0       0
       0       0       0       0       0       0       0       0
       0       0       0       0       0       0       0       0
       0       0       0       0       0       0       0       0
       0       0       0       0       0       0       0       0
       0       0       0       0       0       0       0       0
       0       0       0       0       0       0       0       0
       0       0       0       0       0       0       0       0
       0       0       0       0       0       0       0       0
       0       0       0       0       0       0       0       0
       0       0       0       0       0       0       0       0
       0       0       0       0       0       0       0       0
       0       0       0       0       0       0       0       0
       0       0       0       0       0       0       0       0
       0       0       0       0       0       0       0       0
       0       0       0       0       0       0       0       0
       0       0       0       0       0       0       0       0
       0       0       0       0       0       0       0       0
       0       0       0       0       0       0       0       0
       0       0       0       0       0       0       0       0
       0       0       0       0       0       0       0       0
       0       0       0       0       0       0       0       0
       0       0       0       0       0       0       0       0
       0       0       0       0       0       0       0       0
       0       0       0       0       0       0       0       0
       0       0       0       0       0       0       0       0
       0       0       0       0       0       0       0       0
       0       0       0       0       0       0       0       0
       0       0       0       0       0       0       0       0
       0       0       0       0       0       0       0       0
       0       0       0       0       0       0       0       0
       0       0       0       0       0       0       0       0
       0       0       0       0       0       0       0       0
       0       0       0       0       0       0       0       0
       0       0       0       0       0       0       0       0
       0       0       0       0       0       0       0       0
       0       0       0       0       0       0       0       0
       0       0       0       0       0       0       0       0
       0       0       0       0       0       0       0       0
       0       0       0       0       0       0       0       0
       0       0       0       0       0       0       0       0
       0       0       0       0       0       0       0       0
       0       0       0       0       0       0       0       0
       0       0       0       0       0       0       0       0
       0       0       0       0       0       0       0       0
       0       0       0       0       0       0       0       0
       0       0       0       0       0       0       0       0
       0       0       0       0       0       0       0       0
       0       0       0       0       0       0       0       0
       0       0       0       0       0       0       0       0
       0       0       0       0       0       0       0       0
       0       0       0       0       0       0       0       0
       0       0       0       0       0       0       0       0
       0       0       0       0       0       0       0       0
       0       0       0       0       0       0       0       0
       0       0       0       0       0       0       0       0
       0       0       0       0       0       0       0       0
       0       0       0       0       0       0       0       0
       0       0       0       0       0       0       0       0
       0       0       0       0       0       0       0       0
       0       0       0       0       0       0       0       0
       0       0       0       0       0       0       0       0
       0       0       0       0       0       0       0       0
       0       0       0       0       0       0       0       0
       0       0       0       0       0       0       0       0
       0       0       0       0       0       0       0       0
       0       0       0       0       0       0       0       0
       0       0       0       0       0       0       0       0
       0       0       0       0       0       0       0       0
       0       0       0       0       0       0       0       0
       0       0       0       0       0       0       0       0
       0       0       0       0       0       0       0       0
       0       0       0       0       0       0       0       0
       0       0       0       0       0       0       0       0
       0       0       0       0       0       0       0       0
       0       0       0       0       0       0       0       0
       0       0       0       0       0       0       0       0
       0       0       0       0       0       0       0       0
       0       0       0       0       0       0       0       0
       0       0       0       0       0       0       0       0
       0       0       0       0       0       0       0       0
       0       0       0       0       0       0       0       0
       0       0       0       0       0       0       0       0
       0       0       0       0       0       0       0       0
       0       0       0       0       0       0       0       0
       0       0       0       0       0       0       0       0
       0       0       0       0       0       0       0       0
       0       0       0       0       0       0       0       0
       0       0       0       0       0       0       0       0
       0       0       0       0       0       0       0       0
       0       0       0       0       0       0       0       0
       0       0       0       0       0       0       0       0
       0       0       0       0       0       0       0       0
       0       0       0       0       0       0       0       0
       0       0       0       0       0       0       0       0
       0       0       0       0       0       0       0       0
       0       0       0       0       0       0       0       0
       0       0       0       0       0       0       0       0
       0       0       0       0       0       0       0       0
       0       0       0       0       0       0       0       0
       0       0       0       0       0       0       0       0
       0       0       0       0       0       0       0       0
       0       0       0       0       0       0       0       0
       0       0       0       0       0       0       0       0
       0       0       0       0       0       0       0       0
       0       0       0       0       0       0       0       0
       0       0       0       0       0       0       0       0
       0       0       0       0       0       0       0       0
       0       0       0       0       0       0       0       0
       0       0       0       0       0       0       0       0
       0       0       0       0       0       0       0       0
       0       0       0       0       0       0       0       0
       0       0       0       0       0       0       0       0
       0       0       0       0       0       0       0       0
       0       0       0       0       0       0       0       0
       0       0       0       0       0       0       0       0
       0       0       0       0       0       0       0       0
       0       0       0       0       0       0       0       0
       0       0       0       0       0       0       0       0
       0       0       0       0       0       0       0       0
       0       0       0       0       0       0       0       0
       0       0       0       0       0       0       0       0
       0       0       0       0       0       0       0       0
       0       0       0       0       0       0       0       0
       0       0       0       0       0       0       0       0
       0       0       0       0       0       0       0       0
       0       0       0       0       0       0       0       0
       0       0       0       0       0       0       0       0
       0       0       0       0       0       0       0       0
       0       0       0       0       0       0       0       0
       0       0       0       0       0       0       0       0
       0       0       0       0       0       0       0       0
       0       0       0       0       0       0       0       0
       0       0       0       0       0       0       0       0
       0       0       0       0       0       0       0       0
       0       0       0       0       0       0       0       0
       0       0       0       0       0       0       0       0
       0       0       0       0       0       0       0       0
       0       0       0       0       0       0       0       0
       0       0       0       0       0       0       0       0
       0       0       0       0       0       0       0       0
       0       0       0       0       0       0       0       0
       0       0       0       0       0       0       0       0
       0       0       0       0       0       0       0       0
       0       0       0       0       0       0       0       0
       0       0       0       0       0       0       0       0
       0       0       0       0       0       0       0       0
       0       0       0       0       0       0       0       0
       0       0       0       0       0       0       0       0
       0       0       0       0       0       0       0       0
       0       0       0       0       0       0       0       0
       0       0       0       0       0       0       0       0
       0       0       0       0       0       0       0       0
       0       0       0       0       0       0       0       0
       0       0       0       0       0       0       0       0
       0       0       0       0       0       0       0       0
       0       0       0       0       0       0       0       0
       0       0       0       0       0       0       0       0
       0       0       0       0       0       0       0       0
       0       0       0       0       0       0       0       0
       0       0       0       0       0       0       0       0
       0       0       0       0       0       0       0       0
       0       0       0       0       0       0       0       0
       0       0       0       0       0       0       0       0
       0       0       0       0       0       0       0       0
       0       0       0       0       0       0       0       0
       0       0       0       0       0       0       0       0
       0       0       0       0       0       0       0       0
       0       0       0       0       0       0       0       0
       0       0       0       0       0       0       0       0
       0       0       0       0       0       0       0       0
       0       0       0       0       0       0       0       0
       0       0       0       0       0       0       0       0
       0       0       0       0       0       0       0       0
       0       0       0       0       0       0       0       0
       0       0       0       0       0       0       0       0
       0       0       0       0       0       0       0       0
       0       0       0       0       0       0       0       0
       0       0       0       0       0       0       0       0
       0       0       0       0       0       0       0       0
       0       0       0       0       0       0       0       0
       0       0       0       0       0       0       0       0
       0       0       0       0       0       0       0       0
       0       0       0       0       0       0       0       0
       0       0       0       0       0       0       0       0
       0       0       0       0       0       0       0       0
       0       0       0       0       0       0       0       0
       0       0       0       0       0       0       0       0
       0       0       0       0       0       0       0       0
       0       0       0       0       0       0       0       0
       0       0       0       0       0       0       0       0
       0       0       0       0       0       0       0       0
       0       0       0       0       0       0       0       0
       0       0       0       0       0       0       0       0
       0       0       0       0       0       0       0       0
       0       0       0       0       0       0       0       0
       0       0       0       0       0       0       0       0
       0       0       0       0       0       0       0       0
       0       0       0       0       0       0       0       0
       0       0       0       0       0       0       0       0
       0       0       0       0       0       0       0       0
       0       0       0       0       0       0       0       0
       0       0       0       0       0       0       0       0
       0       0       0       0       0       0       0       0
       0       0       0       0       0       0       0       0
       0       0       0       0       0       0       0       0
       0       0       0       0       0       0       0       0
       0       0       0       0       0       0       0       0
       0       0       0       0       0       0       0       0
       0       0       0       0       0       0       0       0
       0       0       0       0       0       0       0       0
       0       0       0       0       0       0       0       0
       0       0       0       0       0       0       0       0
       0       0       0       0       0       0       0       0
       0       0       0       0       0       0       0       0
       0       0       0       0       0       0       0       0
       0       0       0       0       0       0       0       0
       0       0       0       0       0       0       0       0
       0       0       0       0       0       0       0       0
       0       0       0       0       0       0       0       0
       0       0       0       0       0       0       0       0
       0       0       0       0       0       0       0       0
       0       0       0       0       0       0       0       0
       0       0       0       0       0       0       0       0
       0       0       0       0       0       0       0       0
       0       0       0       0       0       0       0       0
       0       0       0       0       0       0       0       0
       0       0       0       0       0       0       0       0
       0       0       0       0       0       0       0       0
       0       0       0       0       0       0       0       0
       0       0       0       0       0       0       0       0
       0       0       0       0       0       0       0       0
       0       0       0       0       0       0       0       0
       0       0       0       0       0       0       0       0
       0       0       0       0       0       0       0       0
       0       0       0       0       0       0       0       0
       0       0       0       0       0       0       0       0
       0       0       0       0       0       0       0       0
       0       0       0       0       0       0       0       0
       0       0       0       0       0       0       0       0
       0       0       0       0       0       0       0       0
       0       0       0       0       0       0       0       0
       0       0       0       0       0       0       0       0
       0       0       0       0       0       0       0       0
       0       0       0       0       0       0       0       0
       0       0       0       0       0       0       0       0
       0       0       0       0       0       0       0       0
       0       0       0       0       0       0       0       0
       0       0       0       0       0       0       0       0
       0       0       0       0       0       0       0       0
       0       0       0       0       0       0       0       0
       0       0       0       0       0       0       0       0
       0       0       0       0       0       0       0       0
       0       0       0       0       0       0       0       0
       0       0       0       0       0       0       0       0
       0       0       0       0       0       0       0       0
       0       0       0       0       0       0       0       0
       0       0       0       0       0       0       0       0
       0       0       0       0       0       0       0       0
       0       0       0       0       0       0       0       0
       0       0       0       0       0       0       0       0
       0       0       0       0       0       0       0       0
       0       0       0       0       0       0       0       0
       0       0       0       0       0       0       0       0
       0       0       0       0       0       0       0       0
       0       0       0       0       0       0       0       0
       0       0       0       0       0       0       0       0
       0       0       0       0       0       0       0       0
       0       0       0       0       0       0       0       0
       0       0       0       0       0       0       0       0
       0       0       0       0       0       0       0       0
       0       0       0       0       0       0       0       0
       0       0       0       0       0       0       0       0
       0       0       0       0       0       0       0       0
       0       0       0       0       0       0       0       0
       0       0       0       0       0       0       0       0
       0       0       0       0       0       0       0       0
       0       0       0       0       0       0       0       0
       0       0       0       0       0       0       0       0
       0       0       0       0       0       0       0       0
       0       0       0       0       0       0       0       0
       0       0       0       0       0       0       0       0
       0       0       0       0       0       0       0       0
       0       0       0       0       0       0       0       0
       0       0       0       0       0       0       0       0
       0       0       0       0       0       0       0       0
       0       0       0       0       0       0       0       0
       0       0       0       0       0       0       0       0
       0       0       0       0       0       0       0       0
       0       0       0       0       0       0       0       0
       0       0       0       0       0       0       0       0
       0       0       0       0       0       0       0       0
       0       0       0       0       0       0       0       0
       0       0       0       0       0       0       0       0
       0       0       0       0       0       0       0       0
       0       0       0       0       0       0       0       0
       0       0       0       0       0       0       0       0
       0       0       0       0       0       0       0       0
       0       0       0       0       0       0       0       0
       0       0       0       0       0       0       0       0
       0       0       0       0       0       0       0       0
       0       0       0       0       0       0       0       0
       0       0       0       0       0       0       0       0
       0       0       0       0       0       0       0       0
       0       0       0       0       0       0       0       0
       0       0       0       0       0       0       0       0
       0       0       0       0       0       0       0       0
       0       0       0       0       0       0       0       0
       0       0       0       0       0       0       0       0
       0       0       0       0       0       0       0       0
       0       0       0       0       0       0       0       0
       0       0       0       0       0       0       0       0
       0       0       0       0       0       0       0       0
       0       0       0       0       0       0       0       0
       0       0       0       0       0       0       0       0
       0       0       0       0       0       0       0       0
       0       0       0       0       0       0       0       0
       0       0       0       0       0       0       0       0
       0       0       0       0       0       0       0       0
       0       0       0       0       0       0       0       0
       0       0       0       0       0       0       0       0
       0       0       0       0       0       0       0       0
       0       0       0       0       0       0       0       0
       0       0       0       0       0       0       0       0
       0       0       0       0       0       0       0       0
       0       0       0       0       0       0       0       0
       0       0       0       0       0       0       0       0
       0       0       0       0       0       0       0       0
       0       0       0       0       0       0       0       0
       0       0       0       0       0       0       0       0
       0       0       0       0       0       0       0       0
       0       0       0       0       0       0       0       0
       0       0       0       0       0       0       0       0
       0       0       0       0       0       0       0       0
       0       0       0       0       0       0       0       0
       0       0       0       0       0       0       0       0
       0       0       0       0       0       0       0       0
       0       0       0       0       0       0       0       0
       0       0       0       0       0       0       0       0
       0       0       0       0       0       0       0       0
       0       0       0       0       0       0       0       0
       0       0       0       0       0       0       0       0
       0       0       0       0       0       0       0       0
       0       0       0       0       0       0       0       0
       0       0       0       0       0       0       0       0
       0       0       0       0       0       0       0       0
       0       0       0       0       0       0       0       0
       0       0       0       0       0       0       0       0
       0       0       0       0       0       0       0       0
       0       0       0       0       0       0       0       0
       0       0       0       0       0       0       0       0
       0       0       0       0       0       0       0       0
       0       0       0       0       0       0       0       0
       0       0       0       0       0       0       0       0
       0       0       0       0       0       0       0       0
       0       0       0       0       0       0       0       0
       0       0       0       0       0       0       0       0
       0       0       0       0       0       0       0       0
       0       0       0       0       0       0       0       0
       0       0       0       0       0       0       0       0
       0       0       0       0       0       0       0       0
       0       0       0       0       0       0       0       0
       0       0       0       0       0       0       0       0
       0       0       0       0       0       0       0       0
       0       0       0       0       0       0       0       0
       0       0       0       0       0       0       0       0
       0       0       0       0       0       0       0       0
       0       0       0       0       0       0       0       0
       0       0       0       0       0       0       0       0
       0       0       0       0       0       0       0       0
       0       0       0       0       0       0       0       0
       0       0       0       0       0       0       0       0
       0       0       0       0       0       0       0       0
       0       0       0       0       0       0       0       0
       0       0       0       0       0       0       0       0
       0       0       0       0       0       0       0       0
       0       0       0       0       0       0       0       0
       0       0       0       0       0       0       0       0
       0       0       0       0       0       0       0       0
       0       0       0       0       0       0       0       0
       0       0       0       0       0       0       0       0
       0       0       0       0       0       0       0       0
       0       0       0       0       0       0       0       0
       0       0       0       0       0       0       0       0
       0       0       0       0       0       0       0       0
       0       0       0       0       0       0       0       0
       0       0       0       0       0       0       0       0
       0       0       0       0       0       0       0       0
       0       0       0       0       0       0       0       0
       0       0       0       0       0       0       0       0
       0       0       0       0       0       0       0       0
       0       0       0       0       0       0       0       0
       0       0       0       0       0       0       0       0
       0       0       0       0       0       0       0       0
       0       0       0       0       0       0       0       0
       0       0       0       0       0       0       0       0
       0       0       0       0       0       0       0       0
       0       0       0       0       0       0       0       0
       0       0       0       0       0       0       0       0
       0       0       0       0       0       0       0       0
       0       0       0       0       0       0       0       0
       0       0       0       0       0       0       0       0
       0       0       0       0       0       0       0       0
       0       0       0       0       0       0       0       0
       0       0       0       0       0       0       0       0
       0       0       0       0       0       0       0       0
       0       0       0       0       0       0       0       0
       0       0       0       0       0       0       0       0
       0       0       0       0       0       0       0       0
       0       0       0       0       0       0       0       0
       0       0       0       0       0       0       0       0
       0       0       0       0       0       0       0       0
       0       0       0       0       0       0       0       0
       0       0       0       0       0       0       0       0
       0       0       0       0       0       0       0       0
       0       0       0       0       0       0       0       0
       0       0       0       0       0       0       0       0
       0       0       0       0       0       0       0       0
       0       0       0       0       0       0       0       0
       0       0       0       0       0       0       0       0
       0       0       0       0       0       0       0       0
       0       0       0       0       0       0       0       0
       0       0       0       0       0       0       0       0
       0       0       0       0       0       0       0       0
       0       0       0       0       0       0       0       0
       0       0       0       0       0       0       0       0
       0       0       0       0       0       0       0       0
       0       0       0       0       0       0       0       0
       0       0       0       0       0       0       0       0
       0       0       0       0       0       0       0       0
       0       0       0       0       0       0       0       0
       0       0       0       0       0       0       0       0
       0       0       0       0       0       0       0       0
       0       0       0       0       0       0       0       0
       0       0       0       0       0       0       0       0
       0       0       0       0       0       0       0       0
       0       0       0       0       0       0       0       0
       0       0       0       0       0       0       0       0
       0       0       0       0       0       0       0       0
       0       0       0       0       0       0       0       0
       0       0       0       0       0       0       0       0
       0       0       0       0       0       0       0       0
       0       0       0       0       0       0       0       0
       0       0       0       0       0       0       0       0
       0       0       0       0       0       0       0       0
       0       0       0       0       0       0       0       0
       0       0       0       0       0       0       0       0
       0       0       0       0       0       0       0       0
       0       0       0       0       0       0       0       0
       0       0       0       0       0       0       0       0
       0       0       0       0       0       0       0       0
       0       0       0       0       0       0       0       0
       0       0       0       0       0       0       0       0
       0       0       0       0       0       0       0       0
       0       0       0       0       0       0       0       0
       0       0       0       0       0       0       0       0
       0       0       0       0       0       0       0       0
       0       0       0       0       0       0       0       0
       0       0       0       0       0       0       0       0
       0       0       0       0       0       0       0       0
       0       0       0       0       0       0       0       0
       0       0       0       0       0       0       0       0
       0       0       0       0       0       0       0       0
       0       0       0       0       0       0       0       0
       0       0       0       0       0       0       0       0
       0       0       0       0       0       0       0       0
       0       0       0       0       0       0       0       0
       0       0       0       0       0       0       0       0
       0       0       0       0       0       0       0       0
       0       0       0       0       0       0       0       0
       0       0       0       0       0       0       0       0
       0       0       0       0       0       0       0       0
       0       0       0       0       0       0       0       0
       0       0       0       0       0       0       0       0
       0       0       0       0       0       0       0       0
       0       0       0       0       0       0       0       0
       0       0       0       0       0       0       0       0
       0       0       0       0       0       0       0       0
       0       0       0       0       0       0       0       0
       0       0       0       0       0       0       0       0
       0       0       0       0       0       0       0       0
       0       0       0       0       0       0       0       0
       0       0       0       0       0       0       0       0
       0       0       0       0       0       0       0       0
       0       0       0       0       0       0       0       0
       0       0       0       0       0       0       0       0
       0       0       0       0       0       0       0       0
       0       0       0       0       0       0       0       0
       0       0       0       0       0       0       0       0
       0       0       0       0       0       0       0       0
       0       0       0       0       0       0       0       0
       0       0       0       0       0       0       0       0
       0       0       0       0       0       0       0       0
       0       0       0       0       0       0       0       0
       0       0       0       0       0       0       0       0
       0       0       0       0       0       0       0       0
       0       0       0       0       0       0       0       0
       0       0       0       0       0       0       0       0
       0       0       0       0       0       0       0       0
       0       0       0       0       0       0       0       0
       0       0       0       0       0       0       0       0
       0       0       0       0       0       0       0       0
       0       0       0       0       0       0       0       0
       0       0       0       0       0       0       0       0
       0       0       0       0       0       0       0       0
       0       0       0       0       0       0       0       0
       0       0       0       0       0       0       0       0
       0       0       0       0       0       0       0       0
       0       0       0       0       0       0       0       0
       0       0       0       0       0       0       0       0
       0       0       0       0       0       0       0       0
       0       0       0       0       0       0       0       0
       0       0       0       0       0       0       0       0
       0       0       0       0       0       0       0       0
       0       0       0       0       0       0       0       0
       0       0       0       0       0       0       0       0
       0       0       0       0       0       0       0       0
       0       0       0       0       0       0       0       0
       0       0       0       0       0       0       0       0
       0       0       0       0       0       0       0       0
       0       0       0       0       0       0       0       0
       0       0       0       0       0       0       0       0
       0       0       0       0       0       0       0       0
       0       0       0       0       0       0       0       0
       0       0       0       0       0       0       0       0
       0       0       0       0       0       0       0       0
       0       0       0       0       0       0       0       0
       0       0       0       0       0       0       0       0
       0       0       0       0       0       0       0       0
       0       0       0       0       0       0       0       0
       0       0       0       0       0       0       0       0
       0       0       0       0       0       0       0       0
       0       0       0       0       0       0       0       0
       0       0       0       0       0       0       0       0
       0       0       0       0       0       0       0       0
       0       0       0       0       0       0       0       0
       0       0       0       0       0       0       0       0
       0       0       0       0       0       0       0       0
       0       0       0       0       0       0       0       0
       0       0       0       0       0       0       0       0
       0       0       0       0       0       0       0       0
       0       0       0       0       0       0       0       0
       0       0       0       0       0       0       0       0
       0       0       0       0       0       0       0       0
       0       0       0       0       0       0       0       0
       0       0       0       0       0       0       0       0
       0       0       0       0       0       0       0       0
       0       0       0       0       0       0       0       0
       0       0       0       0       0       0       0       0
       0       0       0       0       0       0       0       0
       0       0       0       0       0       0       0       0
       0       0       0       0       0       0       0       0
       0       0       0       0       0       0       0       0
       0       0       0       0       0       0       0       0
       0       0       0       0       0       0       0       0
       0       0       0       0       0       0       0       0
       0       0       0       0       0       0       0       0
       0       0       0       0       0       0       0       0
       0       0       0       0       0       0       0       0
       0       0       0       0       0       0       0       0
       0       0       0       0       0       0       0       0
       0       0       0       0       0       0       0       0
       0       0       0       0       0       0       0       0
       0       0       0       0       0       0       0       0
       0       0       0       0       0       0       0       0
       0       0       0       0       0       0       0       0
       0       0       0       0       0       0       0       0
       0       0       0       0       0       0       0       0
       0       0       0       0       0       0       0       0
       0       0       0       0       0       0       0       0
       0       0       0       0       0       0       0       0
       0       0       0       0       0       0       0       0
       0       0       0       0       0       0       0       0
       0       0       0       0       0       0       0       0
       0       0       0       0       0       0       0       0
       0       0       0       0       0       0       0       0
       0       0       0       0       0       0       0       0
       0       0       0       0       0       0       0       0
       0       0       0       0       0       0       0       0
       0       0       0       0       0       0       0       0
       0       0       0       0       0       0       0       0
       0       0       0       0       0       0       0       0
       0       0       0       0       0       0       0       0
       0       0       0       0       0       0       0       0
       0       0       0       0       0       0       0       0
       0       0       0       0       0       0       0       0
       0       0       0       0       0       0       0       0
       0       0       0       0       0       0       0       0
       0       0       0       0       0       0       0       0
       0       0       0       0       0       0       0       0
       0       0       0       0       0       0       0       0
       0       0       0       0       0       0       0       0
       0       0       0       0       0       0       0       0
       0       0       0       0       0       0       0       0
       0       0       0       0       0       0       0       0
       0       0       0       0       0       0       0       0
       0       0       0       0       0       0       0       0
       0       0       0       0       0       0       0       0
       0       0       0       0       0       0       0       0
       0       0       0       0       0       0       0       0
       0       0       0       0       0       0       0       0
       0       0       0       0       0       0       0       0
       0       0       0       0       0       0       0       0
       0       0       0       0       0       0       0       0
       0       0       0       0       0       0       0       0
       0       0       0       0       0       0       0       0
       0       0       0       0       0       0       0       0
       0       0       0       0       0       0       0       0
       0       0       0       0       0       0       0       0
       0       0       0       0       0       0       0       0
       0       0       0       0       0       0       0       0
       0       0       0       0       0       0       0       0
       0       0       0       0       0       0       0       0
       0       0       0       0       0       0       0       0
       0       0       0       0       0       0       0       0
       0       0       0       0       0       0       0       0
       0       0       0       0       0       0       0       0
       0       0       0       0       0       0       0       0
       0       0       0       0       0       0       0       0
       0       0       0       0       0       0       0       0
       0       0       0       0       0       0       0       0
       0       0       0       0       0       0       0       0
       0       0       0       0       0       0       0       0
       0       0       0       0       0       0       0       0
       0       0       0       0       0       0       0       0
       0       0       0       0       0       0       0       0
       0       0       0       0       0       0       0       0
       0       0       0       0       0       0       0       0
       0       0       0       0       0       0       0       0
       0       0       0       0       0       0       0       0
       0       0       0       0       0       0       0       0
       0       0       0       0       0       0       0       0
       0       0       0       0       0       0       0       0
       0       0       0       0       0       0       0       0
       0       0       0       0       0       0       0       0
       0       0       0       0       0       0       0       0
       0       0       0       0       0       0       0       0
       0       0       0       0       0       0       0       0
       0       0       0       0       0       0       0       0
       0       0       0       0       0       0       0       0
       0       0       0       0       0       0       0       0
       0       0       0       0       0       0       0       0
       0       0       0       0       0       0       0       0
       0       0       0       0       0       0       0       0
       0       0       0       0       0       0       0       0
       0       0       0       0       0       0       0       0
       0       0       0       0       0       0       0       0
       0       0       0       0       0       0       0       0
       0       0       0       0       0       0       0       0
       0       0       0       0       0       0       0       0
       0       0       0       0       0       0       0       0
       0       0       0       0       0       0       0       0
       0       0       0       0       0       0       0       0
       0       0       0       0       0       0       0       0
       0       0       0       0       0       0       0       0
       0       0       0       0       0       0       0       0
       0       0       0       0       0       0       0       0
       0       0       0       0       0       0       0       0
       0       0       0       0       0       0       0       0
       0       0       0       0       0       0       0       0
       0       0       0       0       0       0       0       0
       0       0       0       0       0       0       0       0
       0       0       0       0       0       0       0       0
       0       0       0       0       0       0       0       0
       0       0       0       0       0       0       0       0
       0       0       0       0       0       0       0       0
       0       0       0       0       0       0       0       0
       0       0       0       0       0       0       0       0
       0       0       0       0       0       0       0       0
       0       0       0       0       0       0       0       0
       0       0       0       0       0       0       0       0
       0       0       0       0       0       0       0       0
       0       0       0       0       0       0       0       0
       0       0       0       0       0       0       0       0
       0       0       0       0       0       0       0       0
       0       0       0       0       0       0       0       0
       0       0       0       0       0       0       0       0
       0       0       0       0       0       0       0       0
       0       0       0       0       0       0       0       0
       0       0       0       0       0       0       0       0
       0       0       0       0       0       0       0       0
       0       0       0       0       0       0       0       0
       0       0       0       0       0       0       0       0
       0       0       0       0       0       0       0       0
       0       0       0       0       0       0       0       0
       0       0       0       0       0       0       0       0
       0       0       0       0       0       0       0       0
       0       0       0       0       0       0       0       0
       0       0       0       0       0       0       0       0
       0       0       0       0       0       0       0       0
       0       0       0       0       0       0       0       0
       0       0       0       0       0       0       0       0
       0       0       0       0       0       0       0       0
       0       0       0       0       0       0       0       0
       0       0       0       0       0       0       0       0
       0       0       0       0       0       0       0       0
       0       0       0       0       0       0       0       0
       0       0       0       0       0       0       0       0
       0       0       0       0       0       0       0       0
       0       0       0       0       0       0       0       0
       0       0       0       0       0       0       0       0
       0       0       0       0       0       0       0       0
       0       0       0       0       0       0       0       0
       0       0       0       0       0       0       0       0
       0       0       0       0       0       0       0       0
       0       0       0       0       0       0       0       0
       0       0       0       0       0       0       0       0
       0       0       0       0       0       0       0       0
       0       0       0       0       0       0       0       0
       0       0       0       0       0       0       0       0
       0       0       0       0       0       0       0       0
       0       0       0       0       0       0       0       0
       0       0       0       0       0       0       0       0
       0       0       0       0       0       0       0       0
       0       0       0       0       0       0       0       0
       0       0       0       0       0       0       0       0
       0       0       0       0       0       0       0       0
       0       0       0       0       0       0       0       0
       0       0       0       0       0       0       0       0
       0       0       0       0       0       0       0       0
       0       0       0       0       0       0       0       0
       0       0       0       0       0       0       0       0
       0       0       0       0       0       0       0       0
       0       0       0       0       0       0       0       0
       0       0       0       0       0       0       0       0
       0       0       0       0       0       0       0       0
       0       0       0       0       0       0       0       0
       0       0       0       0       0       0       0       0
       0       0       0       0       0       0       0       0
       0       0       0       0       0       0       0       0
       0       0       0       0       0       0       0       0
       0       0       0       0       0       0       0       0
       0       0       0       0       0       0       0       0
       0       0       0       0       0       0       0       0
       0       0       0       0       0       0       0       0
       0       0       0       0       0       0       0       0
       0       0       0       0       0       0       0       0
       0       0       0       0       0       0       0       0
       0       0       0       0       0       0       0       0
       0       0       0       0       0       0       0       0
       0       0       0       0       0       0       0       0
       0       0       0       0       0       0       0       0
       0       0       0       0       0       0       0       0
       0       0       0       0       0       0       0       0
       0       0       0       0       0       0       0       0
       0       0       0       0       0       0       0       0
       0       0       0       0       0       0       0       0
       0       0       0       0       0       0       0       0
       0       0       0       0       0       0       0       0
       0       0       0       0       0       0       0       0
       0       0       0       0       0       0       0       0
       0       0       0       0       0       0       0       0
       0       0       0       0       0       0       0       0
       0       0       0       0       0       0       0       0
       0       0       0       0       0       0       0       0
       0       0       0       0       0       0       0       0
       0       0       0       0       0       0       0       0
       0       0       0       0       0       0       0       0
       0       0       0       0       0       0       0       0
       0       0       0       0       0       0       0       0
       0       0       0       0       0       0       0       0
       0       0       0       0       0       0       0       0
       0       0       0       0       0       0       0       0
       0       0       0       0       0       0       0       0
       0       0       0       0       0       0       0       0
       0       0       0       0       0       0       0       0
       0       0       0       0       0       0       0       0
       0       0       0       0       0       0       0       0
       0       0       0       0       0       0       0       0
       0       0       0       0       0       0       0       0
       0       0       0       0       0       0       0       0
       0       0       0       0       0       0       0       0
       0       0       0       0       0       0       0       0
       0       0       0       0       0       0       0       0
       0       0       0       0       0       0       0       0
       0       0       0       0       0       0       0       0
       0       0       0       0       0       0       0       0
       0       0       0       0       0       0       0       0
       0       0       0       0       0       0       0       0
       0       0       0       0       0       0       0       0
       0       0       0       0       0       0       0       0
       0       0       0       0       0       0       0       0
       0       0       0       0       0       0       0       0
       0       0       0       0       0       0       0       0
       0       0       0       0       0       0       0       0
       0       0       0       0       0       0       0       0
       0       0       0       0       0       0       0       0
       0       0       0       0       0       0       0       0
       0       0       0       0       0       0       0       0
       0       0       0       0       0       0       0       0
       0       0       0       0       0       0       0       0
       0       0       0       0       0       0       0       0
       0       0       0       0       0       0       0       0
       0       0       0       0       0       0       0       0
       0       0       0       0       0       0       0       0
       0       0       0       0       0       0       0       0
       0       0       0       0       0       0       0       0
       0       0       0       0       0       0       0       0
       0       0       0       0       0       0       0       0
       0       0       0       0       0       0       0       0
       0       0       0       0       0       0       0       0
       0       0       0       0       0       0       0       0
       0       0       0       0       0       0       0       0
       0       0       0       0       0       0       0       0
       0       0       0       0       0       0       0       0
       0       0       0       0       0       0       0       0
       0       0       0       0       0       0       0       0
       0       0       0       0       0       0       0       0
       0       0       0       0       0       0       0       0
       0       0       0       0       0       0       0       0
       0       0       0       0       0       0       0       0
       0       0       0       0       0       0       0       0
       0       0       0       0       0       0       0       0
       0       0       0       0       0       0       0       0
       0       0       0       0       0       0       0       0
       0       0       0       0       0       0       0       0
       0       0       0       0       0       0       0       0
       0       0       0       0       0       0       0       0
       0       0       0       0       0       0       0       0
       0       0       0       0       0       0       0       0
       0       0       0       0       0       0       0       0
       0       0       0       0       0       0       0       0
       0       0       0       0       0       0       0       0
       0       0       0       0       0       0       0       0
       0       0       0       0       0       0       0       0
       0       0       0       0       0       0       0       0
       0       0       0       0       0       0       0       0
       0       0       0       0       0       0       0       0
       0       0       0       0       0       0       0       0
       0       0       0       0       0       0       0       0
       0       0       0       0       0       0       0       0
       0       0       0       0       0       0       0       0
       0       0       0       0       0       0       0       0
       0       0       0       0       0       0       0       0
       0       0       0       0       0       0       0       0
       0       0       0       0       0       0       0       0
       0       0       0       0       0       0       0       0
       0       0       0       0       0       0       0       0
       0       0       0       0       0       0       0       0
       0       0       0       0       0       0       0       0
       0       0       0       0       0       0       0       0
       0       0       0       0       0       0       0       0
       0       0       0       0       0       0       0       0
       0       0       0       0       0       0       0       0
       0       0       0       0       0       0       0       0
       0       0       0       0       0       0       0       0
       0       0       0       0       0       0       0       0
       0       0       0       0       0       0       0       0
       0       0       0       0       0       0       0       0
       0       0       0       0       0       0       0       0
       0       0       0       0       0       0       0       0
       0       0       0       0       0       0       0       0
       0       0       0       0       0       0       0       0
       0       0       0       0       0       0       0       0
       0       0       0       0       0       0       0       0
       0       0       0       0       0       0       0       0
       0       0       0       0       0       0       0       0
       0       0       0       0       0       0       0       0
       0       0       0       0       0       0       0       0
       0       0       0       0       0       0       0       0
       0       0       0       0       0       0       0       0
       0       0       0       0       0       0       0       0
       0       0       0       0       0       0       0       0
       0       0       0       0       0       0       0       0
       0       0       0       0       0       0       0       0
       0       0       0       0       0       0       0       0
       0       0       0       0       0       0       0       0
       0       0       0       0       0       0       0       0
       0       0       0       0       0       0       0       0
       0       0       0       0       0       0       0       0
       0       0       0       0       0       0       0       0
       0       0       0       0       0       0       0       0
       0       0       0       0       0       0       0       0
       0       0       0       0       0       0       0       0
       0       0       0       0       0       0       0       0
       0       0       0       0       0       0       0       0
       0       0       0       0       0       0       0       0
       0       0       0       0       0       0       0       0
       0       0       0       0       0       0       0       0
       0       0       0       0       0       0       0       0
       0       0       0       0       0       0       0       0
       0       0       0       0       0       0       0       0
       0       0       0       0       0       0       0       0
       0       0       0       0       0       0       0       0
       0       0       0       0       0       0       0       0
       0       0       0       0       0       0       0       0
       0       0       0       0       0       0       0       0
       0       0       0       0       0       0       0       0
       0       0       0       0       0       0       0       0
       0       0       0       0       0       0       0       0
       0       0       0       0       0       0       0       0
       0       0       0       0       0       0       0       0
       0       0       0       0       0       0       0       0
       0       0       0       0       0       0       0       0
       0       0       0       0       0       0       0       0
       0       0       0       0       0       0       0       0
       0       0       0       0       0       0       0       0
       0       0       0       0       0       0       0       0
       0       0       0       0       0       0       0       0
       0       0       0       0       0       0       0       0
       0       0       0       0       0       0       0       0
       0       0       0       0       0       0       0       0
       0       0       0       0       0       0       0       0
       0       0       0       0       0       0       0       0
       0       0       0       0       0       0       0       0
       0       0       0       0       0       0       0       0
       0       0       0       0       0       0       0       0
       0       0       0       0       0       0       0       0
       0       0       0       0       0       0       0       0
       0       0       0       0       0       0       0       0
       0       0       0       0       0       0       0       0
       0       0       0       0       0       0       0       0
       0       0       0       0       0       0       0       0
       0       0       0       0       0       0       0       0
       0       0       0       0       0       0       0       0
       0       0       0       0       0       0       0       0
       0       0       0       0       0       0       0       0
       0       0       0       0       0       0       0       0
       0       0       0       0       0       0       0       0
       0       0       0       0       0       0       0       0
       0       0       0       0       0       0       0       0
       0       0       0       0       0       0       0       0
       0       0       0       0       0       0       0       0
       0       0       0       0       0       0       0       0
       0       0       0       0       0       0       0       0
       0       0       0       0       0       0       0       0
       0       0       0       0       0       0       0       0
       0       0       0       0       0       0       0       0
       0       0       0       0       0       0       0       0
       0       0       0       0       0       0       0       0
       0       0       0       0       0       0       0       0
       0       0       0       0       0       0       0       0
       0       0       0       0       0       0       0       0
       0       0       0       0       0       0       0       0
       0       0       0       0       0       0       0       0
       0       0       0       0       0       0       0       0
       0       0       0       0       0       0       0       0
       0       0       0       0       0       0       0       0
       0       0       0       0       0       0       0       0
       0       0       0       0       0       0       0       0
       0       0       0       0       0       0       0       0
       0       0       0       0       0       0       0       0
       0       0       0       0       0       0       0       0
       0       0       0       0       0       0       0       0
       0       0       0       0       0       0       0       0
       0       0       0       0       0       0       0       0
       0       0       0       0       0       0       0       0
       0       0       0       0       0       0       0       0
       0       0       0       0       0       0       0       0
       0       0       0       0       0       0       0       0
       0       0       0       0       0       0       0       0
       0       0       0       0       0       0       0       0
       0       0       0       0       0       0       0       0
       0       0       0       0       0       0       0       0
       0       0       0       0       0       0       0       0
       0       0       0       0       0       0       0       0
       0       0       0       0       0       0       0       0
       0       0       0       0       0       0       0       0
       0       0       0       0       0       0       0       0
       0       0       0       0       0       0       0       0
       0       0       0       0       0       0       0       0
       0       0       0       0       0       0       0       0
       0       0       0       0       0       0       0       0
       0       0       0       0       0       0       0       0
       0       0       0       0       0       0       0       0
       0       0       0       0       0       0       0       0
       0       0       0       0       0       0       0       0
       0       0       0       0       0       0       0       0
       0       0       0       0       0       0       0       0
       0       0       0       0       0       0       0       0
       0       0       0       0       0       0       0       0
       0       0       0       0       0       0       0       0
       0       0       0       0       0       0       0       0
       0       0       0       0       0       0       0       0
       0       0       0       0       0       0       0       0
       0       0       0       0       0       0       0       0
       0       0       0       0       0       0       0       0
       0       0       0       0       0       0       0       0
       0       0       0       0       0       0       0       0
       0       0       0       0       0       0       0       0
       0       0       0       0       0       0       0       0
       0       0       0       0       0       0       0       0
       0       0       0       0       0       0       0       0
       0       0       0       0       0       0       0       0
       0       0       0       0       0       0       0       0
       0       0       0       0       0       0       0       0
       0       0       0       0       0       0       0       0
       0       0       0       0       0       0       0       0
       0       0       0       0       0       0       0       0
       0       0       0       0       0       0       0       0
       0       0       0       0       0       0       0       0
       0       0       0       0       0       0       0       0
       0       0       0       0       0       0       0       0
       0       0       0       0       0       0       0       0
       0       0       0       0       0       0       0       0
       0       0       0       0       0       0       0       0
       0       0       0       0       0       0       0       0
       0       0       0       0       0       0       0       0
       0       0       0       0       0       0       0       0
       0       0       0       0       0       0       0       0
       0       0       0       0       0       0       0       0
       0       0       0       0       0       0       0       0
       0       0       0       0       0       0       0       0
       0       0       0       0       0       0       0       0
       0       0       0       0       0       0       0       0
       0       0       0       0       0       0       0       0
       0       0       0       0       0       0       0       0
       0       0       0       0       0       0       0       0
       0       0       0       0       0       0       0       0
       0       0       0       0       0       0       0       0
       0       0       0       0       0       0       0       0
       0       0       0       0       0       0       0       0
       0       0       0       0       0       0       0       0
       0       0       0       0       0       0       0       0
       0       0       0       0       0       0       0       0
       0       0       0       0       0       0       0       0
       0       0       0       0       0       0       0       0
       0       0       0       0       0       0       0       0
       0       0       0       0       0       0       0       0
       0       0       0       0       0       0       0       0
       0       0       0       0       0       0       0       0
       0       0       0       0       0       0       0       0
       0       0       0       0       0       0       0       0
       0       0       0       0       0       0       0       0
       0       0       0       0       0       0       0       0
       0       0       0       0       0       0       0       0
       0       0       0       0       0       0       0       0
       0       0       0       0       0       0       0       0
       0       0       0       0       0       0       0       0
       0       0       0       0       0       0       0       0
       0       0       0       0       0       0       0       0
       0       0       0       0       0       0       0       0
       0       0       0       0       0       0       0       0
       0       0       0       0       0       0       0       0
       0       0       0       0       0       0       0       0
       0       0       0       0       0       0       0       0
       0       0       0       0       0       0       0       0
       0       0       0       0       0       0       0       0
       0       0       0       0       0       0       0       0
       0       0       0       0       0       0       0       0
       0       0       0       0       0       0       0       0
       0       0       0       0       0       0       0       0
       0       0       0       0       0       0       0       0
       0       0       0       0       0       0       0       0
       0       0       0       0       0       0       0       0
       0       0       0       0       0       0       0       0
       0       0       0       0       0       0       0       0
       0       0       0       0       0       0       0       0
       0       0       0       0       0       0       0       0
       0       0       0       0       0       0       0       0
       0       0       0       0       0       0       0       0
       0       0       0       0       0       0       0       0
       0       0       0       0       0       0       0       0
       0       0       0       0       0       0       0       0
       0       0       0       0       0       0       0       0
       0       0       0       0       0       0       0       0
       0       0       0       0       0       0       0       0
       0       0       0       0       0       0       0       0
       0       0       0       0       0       0       0       0
       0       0       0       0       0       0       0       0
       0       0       0       0       0       0       0       0
       0       0       0       0       0       0       0       0
       0       0       0       0       0       0       0       0
       0       0       0       0       0       0       0       0
       0       0       0       0       0       0       0       0
       0       0       0       0       0       0       0       0
       0       0       0       0       0       0       0       0
       0       0       0       0       0       0       0       0
       0       0       0       0       0       0       0       0
       0       0       0       0       0       0       0       0
       0       0       0       0       0       0       0       0
       0       0       0       0       0       0       0       0
       0       0       0       0       0       0       0       0
       0       0       0       0       0       0       0       0
       0       0       0       0       0       0       0       0
       0       0       0       0       0       0       0       0
       0       0       0       0       0       0       0       0
       0       0       0       0       0       0       0       0
       0       0       0       0       0       0       0       0
       0       0       0       0       0       0       0       0
       0       0       0       0       0       0       0       0
       0       0       0       0       0       0       0       0
       0       0       0       0       0       0       0       0
       0       0       0       0       0       0       0       0
       0       0       0       0       0       0       0       0
       0       0       0       0       0       0       0       0
       0       0       0       0       0       0       0       0
       0       0       0       0       0       0       0       0
       0       0       0       0       0       0       0       0
       0       0       0       0       0       0       0       0
       0       0       0       0       0       0       0       0
       0       0       0       0       0       0       0       0
       0       0       0       0       0       0       0       0
       0       0       0       0       0       0       0       0
       0       0       0       0       0       0       0       0
       0       0       0       0       0       0       0       0
       0       0       0       0       0       0       0       0
       0       0       0       0       0       0       0       0
       0       0       0       0       0       0       0       0
       0       0       0       0       0       0       0       0
       0       0       0       0       0       0       0       0
       0       0       0       0       0       0       0       0
       0       0       0       0       0       0       0       0
       0       0       0       0       0       0       0       0
       0       0       0       0       0       0       0       0
       0       0       0       0       0       0       0       0
       0       0       0       0       0       0       0       0
       0       0       0       0       0       0       0       0
       0       0       0       0       0       0       0       0
       0       0       0       0       0       0       0       0
       0       0       0       0       0       0       0       0
       0       0       0       0       0       0       0       0
       0       0       0       0       0       0       0       0
       0       0       0       0       0       0       0       0
       0       0       0       0       0       0       0       0
       0       0       0       0       0       0       0       0
       0       0       0       0       0       0       0       0
       0       0       0       0       0       0       0       0
       0       0       0       0       0       0       0       0
       0       0       0       0       0       0       0       0
       0       0       0       0       0       0       0       0
       0       0       0       0       0       0       0       0
       0       0       0       0       0       0       0       0
       0       0       0       0       0       0       0       0
       0       0       0       0       0       0       0       0
       0       0       0       0       0       0       0       0
       0       0       0       0       0       0       0       0
       0       0       0       0       0       0       0       0
       0       0       0       0       0       0       0       0
       0       0       0       0       0       0       0       0
       0       0       0       0       0       0       0       0
       0       0       0       0       0       0       0       0
       0       0       0       0       0       0       0       0
       0       0       0       0       0       0       0       0
       0       0       0       0       0       0       0       0
       0       0       0       0       0       0       0       0
       0       0       0       0       0       0       0       0
       0       0       0       0       0       0       0       0
       0       0       0       0       0       0       0       0
       0       0       0       0       0       0       0       0
       0       0       0       0       0       0       0       0
       0       0       0       0       0       0       0       0
       0       0       0       0       0       0       0       0
       0       0       0       0       0       0       0       0
       0       0       0       0       0       0       0       0
       0       0       0       0       0       0       0       0
       0       0       0       0       0       0       0       0
       0       0       0       0       0       0       0       0
       0       0       0       0       0       0       0       0
       0       0       0       0       0       0       0       0
       0       0       0       0       0       0       0       0
       0       0       0       0       0       0       0       0
       0       0       0       0       0       0       0       0
       0       0       0       0       0       0       0       0
       0       0       0       0       0       0       0       0
       0       0       0       0       0       0       0       0
       0       0       0       0       0       0       0       0
       0       0       0       0       0       0       0       0
       0       0       0       0       0       0       0       0
       0       0       0       0       0       0       0       0
       0       0       0       0       0       0       0       0
       0       0       0       0       0       0       0       0
       0       0       0       0       0       0       0       0
       0       0       0       0       0       0       0       0
       0       0       0       0       0       0       0       0
       0       0       0       0       0       0       0       0
       0       0       0       0       0       0       0       0
       0       0       0       0       0       0       0       0
       0       0       0       0       0       0       0       0
       0       0       0       0       0       0       0       0
       0       0       0       0       0       0       0       0
       0       0       0       0       0       0       0       0
       0       0       0       0       0       0       0       0
       0       0       0       0       0       0       0       0
       0       0       0       0       0       0       0       0
       0       0       0       0       0       0       0       0
       0       0       0       0       0       0       0       0
       0       0       0       0       0       0       0       0
       0       0       0       0       0       0       0       0
       0       0       0       0       0       0       0       0
       0       0       0       0       0       0       0       0
       0       0       0       0       0       0       0       0
       0       0       0       0       0       0       0       0
       0       0       0       0       0       0       0       0
       0       0       0       0       0       0       0       0
       0       0       0       0       0       0       0       0
       0       0       0       0       0       0       0       0
       0       0       0       0       0       0       0       0
       0       0       0       0       0       0       0       0
       0       0       0       0       0       0       0       0
       0       0       0       0       0       0       0       0
       0       0       0       0       0       0       0       0
       0       0       0       0       0       0       0       0
       0       0       0       0       0       0       0       0
       0       0       0       0       0       0       0       0
       0       0       0       0       0       0       0       0
       0       0       0       0       0       0       0       0
       0       0       0       0       0       0       0       0
       0       0       0       0       0       0       0       0
       0       0       0       0       0       0       0       0
       0       0       0       0       0       0       0       0
       0       0       0       0       0       0       0       0
       0       0       0       0       0       0       0       0
       0       0       0       0       0       0       0       0
       0       0       0       0       0       0       0       0
       0       0       0       0       0       0       0       0
       0       0       0       0       0       0       0       0
       0       0       0       0       0       0       0       0
       0       0       0       0       0       0       0       0
       0       0       0       0       0       0       0       0
       0       0       0       0       0       0       0       0
       0       0       0       0       0       0       0       0
       0       0       0       0       0       0       0       0
       0       0       0       0       0       0       0       0
       0       0       0       0       0       0       0       0
       0       0       0       0       0       0       0       0
       0       0       0       0       0       0       0       0
       0       0       0       0       0       0       0       0
       0       0       0       0       0       0       0       0
       0       0       0       0       0       0       0       0
       0       0       0       0       0       0       0       0
       0       0       0       0       0       0       0       0
       0       0       0       0       0       0       0       0
       0       0       0       0       0       0       0       0
       0       0       0       0       0       0       0       0
       0       0       0       0       0       0       0       0
       0       0       0       0       0       0       0       0
       0       0       0       0       0       0       0       0
       0       0       0       0       0       0       0       0
       0       0       0       0       0       0       0       0
       0       0       0       0       0       0       0       0
       0       0       0       0       0       0       0       0
       0       0       0       0       0       0       0       0
       0       0       0       0       0       0       0       0
       0       0       0       0       0       0       0       0
       0       0       0       0       0       0       0       0
       0       0       0       0       0       0       0       0
       0       0       0       0       0       0       0       0
       0       0       0       0       0       0       0       0
       0       0       0       0       0       0       0       0
       0       0       0       0       0       0       0       0
       0       0       0       0       0       0       0       0
       0       0       0       0       0       0       0       0
       0       0       0       0       0       0       0       0
       0       0       0       0       0       0       0       0
       0       0       0       0       0       0       0       0
       0       0       0       0       0       0       0       0
       0       0       0       0       0       0       0       0
       0       0       0       0       0       0       0       0
       0       0       0       0       0       0       0       0
       0       0       0       0       0       0       0       0
       0       0       0       0       0       0       0       0
       0       0       0       0       0       0       0       0
       0       0       0       0       0       0       0       0
       0       0       0       0       0       0       0       0
       0       0       0       0       0       0       0       0
       0       0       0       0       0       0       0       0
       0       0       0       0       0       0       0       0
       0       0       0       0       0       0       0       0
       0       0       0       0       0       0       0       0
       0       0       0       0       0       0       0       0
       0       0       0       0       0       0       0       0
       0       0       0       0       0       0       0       0
       0       0       0       0       0       0       0       0
       0       0       0       0       0       0       0       0
       0       0       0       0       0       0       0       0
       0       0       0       0       0       0       0       0
       0       0       0       0       0       0       0       0
       0       0       0       0       0       0       0       0
       0       0       0       0       0       0       0       0
       0       0       0       0       0       0       0       0
       0       0       0       0       0       0       0       0
       0       0       0       0       0       0       0       0
       0       0       0       0       0       0       0       0
       0       0       0       0       0       0       0       0
       0       0       0       0       0       0       0       0
       0       0       0       0       0       0       0       0
       0       0       0       0       0       0       0       0
       0       0       0       0       0       0       0       0
       0       0       0       0       0       0       0       0
       0       0       0       0       0       0       0       0
       0       0       0       0       0       0       0       0
       0       0       0       0       0       0       0       0
       0       0       0       0       0       0       0       0
       0       0       0       0       0       0       0       0
       0       0       0       0       0       0       0       0
       0       0       0       0       0       0       0       0
       0       0       0       0       0       0       0       0
       0       0       0       0       0       0       0       0
       0       0       0       0       0       0       0       0
       0       0       0       0       0       0       0       0
       0       0       0       0       0       0       0       0
       0       0       0       0       0       0       0       0
       0       0       0       0       0       0       0       0
       0       0       0       0       0       0       0       0
       0       0       0       0       0       0       0       0
       0       0       0       0       0       0       0       0
       0       0       0       0       0       0       0       0
       0       0       0       0       0       0       0       0
       0       0       0       0       0       0       0       0
       0       0       0       0       0       0       0       0
       0       0       0       0       0       0       0       0
       0       0       0       0       0       0       0       0
       0       0       0       0       0       0       0       0
       0       0       0       0       0       0       0       0
       0       0       0       0       0       0       0       0
       0       0       0       0       0       0       0       0
       0       0       0       0       0       0       0       0
       0       0       0       0       0       0       0       0
       0       0       0       0       0       0       0       0
       0       0       0       0       0       0       0       0
       0       0       0       0       0       0       0       0
       0       0       0       0       0       0       0       0
       0       0       0       0       0       0       0       0
       0       0       0       0       0       0       0       0
       0       0       0       0       0       0       0       0
       0       0       0       0       0       0       0       0
       0       0       0       0       0       0       0       0
       0       0       0       0       0       0       0       0
       0       0       0       0       0       0       0       0
       0       0       0       0       0       0       0       0
       0       0       0       0       0       0       0       0
       0       0       0       0       0       0       0       0
       0       0       0       0       0       0       0       0
       0       0       0       0       0       0       0       0
       0       0       0       0       0       0       0       0
       0       0       0       0       0       0       0       0
       0       0       0       0       0       0       0       0
       0       0       0       0       0       0       0       0
       0       0       0       0       0       0       0       0
       0       0       0       0       0       0       0       0
       0       0       0       0       0       0       0       0
       0       0       0       0       0       0       0       0
       0       0       0       0       0       0       0       0
       0       0       0       0       0       0       0       0
       0       0       0       0       0       0       0       0
       0       0       0       0       0       0       0       0
       0       0       0       0       0       0       0       0
       0       0       0       0       0       0       0       0
       0       0       0       0       0       0       0       0
       0       0       0       0       0       0       0       0
       0       0       0       0       0       0       0       0
       0       0       0       0       0       0       0       0
       0       0       0       0       0       0       0       0
       0       0       0       0       0       0       0       0
       0       0       0       0       0       0       0       0
       0       0       0       0       0       0       0       0
       0       0       0       0       0       0       0       0
       0       0       0       0       0       0       0       0
       0       0       0       0       0       0       0       0
       0       0       0       0       0       0       0       0
       0       0       0       0       0       0       0       0
       0       0       0       0       0       0       0       0
       0       0       0       0       0       0       0       0
       0       0       0       0       0       0       0       0
       0       0       0       0       0       0       0       0
       0       0       0       0       0       0       0       0
       0       0       0       0       0       0       0       0
       0       0       0       0       0       0       0       0
       0       0       0       0       0       0       0       0
       0       0       0       0       0       0       0       0
       0       0       0       0       0       0       0       0
       0       0       0       0       0       0       0       0
       0       0       0       0       0       0       0       0
       0       0       0       0       0       0       0       0
       0       0       0       0       0       0       0       0
       0       0       0       0       0       0       0       0
       0       0       0       0       0       0       0       0
       0       0       0       0       0       0       0       0
       0       0       0       0       0       0       0       0
       0       0       0       0       0       0       0       0
       0       0       0       0       0       0       0       0
       0       0       0       0       0       0       0       0
       0       0       0       0       0       0       0       0
       0       0       0       0       0       0       0       0
       0       0       0       0       0       0       0       0
       0       0       0       0       0       0       0       0
       0       0       0       0       0       0       0       0
       0       0       0       0       0       0       0       0
       0       0       0       0       0       0       0       0
       0       0       0       0       0       0       0       0
       0       0       0       0       0       0       0       0
       0       0       0       0       0       0       0       0
       0       0       0       0       0       0       0       0
       0       0       0       0       0       0       0       0
       0       0       0       0       0       0       0       0
       0       0       0       0       0       0       0       0
       0       0       0       0       0       0       0       0
       0       0       0       0       0       0       0       0
       0       0       0       0       0       0       0       0
       0       0       0       0       0       0       0       0
       0       0       0       0       0       0       0       0
       0       0       0       0       0       0       0       0
       0       0       0       0       0       0       0       0
       0       0       0       0       0       0       0       0
       0       0       0       0       0       0       0       0
       0       0       0       0       0       0       0       0
       0       0       0       0       0       0       0       0
       0       0       0       0       0       0       0       0
       0       0       0       0       0       0       0       0
       0       0       0       0       0       0       0       0
       0       0       0       0       0       0       0       0
       0       0       0       0       0       0       0       0
       0       0       0       0       0       0       0       0
       0       0       0       0       0       0       0       0
       0       0       0       0       0       0       0       0
       0       0       0       0       0       0       0       0
       0       0       0       0       0       0       0       0
       0       0       0       0       0       0       0       0
       0       0       0       0       0       0       0       0
       0       0       0       0       0       0       0       0
       0       0       0       0       0       0       0       0
       0       0       0       0       0       0       0       0
       0       0       0       0       0       0       0       0
       0       0       0       0       0       0       0       0
       0       0       0       0       0       0       0       0
       0       0       0       0       0       0       0       0
       0       0       0       0       0       0       0       0
       0       0       0       0       0       0       0       0
       0       0       0       0       0       0       0       0
       0       0       0       0       0       0       0       0
       0       0       0       0       0       0       0       0
       0       0       0       0       0       0       0       0
       0       0       0       0       0       0       0       0
       0       0       0       0       0       0       0       0
       0       0       0       0       0       0       0       0
       0       0       0       0       0       0       0       0
       0       0       0       0       0       0       0       0
       0       0       0       0       0       0       0       0
       0       0       0       0       0       0       0       0
       0       0       0       0       0       0       0       0
       0       0       0       0       0       0       0       0
       0       0       0       0       0       0       0       0
       0       0       0       0       0       0       0       0
       0       0       0       0       0       0       0       0
       0       0       0       0       0       0       0       0
       0       0       0       0       0       0       0       0
       0       0       0       0       0       0       0       0
       0       0       0       0       0       0       0       0
       0       0       0       0       0       0       0       0
       0       0       0       0       0       0       0       0
       0       0       0       0       0       0       0       0
       0       0       0       0       0       0       0       0
       0       0       0       0       0       0       0       0
       0       0       0       0       0       0       0       0
       0       0       0       0       0       0       0       0
       0       0       0       0       0       0       0       0
       0       0       0       0       0       0       0       0
       0       0       0       0       0       0       0       0
       0       0       0       0       0       0       0       0
       0       0       0       0       0       0       0       0
       0       0       0       0       0       0       0       0
       0       0       0       0       0       0       0       0
       0       0       0       0       0       0       0       0
       0       0       0       0       0       0       0       0
       0       0       0       0       0       0       0       0
       0       0       0       0       0       0       0       0
       0       0       0       0       0       0       0       0
       0       0       0       0       0       0       0       0
       0       0       0       0       0       0       0       0
       0       0       0       0       0       0       0       0
       0       0       0       0       0       0       0       0
       0       0       0       0       0       0       0       0
       0       0       0       0       0       0       0       0
       0       0       0       0       0       0       0       0
       0       0       0       0       0       0       0       0
       0       0       0       0       0       0       0       0
       0       0       0       0       0       0       0       0
       0       0       0       0       0       0       0       0
       0       0       0       0       0       0       0       0
       0       0       0       0       0       0       0       0
       0       0       0       0       0       0       0       0
       0       0       0       0       0       0       0       0
       0       0       0       0       0       0       0       0
       0       0       0       0       0       0       0       0
       0       0       0       0       0       0       0       0
       0       0       0       0       0       0       0       0
       0       0       0       0       0       0       0       0
       0       0       0       0       0       0       0       0
       0       0       0       0       0       0       0       0
       0       0       0       0       0       0       0       0
       0       0       0       0       0       0       0       0
       0       0       0       0       0       0       0       0
       0       0       0       0       0       0       0       0
       0       0       0       0       0       0       0       0
       0       0       0       0       0       0       0       0
       0       0       0       0       0       0       0       0
       0       0       0       0       0       0       0       0
       0       0       0       0       0       0       0       0
       0       0       0       0       0       0       0       0
       0       0       0       0       0       0       0       0
       0       0       0       0       0       0       0       0
       0       0       0       0       0       0       0       0
       0       0       0       0       0       0       0       0
       0       0       0       0       0       0       0       0
       0       0       0       0       0       0       0       0
       0       0       0       0       0       0       0       0
       0       0       0       0       0       0       0       0
       0       0       0       0       0       0       0       0
       0       0       0       0       0       0       0       0
       0       0       0       0       0       0       0       0
       0       0       0       0       0       0       0       0
       0       0       0       0       0       0       0       0
       0       0       0       0       0       0       0       0
       0       0       0       0       0       0       0       0
       0       0       0       0       0       0       0       0
       0       0       0       0       0       0       0       0
       0       0       0       0       0       0       0       0
       0       0       0       0       0       0       0       0
       0       0       0       0       0       0       0       0
       0       0       0       0       0       0       0       0
       0       0       0       0       0       0       0       0
       0       0       0       0       0       0       0       0
       0       0       0       0       0       0       0       0
       0       0       0       0       0       0       0       0
       0       0       0       0       0       0       0       0
       0       0       0       0       0       0       0       0
       0       0       0       0       0       0       0       0
       0       0       0       0       0       0       0       0
       0       0       0       0       0       0       0       0
       0       0       0       0       0       0       0       0
       0       0       0       0       0       0       0       0
       0       0       0       0       0       0       0       0
       0       0       0       0       0       0       0       0
       0       0       0       0       0       0       0       0
       0       0       0       0       0       0       0       0
       0       0       0       0       0       0       0       0
       0       0       0       0       0       0       0       0
       0       0       0       0       0       0       0       0
       0       0       0       0       0       0       0       0
       0       0       0       0       0       0       0       0
       0       0       0       0       0       0       0       0
       0       0       0       0       0       0       0       0
       0       0       0       0       0       0       0       0
       0       0       0       0       0       0       0       0
       0       0       0       0       0       0       0       0
       0       0       0       0       0       0       0       0
       0       0       0       0       0       0       0       0
       0       0       0       0       0       0       0       0
       0       0       0       0       0       0       0       0
       0       0       0       0       0       0       0       0
       0       0       0       0       0       0       0       0
       0       0       0       0       0       0       0       0
       0       0       0       0       0       0       0       0
       0       0       0       0       0       0       0       0
       0       0       0       0       0       0       0       0
       0       0       0       0       0       0       0       0
       0       0       0       0       0       0       0       0
       0       0       0       0       0       0       0       0
       0       0       0       0       0       0       0       0
       0       0       0       0       0       0       0       0
       0       0       0       0       0       0       0       0
       0       0       0       0       0       0       0       0
       0       0       0       0       0       0       0       0
       0       0       0       0       0       0       0       0
       0       0       0       0       0       0       0       0
       0       0       0       0       0       0       0       0
       0       0       0       0       0       0       0       0
       0       0       0       0       0       0       0       0
       0       0       0       0       0       0       0       0
       0       0       0       0       0       0       0       0
       0       0       0       0       0       0       0       0
       0       0       0       0       0       0       0       0
       0       0       0       0       0       0       0       0
       0       0       0       0       0       0       0       0
       0       0       0       0       0       0       0       0
       0       0       0       0       0       0       0       0
       0       0       0       0       0       0       0       0
       0       0       0       0       0       0       0       0
       0       0       0       0       0       0       0       0
       0       0       0       0       0       0       0       0
       0       0       0       0       0       0       0       0
       0       0       0       0       0       0       0       0
       0       0       0       0       0       0       0       0
       0       0       0       0       0       0       0       0
       0       0       0       0       0       0       0       0
       0       0       0       0       0       0       0       0
       0       0       0       0       0       0       0       0
       0       0       0       0       0       0       0       0
       0       0       0       0       0       0       0       0
       0       0       0       0       0       0       0       0
       0       0       0       0       0       0       0       0
       0       0       0       0       0       0       0       0
       0       0       0       0       0       0       0       0
       0       0       0       0       0       0       0       0
       0       0       0       0       0       0       0       0
       0       0       0       0       0       0       0       0
       0       0       0       0       0       0       0       0
       0       0       0       0       0       0       0       0
       0       0       0       0       0       0       0       0
       0       0       0       0       0       0       0       0
       0       0       0       0       0       0       0       0
       0       0       0       0       0       0       0       0
       0       0       0       0       0       0       0       0
       0       0       0       0       0       0       0       0
       0       0       0       0       0       0       0       0
       0       0       0       0       0       0       0       0
       0       0       0       0       0       0       0       0
       0       0       0       0       0       0       0       0
       0       0       0       0       0       0       0       0
       0       0       0       0       0       0       0       0
       0       0       0       0       0       0       0       0
       0       0       0       0       0       0       0       0
       0       0       0       0       0       0       0       0
       0       0       0       0       0       0       0       0
       0       0       0       0       0       0       0       0
       0       0       0       0       0       0       0       0
       0       0       0       0       0       0       0       0
       0       0       0       0       0       0       0       0
       0       0       0       0       0       0       0       0
       0       0       0       0       0       0       0       0
       0       0       0       0       0       0       0       0
       0       0       0       0       0       0       0       0
       0       0       0       0       0       0       0       0
       0       0       0       0       0       0       0       0
       0       0       0       0       0       0       0       0
       0       0       0       0       0       0       0       0
       0       0       0       0       0       0       0       0
       0       0       0       0       0       0       0       0
       0       0       0       0       0       0       0       0
       0       0       0       0       0       0       0       0
       0       0       0       0       0       0       0       0
       0       0       0       0       0       0       0       0
       0       0       0       0       0       0       0       0
       0       0       0       0       0       0       0       0
       0       0       0       0       0       0       0       0
       0       0       0       0       0       0       0       0
       0       0       0       0       0       0       0       0
       0       0       0       0       0       0       0       0
       0       0       0       0       0       0       0       0
       0       0       0       0       0       0       0       0
       0       0       0       0       0       0       0       0
       0       0       0       0       0       0       0       0
       0       0       0       0       0       0       0       0
       0       0       0       0       0       0       0       0
       0       0       0       0       0       0       0       0
       0       0       0       0       0       0       0       0
       0       0       0       0       0       0       0       0
       0       0       0       0       0       0       0       0
       0       0       0       0       0       0       0       0
       0       0       0       0       0       0       0       0
       0       0       0       0       0       0       0       0
       0       0       0       0       0       0       0       0
       0       0       0       0       0       0       0       0
       0       0       0       0       0       0       0       0
       0       0       0       0       0       0       0       0
       0       0       0       0       0       0       0       0
       0       0       0       0       0       0       0       0
       0       0       0       0       0       0       0       0
       0       0       0       0       0       0       0       0
       0       0       0       0       0       0       0       0
       0       0       0       0       0       0       0       0
       0       0       0       0       0       0       0       0
       0       0       0       0       0       0       0       0
       0       0       0       0       0       0       0       0
       0       0       0       0       0       0       0       0
       0       0       0       0       0       0       0       0
       0       0       0       0       0       0       0       0
       0       0       0       0       0       0       0       0
       0       0       0       0       0       0       0       0
       0       0       0       0       0       0       0       0
       0       0       0       0       0       0       0       0
       0       0       0       0       0       0       0       0
       0       0       0       0       0       0       0       0
       0       0       0       0       0       0       0       0
       0       0       0       0       0       0       0       0
       0       0       0       0       0       0       0       0
       0       0       0       0       0       0       0       0
       0       0       0       0       0       0       0       0
       0       0       0       0       0       0       0       0
       0       0       0       0       0       0       0       0
       0       0       0       0       0       0       0       0
       0       0       0       0       0       0       0       0
       0       0       0       0       0       0       0       0
       0       0       0       0       0       0       0       0
       0       0       0       0       0       0       0       0
       0       0       0       0       0       0       0       0
       0       0       0       0       0       0       0       0
       0       0       0       0       0       0       0       0
       0       0       0       0       0       0       0       0
       0       0       0       0       0       0       0       0
       0       0       0       0       0       0       0       0
       0       0       0       0       0       0       0       0
       0       0       0       0       0       0       0       0
       0       0       0       0       0       0       0       0
       0       0       0       0       0       0       0       0
       0       0       0       0       0       0       0       0
       0       0       0       0       0       0       0       0
       0       0       0       0       0       0       0       0
       0       0       0       0       0       0       0       0
       0       0       0       0       0       0       0       0
       0       0       0       0       0       0       0       0
       0       0       0       0       0       0       0       0
       0       0       0       0       0       0       0       0
       0       0       0       0       0       0       0       0
       0       0       0       0       0       0       0       0
       0       0       0       0       0       0       0       0
       0       0       0       0       0       0       0       0
       0       0       0       0       0       0       0       0
       0       0       0       0       0       0       0       0
       0       0       0       0       0       0       0       0
       0       0       0       0       0       0       0       0
       0       0       0       0       0       0       0       0
       0       0       0       0       0       0       0       0
       0       0       0       0       0       0       0       0
       0       0       0       0       0       0       0       0
       0       0       0       0       0       0       0       0
       0       0       0       0       0       0       0       0
       0       0       0       0       0       0       0       0
       0       0       0       0       0       0       0       0
       0       0       0       0       0       0       0       0
       0       0       0       0       0       0       0       0
       0       0       0       0       0       0       0       0
       0       0       0       0       0       0       0       0
       0       0       0       0       0       0       0       0
       0       0       0       0       0       0       0       0
       0       0       0       0       0       0       0       0
       0       0       0       0       0       0       0       0
       0       0       0       0       0       0       0       0
       0       0       0       0       0       0       0       0
       0       0       0       0       0       0       0       0
       0       0       0       0       0       0       0       0
       0       0       0       0       0       0       0       0
       0       0       0       0       0       0       0       0
       0       0       0       0       0       0       0       0
       0       0       0       0       0       0       0       0
       0       0       0       0       0       0       0       0
       0       0       0       0       0       0       0       0
       0       0       0       0       0       0       0       0
       0       0       0       0       0       0       0       0
       0       0       0       0       0       0       0       0
       0       0       0       0       0       0       0       0
       0       0       0       0       0       0       0       0
       0       0       0       0       0       0       0       0
       0       0       0       0       0       0       0       0
       0       0       0       0       0       0       0       0
       0       0       0       0       0       0       0       0
       0       0       0       0       0       0       0       0
       0       0       0       0       0       0       0       0
       0       0       0       0       0       0       0       0
       0       0       0       0       0       0       0       0
       0       0       0       0       0       0       0       0
       0       0       0       0       0       0       0       0
       0       0       0       0       0       0       0       0
       0       0       0       0       0       0       0       0
       0       0       0       0       0       0       0       0
       0       0       0       0       0       0       0       0
       0       0       0       0       0       0       0       0
       0       0       0       0       0       0       0       0
       0       0       0       0       0       0       0       0
       0       0       0       0       0       0       0       0
       0       0       0       0       0       0       0       0
       0       0       0       0       0       0       0       0
       0       0       0       0       0       0       0       0
       0       0       0       0       0       0       0       0
       0       0       0       0       0       0       0       0
       0       0       0       0       0       0       0       0
       0       0       0       0       0       0       0       0
       0       0       0       0       0       0       0       0
       0       0       0       0       0       0       0       0
       0       0       0       0       0       0       0       0
       0       0       0       0       0       0       0       0
       0       0       0       0       0       0       0       0
       0       0       0       0       0       0       0       0
       0       0       0       0       0       0       0       0
       0       0       0       0       0       0       0       0
       0       0       0       0       0       0       0       0
       0       0       0       0       0       0       0       0
       0       0       0       0       0       0       0       0
       0       0       0       0       0       0       0       0
       0       0       0       0       0       0       0       0
       0       0       0       0       0       0       0       0
       0       0       0       0       0       0       0       0
       0       0       0       0       0       0       0       0
       0       0       0       0       0       0       0       0
       0       0       0       0       0       0       0       0
       0       0       0       0       0       0       0       0
       0       0       0       0       0       0       0       0
       0       0       0       0       0       0       0       0
       0       0       0       0       0       0       0       0
       0       0       0       0       0       0       0       0
       0       0       0       0       0       0       0       0
       0       0       0       0       0       0       0       0
       0       0       0       0       0       0       0       0
       0       0       0       0       0       0       0       0
       0       0       0       0       0       0       0       0
       0       0       0       0       0       0       0       0
       0       0       0       0       0       0       0       0
       0       0       0       0       0       0       0       0
       0       0       0       0       0       0       0       0
       0       0       0       0       0       0       0       0
       0       0       0       0       0       0       0       0
       0       0       0       0       0       0       0       0
       0       0       0       0       0       0       0       0
       0       0       0       0       0       0       0       0
       0       0       0       0       0       0       0       0
       0       0       0       0       0       0       0       0
       0       0       0       0       0       0       0       0
       0       0       0       0       0       0       0       0
       0       0       0       0       0       0       0       0
       0       0       0       0       0       0       0       0
       0       0       0       0       0       0       0       0
       0       0       0       0       0       0       0       0
       0       0       0       0       0       0       0       0
       0       0       0       0       0       0       0       0
       0       0       0       0       0       0       0       0
       0       0       0       0       0       0       0       0
       0       0       0       0       0       0       0       0
       0       0       0       0       0       0       0       0
       0       0       0       0       0       0       0       0
       0       0       0       0       0       0       0       0
       0       0       0       0       0       0       0       0
       0       0       0       0       0       0       0       0
       0       0       0       0       0       0       0       0
       0       0       0       0       0       0       0       0
       0       0       0       0       0       0       0       0
       0       0       0       0       0       0       0       0
       0       0       0       0       0       0       0       0
       0       0       0       0       0       0       0       0
       0       0       0       0       0       0       0       0
       0       0       0       0       0       0       0       0
       0       0       0       0       0       0       0       0
       0       0       0       0       0       0       0       0
       0       0       0       0       0       0       0       0
       0       0       0       0       0       0       0       0
       0       0       0       0       0       0       0       0
       0       0       0       0       0       0       0       0
       0       0       0       0       0       0       0       0
       0       0       0       0       0       0       0       0
       0       0       0       0       0       0       0       0
       0       0       0       0       0       0       0       0
       0       0       0       0       0       0       0       0
       0       0       0       0       0       0       0       0
       0       0       0       0       0       0       0       0
       0       0       0       0       0       0       0       0
       0       0       0       0       0       0       0       0
       0       0       0       0       0       0       0       0
       0       0       0       0       0       0       0       0
       0       0       0       0       0       0       0       0
       0       0       0       0       0       0       0       0
       0       0       0       0       0       0       0       0
       0       0       0       0       0       0       0       0
       0       0       0       0       0       0       0       0
       0       0       0       0       0       0       0       0
       0       0       0       0       0       0       0       0
       0       0       0       0       0       0       0       0
       0       0       0       0       0       0       0       0
       0       0       0       0       0       0       0       0
       0       0       0       0       0       0       0       0
       0       0       0       0       0       0       0       0
       0       0       0       0       0       0       0       0
       0       0       0       0       0       0       0       0
       0       0       0       0       0       0       0       0
       0       0       0       0       0       0       0       0
       0       0       0       0       0       0       0       0
       0       0       0       0       0       0       0       0
       0       0       0       0       0       0       0       0
       0       0       0       0       0       0       0       0
       0       0       0       0       0       0       0       0
       0       0       0       0       0       0       0       0
       0       0       0       0       0       0       0       0
       0       0       0       0       0       0       0       0
       0       0       0       0       0       0       0       0
       0       0       0       0       0       0       0       0
       0       0       0       0       0       0       0       0
       0       0       0       0       0       0       0       0
       0       0       0       0       0       0       0       0
       0       0       0       0       0       0       0       0
       0       0       0       0       0       0       0       0
       0       0       0       0       0       0       0       0
       0       0       0       0       0       0       0       0
       0       0       0       0       0       0       0       0
       0       0       0       0       0       0       0       0
       0       0       0       0       0       0       0       0
       0       0       0       0       0       0       0       0
       0       0       0       0       0       0       0       0
       0       0       0       0       0       0       0       0
       0       0       0       0       0       0       0       0
       0       0       0       0       0       0       0       0
       0       0       0       0       0       0       0       0
       0       0       0       0       0       0       0       0
       0       0       0       0       0       0       0       0
       0       0       0       0       0       0       0       0
       0       0       0       0       0       0       0       0
       0       0       0       0       0       0       0       0
       0       0       0       0       0       0       0       0
       0       0       0       0       0       0       0       0
       0       0       0       0       0       0       0       0
       0       0       0       0       0       0       0       0
       0       0       0       0       0       0       0       0
       0       0       0       0       0       0       0       0
       0       0       0       0       0       0       0       0
       0       0       0       0       0       0       0       0
       0       0       0       0       0       0       0       0
       0       0       0       0       0       0       0       0
       0       0       0       0       0       0       0       0
       0       0       0       0       0       0       0       0
       0       0       0       0       0       0       0       0
       0       0       0       0       0       0       0       0
       0       0       0       0       0       0       0       0
       0       0       0       0       0       0       0       0
       0       0       0       0       0       0       0       0
       0       0       0       0       0       0       0       0
       0       0       0       0       0       0       0       0
       0       0       0       0       0       0       0       0
       0       0       0       0       0       0       0       0
       0       0       0       0       0       0       0       0
       0       0       0       0       0       0       0       0
       0       0       0       0       0       0       0       0
       0       0       0       0       0       0       0       0
       0       0       0       0       0       0       0       0
       0       0       0       0       0       0       0       0
       0       0       0       0       0       0       0       0
       0       0       0       0       0       0       0       0
       0       0       0       0       0       0       0       0
       0       0       0       0       0       0       0       0
       0       0       0       0       0       0       0       0
       0       0       0       0       0       0       0       0
       0       0       0       0       0       0       0       0
       0       0       0       0       0       0       0       0
       0       0       0       0       0       0       0       0
       0       0       0       0       0       0       0       0
       0       0       0       0       0       0       0       0
       0       0       0       0       0       0       0       0
       0       0       0       0       0       0       0       0
       0       0       0       0       0       0       0       0
       0       0       0       0       0       0       0       0
       0       0       0       0       0       0       0       0
       0       0       0       0       0       0       0       0
       0       0       0       0       0       0       0       0
       0       0       0       0       0       0       0       0
       0       0       0       0       0       0       0       0
       0       0       0       0       0       0       0       0
       0       0       0       0       0       0       0       0
       0       0       0       0       0       0       0       0
       0       0       0       0       0       0       0       0
       0       0       0       0       0       0       0       0
       0       0       0       0       0       0       0       0
       0       0       0       0       0       0       0       0
       0       0       0       0       0       0       0       0
       0       0       0       0       0       0       0       0
       0       0       0       0       0       0       0       0
       0       0       0       0       0       0       0       0
       0       0       0       0       0       0       0       0
       0       0       0       0       0       0       0       0
       0       0       0       0       0       0       0       0
       0       0       0       0       0       0       0       0
       0       0       0       0       0       0       0       0
       0       0       0       0       0       0       0       0
       0       0       0       0       0       0       0       0
       0       0       0       0       0       0       0       0
       0       0       0       0       0       0       0       0
       0       0       0       0       0       0       0       0
       0       0       0       0       0       0       0       0
       0       0       0       0       0       0       0       0
       0       0       0       0       0       0       0       0
       0       0       0       0       0       0       0       0
       0       0       0       0       0       0       0       0
       0       0       0       0       0       0       0       0
       0       0       0       0       0       0       0       0
       0       0       0       0       0       0       0       0
       0       0       0       0       0       0       0       0
       0       0       0       0       0       0       0       0
       0       0       0       0       0       0       0       0
       0       0       0       0       0       0       0       0
       0       0       0       0       0       0       0       0
       0       0       0       0       0       0       0       0
       0       0       0       0       0       0       0       0
       0       0       0       0       0       0       0       0
       0       0       0       0       0       0       0       0
       0       0       0       0       0       0       0       0
       0       0       0       0       0       0       0       0
       0       0       0       0       0       0       0       0
       0       0       0       0       0       0       0       0
       0       0       0       0       0       0       0       0
       0       0       0       0       0       0       0       0
       0       0       0       0       0       0       0       0
       0       0       0       0       0       0       0       0
       0       0       0       0       0       0       0       0
       0       0       0       0       0       0       0       0
       0       0       0       0       0       0       0       0
       0       0       0       0       0       0       0       0
       0       0       0       0       0       0       0       0
       0       0       0       0       0       0       0       0
       0       0       0       0       0       0       0       0
       0       0       0       0       0       0       0       0
       0       0       0       0       0       0       0       0
       0       0       0       0       0       0       0       0
       0       0       0       0       0       0       0       0
       0       0       0       0       0       0       0       0
       0       0       0       0       0       0       0       0
       0       0       0       0       0       0       0       0
       0       0       0       0       0       0       0       0
       0       0       0       0       0       0       0       0
       0       0       0       0       0       0       0       0
       0       0       0       0       0       0       0       0
       0       0       0       0       0       0       0       0
       0       0       0       0       0       0       0       0
       0       0       0       0       0       0       0       0
       0       0       0       0       0       0       0       0
       0       0       0       0       0       0       0       0
       0       0       0       0       0       0       0       0
       0       0       0       0       0       0       0       0
       0       0       0       0       0       0       0       0
       0       0       0       0       0       0       0       0
       0       0       0       0       0       0       0       0
       0       0       0       0       0       0       0       0
       0       0       0       0       0       0       0       0
       0       0       0       0       0       0       0       0
       0       0       0       0       0       0       0       0
       0       0       0       0       0       0       0       0
       0       0       0       0       0       0       0       0
       0       0       0       0       0       0       0       0
       0       0       0       0       0       0       0       0
       0       0       0       0       0       0       0       0
       0       0       0       0       0       0       0       0
       0       0       0       0       0       0       0       0
       0       0       0       0       0       0       0       0
       0       0       0       0       0       0       0       0
       0       0       0       0       0       0       0       0
       0       0       0       0       0       0       0       0
       0       0       0       0       0       0       0       0
       0       0       0       0       0       0       0       0
       0       0       0       0       0       0       0       0
       0       0       0       0       0       0       0       0
       0       0       0       0       0       0       0       0
       0       0       0       0       0       0       0       0
       0       0       0       0       0       0       0       0
       0       0       0       0       0       0       0       0
       0       0       0       0       0       0       0       0
       0       0       0       0       0       0       0       0
       0       0       0       0       0       0       0       0
       0       0       0       0       0       0       0       0
       0       0       0       0       0       0       0       0
       0       0       0       0       0       0       0       0
       0       0       0       0       0       0       0       0
       0       0       0       0       0       0       0       0
       0       0       0       0       0       0       0       0
       0       0       0       0       0       0       0       0
       0       0       0       0       0       0       0       0
       0       0       0       0       0       0       0       0
       0       0       0       0       0       0       0       0
       0       0       0       0       0       0       0       0
       0       0       0       0       0       0       0       0
       0       0       0       0       0       0       0       0
       0       0       0       0       0       0       0       0
       0       0       0       0       0       0       0       0
       0       0       0       0       0       0       0       0
       0       0       0       0       0       0       0       0
       0       0       0       0       0       0       0       0
       0       0       0       0       0       0       0       0
       0       0       0       0       0       0       0       0
       0       0       0       0       0       0       0       0
       0       0       0       0       0       0       0       0
       0       0       0       0       0       0       0       0
       0       0       0       0       0       0       0       0
       0       0       0       0       0       0       0       0
       0       0       0       0       0       0       0       0
       0       0       0       0       0       0       0       0
       0       0       0       0       0       0       0       0
       0       0       0       0       0       0       0       0
       0       0       0       0       0       0       0       0
       0       0       0       0       0       0       0       0
       0       0       0       0       0       0       0       0
       0       0       0       0       0       0       0       0
       0       0       0       0       0       0       0       0
       0       0       0       0       0       0       0       0
       0       0       0       0       0       0       0       0
       0       0       0       0       0       0       0       0
       0       0       0       0       0       0       0       0
       0       0       0       0       0       0       0       0
       0       0       0       0       0       0       0       0
       0       0       0       0       0       0       0       0
       0       0       0       0       0       0       0       0
       0       0       0       0       0       0       0       0
       0       0       0       0       0       0       0       0
       0       0       0       0       0       0       0       0
       0       0       0       0       0       0       0       0
       0       0       0       0       0       0       0       0
       0       0       0       0       0       0       0       0
       0       0       0       0       0       0       0       0
       0       0       0       0       0       0       0       0
       0       0       0       0       0       0       0       0
       0       0       0       0       0       0       0       0
       0       0       0       0       0       0       0       0
       0       0       0       0       0       0       0       0
       0       0       0       0       0       0       0       0
       0       0       0       0       0       0       0       0
       0       0       0       0       0       0       0       0
       0       0       0       0       0       0       0       0
       0       0       0       0       0       0       0       0
       0       0       0       0       0       0       0       0
       0       0       0       0       0       0       0       0
       0       0       0       0       0       0       0       0
       0       0       0       0       0       0       0       0
       0       0       0       0       0       0       0       0
       0       0       0       0       0       0       0       0
       0       0       0       0       0       0       0       0
       0       0       0       0       0       0       0       0
       0       0       0       0       0       0       0       0
       0       0       0       0       0       0       0       0
       0       0       0       0       0       0       0       0
       0       0       0       0       0       0       0       0
       0       0       0       0       0       0       0       0
       0       0       0       0       0       0       0       0
       0       0       0       0       0       0       0       0
       0       0       0       0       0       0       0       0
       0       0       0       0       0       0       0       0
       0       0       0       0       0       0       0       0
       0       0       0       0       0       0       0       0
       0       0       0       0       0       0       0       0
       0       0       0       0       0       0       0       0
       0       0       0       0       0       0       0       0
       0       0       0       0       0       0       0       0
       0       0       0       0       0       0       0       0
       0       0       0       0       0       0       0       0
       0       0       0       0       0       0       0       0
       0       0       0       0       0       0       0       0
       0       0       0       0       0       0       0       0
       0       0       0       0       0       0       0       0
       0       0       0       0       0       0       0       0
       0       0       0       0       0       0       0       0
       0       0       0       0       0       0       0       0
       0       0       0       0       0       0       0       0
       0       0       0       0       0       0       0       0
       0       0       0       0       0       0       0       0
       0       0       0       0       0       0       0       0
       0       0       0       0       0       0       0       0
       0       0       0       0       0       0       0       0
       0       0       0       0       0       0       0       0
       0       0       0       0       0       0       0       0
       0       0       0       0       0       0       0       0
       0       0       0       0       0       0       0       0
       0       0       0       0       0       0       0       0
       0       0       0       0       0       0       0       0
       0       0       0       0       0       0       0       0
       0       0       0       0       0       0       0       0
       0       0       0       0       0       0       0       0
       0       0       0       0       0       0       0       0
       0       0       0       0       0       0       0       0
       0       0       0       0       0       0       0       0
       0       0       0       0       0       0       0       0
       0       0       0       0       0       0       0       0
       0       0       0       0       0       0       0       0
       0       0       0       0       0       0       0       0
       0       0       0       0       0       0       0       0
       0       0       0       0       0       0       0       0
       0       0       0       0       0       0       0       0
       0       0       0       0       0       0       0       0
       0       0       0       0       0       0       0       0
       0       0       0       0       0       0       0       0
       0       0       0       0       0       0       0       0
       0       0       0       0       0       0       0       0
       0       0       0       0       0       0       0       0
       0       0       0       0       0       0       0       0
       0       0       0       0       0       0       0       0
       0       0       0       0       0       0       0       0
       0       0       0       0       0       0       0       0
       0       0       0       0       0       0       0       0
       0       0       0       0       0       0       0       0
       0       0       0       0       0       0       0       0
       0       0       0       0       0       0       0       0
       0       0       0       0       0       0       0       0
       0       0       0       0       0       0       0       0
       0       0       0       0       0       0       0       0
       0       0       0       0       0       0       0       0
       0       0       0       0       0       0       0       0
       0       0       0       0       0       0       0       0
       0       0       0       0       0       0       0       0
       0       0       0       0       0       0       0       0
       0       0       0       0       0       0       0       0
       0       0       0       0       0       0       0       0
       0       0       0       0       0       0       0       0
       0       0       0       0       0       0       0       0
       0       0       0       0       0       0       0       0
       0       0       0       0       0       0       0       0
       0       0       0       0       0       0       0       0
       0       0       0       0       0       0       0       0
       0       0       0       0       0       0       0       0
       0       0       0       0       0       0       0       0
       0       0       0       0       0       0       0       0
       0       0       0       0       0       0       0       0
       0       0       0       0       0       0       0       0
       0       0       0       0       0       0       0       0
       0       0       0       0       0       0       0       0
       0       0       0       0       0       0       0       0
       0       0       0       0       0       0       0       0
       0       0       0       0       0       0       0       0
       0       0       0       0       0       0       0       0
       0       0       0       0       0       0       0       0
       0       0       0       0       0       0       0       0
       0       0       0       0       0       0       0       0
       0       0       0       0       0       0       0       0
       0       0       0       0       0       0       0       0
       0       0       0       0       0       0       0       0
       0       0       0       0       0       0       0       0
       0       0       0       0       0       0       0       0
       0       0       0       0       0       0       0       0
       0       0       0       0       0       0       0       0
       0       0       0       0       0       0       0       0
       0       0       0       0       0       0       0       0
       0       0       0       0       0       0       0       0
       0       0       0       0       0       0       0       0
       0       0       0       0       0       0       0       0
       0       0       0       0       0       0       0       0
       0       0       0       0       0       0       0       0
       0       0       0       0       0       0       0       0
       0       0       0       0       0       0       0       0
       0       0       0       0       0       0       0       0
       0       0       0       0       0       0       0       0
       0       0       0       0       0       0       0       0
       0       0       0       0       0       0       0       0
       0       0       0       0       0       0       0       0
       0       0       0       0       0       0       0       0
       0       0       0       0       0       0       0       0
       0       0       0       0       0       0       0       0
       0       0       0       0       0       0       0       0
       0       0       0       0       0       0       0       0
       0       0       0       0       0       0       0       0
       0       0       0       0       0       0       0       0
       0       0       0       0       0       0       0       0
       0       0       0       0       0       0       0       0
       0       0       0       0       0       0       0       0
       0       0       0       0       0       0       0       0
       0       0       0       0       0       0       0       0
       0       0       0       0       0       0       0       0
       0       0       0       0       0       0       0       0
       0       0       0       0       0       0       0       0
       0       0       0       0       0       0       0       0
       0       0       0       0       0       0       0       0
       0       0       0       0       0       0       0       0
       0       0       0       0       0       0       0       0
       0       0       0       0       0       0       0       0
       0       0       0       0       0       0       0       0
       0       0       0       0       0       0       0       0
       0       0       0       0       0       0       0       0
       0       0       0       0       0       0       0       0
       0       0       0       0       0       0       0       0
       0       0       0       0       0       0       0       0
       0       0       0       0       0       0       0       0
       0       0       0       0       0       0       0       0
       0       0       0       0       0       0       0       0
       0       0       0       0       0       0       0       0
       0       0       0       0       0       0       0       0
       0       0       0       0       0       0       0       0
       0       0       0       0       0       0       0       0
       0       0       0       0       0       0       0       0
       0       0       0       0       0       0       0       0
       0       0       0       0       0       0       0       0
       0       0       0       0       0       0       0       0
       0       0       0       0       0       0       0       0
       0       0       0       0       0       0       0       0
       0       0       0       0       0       0       0       0
       0       0       0       0       0       0       0       0
       0       0       0       0       0       0       0       0
       0       0       0       0       0       0       0       0
       0       0       0       0       0       0       0       0
       0       0       0       0       0       0       0       0
       0       0       0       0       0       0       0       0
       0       0       0       0       0       0       0       0
       0       0       0       0       0       0       0       0
       0       0       0       0       0       0       0       0
       0       0       0       0       0       0       0       0
       0       0       0       0       0       0       0       0
       0       0       0       0       0       0       0       0
       0       0       0       0       0       0       0       0
       0       0       0       0       0       0       0       0
       0       0       0       0       0       0       0       0
       0       0       0       0       0       0       0       0
       0       0       0       0       0       0       0       0
       0       0       0       0       0       0       0       0
       0       0       0       0       0       0       0       0
       0       0       0       0       0       0       0       0
       0       0       0       0       0       0       0       0
       0       0       0       0       0       0       0       0
       0       0       0       0       0       0       0       0
       0       0       0       0       0       0       0       0
       0       0       0       0       0       0       0       0
       0       0       0       0       0       0       0       0
       0       0       0       0       0       0       0       0
       0       0       0       0       0       0       0       0
       0       0       0       0       0       0       0       0
       0       0       0       0       0       0       0       0
       0       0       0       0       0       0       0       0
       0       0       0       0       0       0       0       0
       0       0       0       0       0       0       0       0
       0       0       0       0       0       0       0       0
       0       0       0       0       0       0       0       0
       0       0       0       0       0       0       0       0
       0       0       0       0       0       0       0       0
       0       0       0       0       0       0       0       0
       0       0       0       0       0       0       0       0
       0       0       0       0       0       0       0       0
       0       0       0       0       0       0       0       0
       0       0       0       0       0       0       0       0
       0       0       0       0       0       0       0       0
       0       0       0       0       0       0       0       0
       0       0       0       0       0       0       0       0
       0       0       0       0       0       0       0       0
       0       0       0       0       0       0       0       0
       0       0       0       0       0       0       0       0
       0       0       0       0       0       0       0       0
       0       0       0       0       0       0       0       0
       0       0       0       0       0       0       0       0
       0       0       0       0       0       0       0       0
       0       0       0       0       0       0       0       0
       0       0       0       0       0       0       0       0
       0       0       0       0       0       0       0       0
       0       0       0       0       0       0       0       0
       0       0       0       0       0       0       0       0
       0       0       0       0       0       0       0       0
       0       0       0       0       0       0       0       0
       0       0       0       0       0       0       0       0
       0       0       0       0       0       0       0       0
       0       0       0       0       0       0       0       0
       0       0       0       0       0       0       0       0
       0       0       0       0       0       0       0       0
       0       0       0       0       0       0       0       0
       0       0       0       0       0       0       0       0
       0       0       0       0       0       0       0       0
       0       0       0       0       0       0       0       0
       0       0       0       0       0       0       0       0
       0       0       0       0       0       0       0       0
       0       0       0       0       0       0       0       0
       0       0       0       0       0       0       0       0
       0       0       0       0       0       0       0       0
       0       0       0       0       0       0       0       0
       0       0       0       0       0       0       0       0
       0       0       0       0       0       0       0       0
       0       0       0       0       0       0       0       0
       0       0       0       0       0       0       0       0
       0       0       0       0       0       0       0       0
       0       0       0       0       0       0       0       0
       0       0       0       0       0       0       0       0
       0       0       0       0       0       0       0       0
       0       0       0       0       0       0       0       0
       0       0       0       0       0       0       0       0
       0       0       0       0       0       0       0       0
       0       0       0       0       0       0       0       0
       0       0       0       0       0       0       0       0
       0       0       0       0       0       0       0       0
       0       0       0       0       0       0       0       0
       0       0       0       0       0       0       0       0
       0       0       0       0       0       0       0       0
       0       0       0       0       0       0       0       0
       0       0       0       0       0       0       0       0
       0       0       0       0       0       0       0       0
       0       0       0       0       0       0       0       0
       0       0       0       0       0       0       0       0
       0       0       0       0       0       0       0       0
       0       0       0       0       0       0       0       0
       0       0       0       0       0       0       0       0
       0       0       0       0       0       0       0       0
       0       0       0       0       0       0       0       0
       0       0       0       0       0       0       0       0
       0       0       0       0       0       0       0       0
       0       0       0       0       0       0       0       0
       0       0       0       0       0       0       0       0
       0       0       0       0       0       0       0       0
       0       0       0       0       0       0       0       0
       0       0       0       0       0       0       0       0
       0       0       0       0       0       0       0       0
       0       0       0       0       0       0       0       0
       0       0       0       0       0       0       0       0
       0       0       0       0       0       0       0       0
       0       0       0       0       0       0       0       0
       0       0       0       0       0       0       0       0
       0       0       0       0       0       0       0       0
       0       0       0       0       0       0       0       0
       0       0       0       0       0       0       0       0
       0       0       0       0       0       0       0       0
       0       0       0       0       0       0       0       0
       0       0       0       0       0       0       0       0
       0       0       0       0       0       0       0       0
       0       0       0       0       0       0       0       0
       0       0       0       0       0       0       0       0
       0       0       0       0       0       0       0       0
       0       0       0       0       0       0       0       0
       0       0       0       0       0       0       0       0
       0       0       0       0       0       0       0       0
       0       0       0       0       0       0       0       0
       0       0       0       0       0       0       0       0
       0       0       0       0       0       0       0       0
       0       0       0       0       0       0       0       0
       0       0       0       0       0       0       0       0
       0       0       0       0       0       0       0       0
       0       0       0       0       0       0       0       0
       0       0       0       0       0       0       0       0
       0       0       0       0       0       0       0       0
       0       0       0       0       0       0       0       0
       0       0       0       0       0       0       0       0
       0       0       0       0       0       0       0       0
       0       0       0       0       0       0       0       0
       0       0       0       0       0       0       0       0
       0       0       0       0       0       0       0       0
       0       0       0       0       0       0       0       0
       0       0       0       0       0       0       0       0
       0       0       0       0       0       0       0       0
       0       0       0       0       0       0       0       0
       0       0       0       0       0       0       0       0
       0       0       0       0       0       0       0       0
       0       0       0       0       0       0       0       0
       0       0       0       0       0       0       0       0
       0       0       0       0       0       0       0       0
       0       0       0       0       0       0       0       0
       0       0       0       0       0       0       0       0
       0       0       0       0       0       0       0       0
       0       0       0       0       0       0       0       0
       0       0       0       0       0       0       0       0
       0       0       0       0       0       0       0       0
       0       0       0       0       0       0       0       0
       0       0       0       0       0       0       0       0
       0       0       0       0       0       0       0       0
       0       0       0       0       0       0       0       0
       0       0       0       0       0       0       0       0
       0       0       0       0       0       0       0       0
       0       0       0       0       0       0       0       0
       0       0       0       0       0       0       0       0
       0       0       0       0       0       0       0       0
       0       0       0       0       0       0       0       0
       0       0       0       0       0       0       0       0
       0       0       0       0       0       0       0       0
       0       0       0       0       0       0       0       0
       0       0       0       0       0       0       0       0
       0       0       0       0       0       0       0       0
       0       0       0       0       0       0       0       0
       0       0       0       0       0       0       0       0
       0       0       0       0       0       0       0       0
       0       0       0       0       0       0       0       0
       0       0       0       0       0       0       0       0
       0       0       0       0       0       0       0       0
       0       0       0       0       0       0       0       0
       0       0       0       0       0       0       0       0
       0       0       0       0       0       0       0       0
       0       0       0       0       0       0       0       0
       0       0       0       0       0       0       0       0
       0       0       0       0       0       0       0       0
       0       0       0       0       0       0       0       0
       0       0       0       0       0       0       0       0
       0       0       0       0       0       0       0       0
       0       0       0       0       0       0       0       0
       0       0       0       0       0       0       0       0
       0       0       0       0       0       0       0       0
       0       0       0       0       0       0       0       0
       0       0       0       0       0       0       0       0
       0       0       0       0       0       0       0       0
       0       0       0       0       0       0       0       0
       0       0       0       0       0       0       0       0
       0       0       0       0       0       0       0       0
       0       0       0       0       0       0       0       0
       0       0       0       0       0       0       0       0
       0       0       0       0       0       0       0       0
       0       0       0       0       0       0       0       0
       0       0       0       0       0       0       0       0
       0       0       0       0       0       0       0       0
       0       0       0       0       0       0       0       0
       0       0       0       0       0       0       0       0
       0       0       0       0       0       0       0       0
       0       0       0       0       0       0       0       0
       0       0       0       0       0       0       0       0
       0       0       0       0       0       0       0       0
       0       0       0       0       0       0       0       0
       0       0       0       0       0       0       0       0
       0       0       0       0       0       0       0       0
       0       0       0       0       0       0       0       0
       0       0       0       0       0       0       0       0
       0       0       0       0       0       0       0       0
       0       0       0       0       0       0       0       0
       0       0       0       0       0       0       0       0
       0       0       0       0       0       0       0       0
       0       0       0       0       0       0       0       0
       0       0       0       0       0       0       0       0
       0       0       0       0       0       0       0       0
       0       0       0       0       0       0       0       0
       0       0       0       0       0       0       0       0
       0       0       0       0       0       0       0       0
       0       0       0       0       0       0       0       0
       0       0       0       0       0       0       0       0
       0       0       0       0       0       0       0       0
       0       0       0       0       0       0       0       0
       0       0       0       0       0       0       0       0
       0       0       0       0       0       0       0       0
       0       0       0       0       0       0       0       0
       0       0       0       0       0       0       0       0
       0       0       0       0       0       0       0       0
       0       0       0       0       0       0       0       0
       0       0       0       0       0       0       0       0
       0       0       0       0       0       0       0       0
       0       0       0       0       0       0       0       0
       0       0       0       0       0       0       0       0
       0       0       0       0       0       0       0       0
       0       0       0       0       0       0       0       0
       0       0       0       0       0       0       0       0
       0       0       0       0       0       0       0       0
       0       0       0       0       0       0       0       0
       0       0       0       0       0       0       0       0
       0       0       0       0       0       0       0       0
       0       0       0       0       0       0       0       0
       0       0       0       0       0       0       0       0
       0       0       0       0       0       0       0       0
       0       0       0       0       0       0       0       0
       0       0       0       0       0       0       0       0
       0       0       0       0       0       0       0       0
       0       0       0       0       0       0       0       0
       0       0       0       0       0       0       0       0
       0       0       0       0       0       0       0       0
       0       0       0       0       0       0       0       0
       0       0       0       0       0       0       0       0
       0       0       0       0       0       0       0       0
       0       0       0       0       0       0       0       0
       0       0       0       0       0       0       0       0
       0       0       0       0       0       0       0       0
       0       0       0       0       0       0       0       0
       0       0       0       0       0       0       0       0
       0       0       0       0       0       0       0       0
       0       0       0       0       0       0       0       0
       0       0       0       0       0       0       0       0
       0       0       0       0       0       0       0       0
       0       0       0       0       0       0       0       0
       0       0       0       0       0       0       0       0
       0       0       0       0       0       0       0       0
       0       0       0       0       0       0       0       0
       0       0       0       0       0       0       0       0
       0       0       0       0       0       0       0       0
       0       0       0       0       0       0       0       0
       0       0       0       0       0       0       0       0
       0       0       0       0       0       0       0       0
       0       0       0       0       0       0       0       0
       0       0       0       0       0       0       0       0
       0       0       0       0       0       0       0       0
       0       0       0       0       0       0       0       0
       0       0       0       0       0       0       0       0
       0       0       0       0       0       0       0       0
       0       0       0       0       0       0       0       0
       0       0       0       0       0       0       0       0
       0       0       0       0       0       0       0       0
       0       0       0       0       0       0       0       0
       0       0       0       0       0       0       0       0
       0       0       0       0       0       0       0       0
       0       0       0       0       0       0       0       0
       0       0       0       0       0       0       0       0
       0       0       0       0       0       0       0       0
       0       0       0       0       0       0       0       0
       0       0       0       0       0       0       0       0
       0       0       0       0       0       0       0       0
       0       0       0       0       0       0       0       0
       0       0       0       0       0       0       0       0
       0       0       0       0       0       0       0       0
       0       0       0       0       0       0       0       0
       0       0       0       0       0       0       0       0
       0       0       0       0       0       0       0       0
       0       0       0       0       0       0       0       0
       0       0       0       0       0       0       0       0
       0       0       0       0       0       0       0       0
       0       0       0       0       0       0       0       0
       0       0       0       0       0       0       0       0
       0       0       0       0       0       0       0       0
       0       0       0       0       0       0       0       0
       0       0       0       0       0       0       0       0
       0       0       0       0       0       0       0       0
       0       0       0       0       0       0       0       0
       0       0       0       0       0       0       0       0
       0       0       0       0       0       0       0       0
       0       0       0       0       0       0       0       0
       0       0       0       0       0       0       0       0
       0       0       0       0       0       0       0       0
       0       0       0       0       0       0       0       0
       0       0       0       0       0       0       0       0
       0       0       0       0       0       0       0       0
       0       0       0       0       0       0       0       0
       0       0       0       0       0       0       0       0
       0       0       0       0       0       0       0       0
       0       0       0       0       0       0       0       0
       0       0       0       0       0       0       0       0
       0       0       0       0       0       0       0       0
       0       0       0       0       0       0       0       0
       0       0       0       0       0       0       0       0
       0       0       0       0       0       0       0       0
       0       0       0       0       0       0       0       0
       0       0       0       0       0       0       0       0
       0       0       0       0       0       0       0       0
       0       0       0       0       0       0       0       0
       0       0       0       0       0       0       0       0
       0       0       0       0       0       0       0       0
       0       0       0       0       0       0       0       0
       0       0       0       0       0       0       0       0
       0       0       0       0       0       0       0       0
       0       0       0       0       0       0       0       0
       0       0       0       0       0       0       0       0
       0       0       0       0       0       0       0       0
       0       0       0       0       0       0       0       0
       0       0       0       0       0       0       0       0
       0       0       0       0       0       0       0       0
       0       0       0       0       0       0       0       0
       0       0       0       0       0       0       0       0
       0       0       0       0       0       0       0       0
       0       0       0       0       0       0       0       0
       0       0       0       0       0       0       0       0
       0       0       0       0       0       0       0       0
       0       0       0       0       0       0       0       0
       0       0       0       0       0       0       0       0
       0       0       0       0       0       0       0       0
       0       0       0       0       0       0       0       0
       0       0       0       0       0       0       0       0
       0       0       0       0       0       0       0       0
       0       0       0       0       0       0       0       0
       0       0       0       0       0       0       0       0
       0       0       0       0       0       0       0       0
       0       0       0       0       0       0       0       0
       0       0       0       0       0       0       0       0
       0       0       0       0       0       0       0       0
       0       0       0       0       0       0       0       0
       0       0       0       0       0       0       0       0
       0       0       0       0       0       0       0       0
       0       0       0       0       0       0       0       0
       0       0       0       0       0       0       0       0
       0       0       0       0       0       0       0       0
       0       0       0       0       0       0       0       0
       0       0       0       0       0       0       0       0
       0       0       0       0       0       0       0       0
       0       0       0       0       0       0       0       0
       0       0       0       0       0       0       0       0
       0       0       0       0       0       0       0       0
       0       0       0       0       0       0       0       0
       0       0       0       0       0       0       0       0
       0       0       0       0       0       0       0       0
       0       0       0       0       0       0       0       0
       0       0       0       0       0       0       0       0
       0       0       0       0       0       0       0       0
       0       0       0       0       0       0       0       0
       0       0       0       0       0       0       0       0
       0       0       0       0       0       0       0       0
       0       0       0       0       0       0       0       0
       0       0       0       0       0       0       0       0
       0       0       0       0       0       0       0       0
       0       0       0       0       0       0       0       0
       0       0       0       0       0       0       0       0
       0       0       0       0       0       0       0       0
       0       0       0       0       0       0       0       0
       0       0       0       0       0       0       0       0
       0       0       0       0       0       0       0       0
       0       0       0       0       0       0       0       0
       0       0       0       0       0       0       0       0
       0       0       0       0       0       0       0       0
       0       0       0       0       0       0       0       0
       0       0       0       0       0       0       0       0
       0       0       0       0       0       0       0       0
       0       0       0       0       0       0       0       0
       0       0       0       0       0       0       0       0
       0       0       0       0       0       0       0       0
       0       0       0       0       0       0       0       0
       0       0       0       0       0       0       0       0
       0       0       0       0       0       0       0       0
       0       0       0       0       0       0       0       0
       0       0       0       0       0       0       0       0
       0       0       0       0       0       0       0       0
       0       0       0       0       0       0       0       0
       0       0       0       0       0       0       0       0
       0       0       0       0       0       0       0       0
       0       0       0       0       0       0       0       0
       0       0       0       0       0       0       0       0
       0       0       0       0       0       0       0       0
       0       0       0       0       0       0       0       0
       0       0       0       0       0       0       0       0
       0       0       0       0       0       0       0       0
       0       0       0       0       0       0       0       0
       0       0       0       0       0       0       0       0
       0       0       0       0       0       0       0       0
       0       0       0       0       0       0       0       0
       0       0       0       0       0       0       0       0
       0       0       0       0       0       0       0       0
       0       0       0       0       0       0       0       0
       0       0       0       0       0       0       0       0
       0       0       0       0       0       0       0       0
       0       0       0       0       0       0       0       0
       0       0       0       0       0       0       0       0
       0       0       0       0       0       0       0       0
       0       0       0       0       0       0       0       0
       0       0       0       0       0       0       0       0
       0       0       0       0       0       0       0       0
       0       0       0       0       0       0       0       0
       0       0       0       0       0       0       0       0
       0       0       0       0       0       0       0       0
       0       0       0       0       0       0       0       0
       0       0       0       0       0       0       0       0
       0       0       0       0       0       0       0       0
       0       0       0       0       0       0       0       0
       0       0       0       0       0       0       0       0
       0       0       0       0       0       0       0       0
       0       0       0       0       0       0       0       0
       0       0       0       0       0       0       0       0
       0       0       0       0       0       0       0       0
       0       0       0       0       0       0       0       0
       0       0       0       0       0       0       0       0
       0       0       0       0       0       0       0       0
       0       0       0       0       0       0       0       0
       0       0       0       0       0       0       0       0
       0       0       0       0       0       0       0       0
       0       0       0       0       0       0       0       0
       0       0       0       0       0       0       0       0
       0       0       0       0       0       0       0       0
       0       0       0       0       0       0       0       0
       0       0       0       0       0       0       0       0
       0       0       0       0       0       0       0       0
       0       0       0       0       0       0       0       0
       0       0       0       0       0       0       0       0
       0       0       0       0       0       0       0       0
       0       0       0       0       0       0       0       0
       0       0       0       0       0       0       0       0
       0       0       0       0       0       0       0       0
       0       0       0       0       0       0       0       0
       0       0       0       0       0       0       0       0
       0       0       0       0       0       0       0       0
       0       0       0       0       0       0       0       0
       0       0       0       0       0       0       0       0
       0       0       0       0       0       0       0       0
       0       0       0       0       0       0       0       0
       0       0       0       0       0       0       0       0
       0       0       0       0       0       0       0       0
       0       0       0       0       0       0       0       0
       0       0       0       0       0       0       0       0
       0       0       0       0       0       0       0       0
       0       0       0       0       0       0       0       0
       0       0       0       0       0       0       0       0
       0       0       0       0       0       0       0       0
       0       0       0       0       0       0       0       0
       0       0       0       0       0       0       0       0
       0       0       0       0       0       0       0       0
       0       0       0       0       0       0       0       0
       0       0       0       0       0       0       0       0
       0       0       0       0       0       0       0       0
       0       0       0       0       0       0       0       0
       0       0       0       0       0       0       0       0
       0       0       0       0       0       0       0       0
       0       0       0       0       0       0       0       0
       0       0       0       0       0       0       0       0
       0       0       0       0       0       0       0       0
       0       0       0       0       0       0       0       0
       0       0       0       0       0       0       0       0
       0       0       0       0       0       0       0       0
       0       0       0       0       0       0       0       0
       0       0       0       0       0       0       0       0
       0       0       0       0       0       0       0       0
       0       0       0       0       0       0       0       0
       0       0       0       0       0       0       0       0
       0       0       0       0       0       0       0       0
       0       0       0       0       0       0       0       0
       0       0       0       0       0       0       0       0
       0       0       0       0       0       0       0       0
       0       0       0       0       0       0       0       0
       0       0       0       0       0       0       0       0
       0       0       0       0       0       0       0       0
       0       0       0       0       0       0       0       0
       0       0       0       0       0       0       0       0
       0       0       0       0       0       0       0       0
       0       0       0       0       0       0       0       0
       0       0       0       0       0       0       0       0
       0       0       0       0       0       0       0       0
       0       0       0       0       0       0       0       0
       0       0       0       0       0       0       0       0
       0       0       0       0       0       0       0       0
       0       0       0       0       0       0       0       0
       0       0       0       0       0       0       0       0
       0       0       0       0       0       0       0       0
       0       0       0       0       0       0       0       0
       0       0       0       0       0       0       0       0
       0       0       0       0       0       0       0       0
       0       0       0       0       0       0       0       0
       0       0       0       0       0       0       0       0
       0       0       0       0       0       0       0       0
       0       0       0       0       0       0       0       0
       0       0       0       0       0       0       0       0
       0       0       0       0       0       0       0       0
       0       0       0       0       0       0       0       0
       0       0       0       0       0       0       0       0
       0       0       0       0       0       0       0       0
       0       0       0       0       0       0       0       0
       0       0       0       0       0       0       0       0
       0       0       0       0       0       0       0       0
       0       0       0       0       0       0       0       0
       0       0       0       0       0       0       0       0
       0       0       0       0       0       0       0       0
       0       0       0       0       0       0       0       0
       0       0       0       0       0       0       0       0
       0       0       0       0       0       0       0       0
       0       0       0       0       0       0       0       0
       0       0       0       0       0       0       0       0
       0       0       0       0       0       0       0       0
       0       0       0       0       0       0       0       0
       0       0       0       0       0       0       0       0
       0       0       0       0       0       0       0       0
       0       0       0       0       0       0       0       0
       0       0       0       0       0       0       0       0
       0       0       0       0       0       0       0       0
       0       0       0       0       0       0       0       0
       0       0       0       0       0       0       0       0
       0       0       0       0       0       0       0       0
       0       0       0       0       0       0       0       0
       0       0       0       0       0       0       0       0
       0       0       0       0       0       0       0       0
       0       0       0       0       0       0       0       0
       0       0       0       0       0       0       0       0
       0       0       0       0       0       0       0       0
       0       0       0       0       0       0       0       0
       0       0       0       0       0       0       0       0
       0       0       0       0       0       0       0       0
       0       0       0       0       0       0       0       0
       0       0       0       0       0       0       0       0
       0       0       0       0       0       0       0       0
       0       0       0       0       0       0       0       0
       0       0       0       0       0       0       0       0
       0       0       0       0       0       0       0       0
       0       0       0       0       0       0       0       0
       0       0       0       0       0       0       0       0
       0       0       0       0       0       0       0       0
       0       0       0       0       0       0       0       0
       0       0       0       0       0       0       0       0
       0       0       0       0       0       0       0       0
       0       0       0       0       0       0       0       0
       0       0       0       0       0       0       0       0
       0       0       0       0       0       0       0       0
       0       0       0       0       0       0       0       0
       0       0       0       0       0       0       0       0
       0       0       0       0       0       0       0       0
       0       0       0       0       0       0       0       0
       0       0       0       0       0       0       0       0
       0       0       0       0       0       0       0       0
       0       0       0       0       0       0       0       0
       0       0       0       0       0       0       0       0
       0       0       0       0       0       0       0       0
       0       0       0       0       0       0       0       0
       0       0       0       0       0       0       0       0
       0       0       0       0       0       0       0       0
       0       0       0       0       0       0       0       0
       0       0       0       0       0       0       0       0
       0       0       0       0       0       0       0       0
       0       0       0       0       0       0       0       0
       0       0       0       0       0       0       0       0
       0       0       0       0       0       0       0       0
       0       0       0       0       0       0       0       0
       0       0       0       0       0       0       0       0
       0       0       0       0       0       0       0       0
       0       0       0       0       0       0       0       0
       0       0       0       0       0       0       0       0
       0       0       0       0       0       0       0       0
       0       0       0       0       0       0       0       0
       0       0       0       0       0       0       0       0
       0       0       0       0       0       0       0       0
       0       0       0       0       0       0       0       0
       0       0       0       0       0       0       0       0
       0       0       0       0       0       0       0       0
       0       0       0       0       0       0       0       0
       0       0       0       0       0       0       0       0
       0       0       0       0       0       0       0       0
       0       0       0       0       0       0       0       0
       0       0       0       0       0       0       0       0
       0       0       0       0       0       0       0       0
       0       0       0       0       0       0       0       0
       0       0       0       0       0       0       0       0
       0       0       0       0       0       0       0       0
       0       0       0       0       0       0       0       0
       0       0       0       0       0       0       0       0
       0       0       0       0       0       0       0       0
       0       0       0       0       0       0       0       0
       0       0       0       0       0       0       0       0
       0       0       0       0       0       0       0       0
       0       0       0       0       0       0       0       0
       0       0       0       0       0       0       0       0
       0       0       0       0       0       0       0       0
       0       0       0       0       0       0       0       0
       0       0       0       0       0       0       0       0
       0       0       0       0       0       0       0       0
       0       0       0       0       0       0       0       0
       0       0       0       0       0       0       0       0
       0       0       0       0       0       0       0       0
       0       0       0       0       0       0       0       0
       0       0       0       0       0       0       0       0
       0       0       0       0       0       0       0       0
       0       0       0       0       0       0       0       0
       0       0       0       0       0       0       0       0
       0       0       0       0       0       0       0       0
       0       0       0       0       0       0       0       0
       0       0       0       0       0       0       0       0
       0       0       0       0       0       0       0       0
       0       0       0       0       0       0       0       0
       0       0       0       0       0       0       0       0
       0       0       0       0       0       0       0       0
       0       0       0       0       0       0       0       0
       0       0       0       0       0       0       0       0
       0       0       0       0       0       0       0       0
       0       0       0       0       0       0       0       0
       0       0       0       0       0       0       0       0
       0       0       0       0       0       0       0       0
       0       0       0       0       0       0       0       0
       0       0       0       0       0       0       0       0
       0       0       0       0       0       0       0       0
       0       0       0       0       0       0       0       0
       0       0       0       0       0       0       0       0
       0       0       0       0       0       0       0       0
       0       0       0       0       0       0       0       0
       0       0       0       0       0       0       0       0
       0       0       0       0       0       0       0       0
       0       0       0       0       0       0       0       0
       0       0       0       0       0       0       0       0
       0       0       0       0       0       0       0       0
       0       0       0       0       0       0       0       0
       0       0       0       0       0       0       0       0
       0       0       0       0       0       0       0       0
       0       0       0       0       0       0       0       0
       0       0       0       0       0       0       0       0
       0       0       0       0       0       0       0       0
       0       0       0       0       0       0       0       0
       0       0       0       0       0       0       0       0
       0       0       0       0       0       0       0       0
       0       0       0       0       0       0       0       0
       0       0       0       0       0       0       0       0
       0       0       0       0       0       0       0       0
       0       0       0       0       0       0       0       0
       0       0       0       0       0       0       0       0
       0       0       0       0       0       0       0       0
       0       0       0       0       0       0       0       0
       0       0       0       0       0       0       0       0
       0       0       0       0       0       0       0       0
       0       0       0       0       0       0       0       0
       0       0       0       0       0       0       0       0
       0       0       0       0       0       0       0       0
       0       0       0       0       0       0       0       0
       0       0       0       0       0       0       0       0
       0       0       0       0       0       0       0       0
       0       0       0       0       0       0       0       0
       0       0       0       0       0       0       0       0
       0       0       0       0       0       0       0       0
       0       0       0       0       0       0       0       0
       0       0       0       0       0       0       0       0
       0       0       0       0       0       0       0       0
       0       0       0       0       0       0       0       0
       0       0       0       0       0       0       0       0
       0       0       0       0       0       0       0       0
       0       0       0       0       0       0       0       0
       0       0       0       0       0       0       0       0
       0       0       0       0       0       0       0       0
       0       0       0       0       0       0       0       0
       0       0       0       0       0       0       0       0
       0       0       0       0       0       0       0       0
       0       0       0       0       0       0       0       0
       0       0       0       0       0       0       0       0
       0       0       0       0       0       0       0       0
       0       0       0       0       0       0       0       0
       0       0       0       0       0       0       0       0
       0       0       0       0       0       0       0       0
       0       0       0       0       0       0       0       0
       0       0       0       0       0       0       0       0
       0       0       0       0       0       0       0       0
       0       0       0       0       0       0       0       0
       0       0       0       0       0       0       0       0
       0       0       0       0       0       0       0       0
       0       0       0       0       0       0       0       0
       0       0       0       0       0       0       0       0
       0       0       0       0       0       0       0       0
       0       0       0       0       0       0       0       0
       0       0       0       0       0       0       0       0
       0       0       0       0       0       0       0       0
       0       0       0       0       0       0       0       0
       0       0       0       0       0       0       0       0
       0       0       0       0       0       0       0       0
       0       0       0       0       0       0       0       0
       0       0       0       0       0       0       0       0
       0       0       0       0       0       0       0       0
       0       0       0       0       0       0       0       0
       0       0       0       0       0       0       0       0
       0       0       0       0       0       0       0       0
       0       0       0       0       0       0       0       0
       0       0       0       0       0       0       0       0
       0       0       0       0       0       0       0       0
       0       0       0       0       0       0       0       0
       0       0       0       0       0       0       0       0
       0       0       0       0       0       0       0       0
       0       0       0       0       0       0       0       0
       0       0       0       0       0       0       0       0
       0       0       0       0       0       0       0       0
       0       0       0       0       0       0       0       0
       0       0       0       0       0       0       0       0
       0       0       0       0       0       0       0       0
       0       0       0       0       0       0       0       0
       0       0       0       0       0       0       0       0
       0       0       0       0       0       0       0       0
       0       0       0       0       0       0       0       0
       0       0       0       0       0       0       0       0
       0       0       0       0       0       0       0       0
       0       0       0       0       0       0       0       0
       0       0       0       0       0       0       0       0
       0       0       0       0       0       0       0       0
       0       0       0       0       0       0       0       0
       0       0       0       0       0       0       0       0
       0       0       0       0       0       0       0       0
       0       0       0       0       0       0       0       0
       0       0       0       0       0       0       0       0
       0       0       0       0       0       0       0       0
       0       0       0       0       0       0       0       0
       0       0       0       0       0       0       0       0
       0       0       0       0       0       0       0       0
       0       0       0       0       0       0       0       0
       0       0       0       0       0       0       0       0
       0       0       0       0       0       0       0       0
       0       0       0       0       0       0       0       0
       0       0       0       0       0       0       0       0
       0       0       0       0       0       0       0       0
       0       0       0       0       0       0       0       0
       0       0       0       0       0       0       0       0
       0       0       0       0       0       0       0       0
       0       0       0       0       0       0       0       0
       0       0       0       0       0       0       0       0
       0       0       0       0       0       0       0       0
       0       0       0       0       0       0       0       0
       0       0       0       0       0       0       0       0
       0       0       0       0       0       0       0       0
       0       0       0       0       0       0       0       0
       0       0       0       0       0       0       0       0
       0       0       0       0       0       0       0       0
       0       0       0       0       0       0       0       0
       0       0       0       0       0       0       0       0
       0       0       0       0       0       0       0       0
       0       0       0       0       0       0       0       0
       0       0       0       0       0       0       0       0
       0       0       0       0       0       0       0       0
       0       0       0       0       0       0       0       0
       0       0       0       0       0       0       0       0
       0       0       0       0       0       0       0       0
       0       0       0       0       0       0       0       0
       0       0       0       0       0       0       0       0
       0       0       0       0       0       0       0       0
       0       0       0       0       0       0       0       0
       0       0       0       0       0       0       0       0
       0       0       0       0       0       0       0       0
       0       0       0       0       0       0       0       0
       0       0       0       0       0       0       0       0
       0       0       0       0       0       0       0       0
       0       0       0       0       0       0       0       0
       0       0       0       0       0       0       0       0
       0       0       0       0       0       0       0       0
       0       0       0       0       0       0       0       0
       0       0       0       0       0       0       0       0
       0       0       0       0       0       0       0       0
       0       0       0       0       0       0       0       0
       0       0       0       0       0       0       0       0
       0       0       0       0       0       0       0       0
       0       0       0       0       0       0       0       0
       0       0       0       0       0       0       0       0
       0       0       0       0       0       0       0       0
       0       0       0       0       0       0       0       0
       0       0       0       0       0       0       0       0
       0       0       0       0       0       0       0       0
       0       0       0       0       0       0       0       0
       0       0       0       0       0       0       0       0
       0       0       0       0       0       0       0       0
       0       0       0       0       0       0       0       0
       0       0       0       0       0       0       0       0
       0       0       0       0       0       0       0       0
       0       0       0       0       0       0       0       0
       0       0       0       0       0       0       0       0
       0       0       0       0       0       0       0       0
       0       0       0       0       0       0       0       0
       0       0       0       0       0       0       0       0
       0       0       0       0       0       0       0       0
       0       0       0       0       0       0       0       0
       0       0       0       0       0       0       0       0
       0       0       0       0       0       0       0       0
       0       0       0       0       0       0       0       0
       0       0       0       0       0       0       0       0
       0       0       0       0       0       0       0       0
       0       0       0       0       0       0       0       0
       0       0       0       0       0       0       0       0
       0       0       0       0       0       0       0       0
       0       0       0       0       0       0       0       0
       0       0       0       0       0       0       0       0
       0       0       0       0       0       0       0       0
       0       0       0       0       0       0       0       0
       0       0       0       0       0       0       0       0
       0       0       0       0       0       0       0       0
       0       0       0       0       0       0       0       0
       0       0       0       0       0       0       0       0
       0       0       0       0       0       0       0       0
       0       0       0       0       0       0       0       0
       0       0       0       0       0       0       0       0
       0       0       0       0       0       0       0       0
       0       0       0       0       0       0       0       0
       0       0       0       0       0       0       0       0
       0       0       0       0       0       0       0       0
       0       0       0       0       0       0       0       0
       0       0       0       0       0       0       0       0
       0       0       0       0       0       0       0       0
       0       0       0       0       0       0       0       0
       0       0       0       0       0       0       0       0
       0       0       0       0       0       0       0       0
       0       0       0       0       0       0       0       0
       0       0       0       0       0       0       0       0
       0       0       0       0       0       0       0       0
       0       0       0       0       0       0       0       0
       0       0       0       0       0       0       0       0
       0       0       0       0       0       0       0       0
       0       0       0       0       0       0       0       0
       0       0       0       0       0       0       0       0
       0       0       0       0       0       0       0       0
       0       0       0       0       0       0       0       0
       0       0       0       0       0       0       0       0
       0       0       0       0       0       0       0       0
       0       0       0       0       0       0       0       0
       0       0       0       0       0       0       0       0
       0       0       0       0       0       0       0       0
       0       0       0       0       0       0       0       0
       0       0       0       0       0       0       0       0
       0       0       0       0       0       0       0       0
       0       0       0       0       0       0       0       0
       0       0       0       0       0       0       0       0
       0       0       0       0       0       0       0       0
       0       0       0       0       0       0       0       0
       0       0       0       0       0       0       0       0
       0       0       0       0       0       0       0       0
       0       0       0       0       0       0       0       0
       0       0       0       0       0       0       0       0
       0       0       0       0       0       0       0       0
       0       0       0       0       0       0       0       0
       0       0       0       0       0       0       0       0
       0       0       0       0       0       0       0       0
       0       0       0       0       0       0       0       0
       0       0       0       0       0       0       0       0
       0       0       0       0       0       0       0       0
       0       0       0       0       0       0       0       0
       0       0       0       0       0       0       0       0
       0       0       0       0       0       0       0       0
       0       0       0       0       0       0       0       0
       0       0       0       0       0       0       0       0
       0       0       0       0       0       0       0       0
       0       0       0       0       0       0       0       0
       0       0       0       0       0       0       0       0
       0       0       0       0       0       0       0       0
       0       0       0       0       0       0       0       0
       0       0       0       0       0       0       0       0
       0       0       0       0       0       0       0       0
       0       0       0       0       0       0       0       0
       0       0       0       0       0       0       0       0
       0       0       0       0       0       0       0       0
       0       0       0       0       0       0       0       0
       0       0       0       0       0       0       0       0
       0       0       0       0       0       0       0       0
       0       0       0       0       0       0       0       0
       0       0       0       0       0       0       0       0
       0       0       0       0       0       0       0       0
       0       0       0       0       0       0       0       0
       0       0       0       0       0       0       0       0
       0       0       0       0       0       0       0       0
       0       0       0       0       0       0       0       0
       0       0       0       0       0       0       0       0
       0       0       0       0       0       0       0       0
       0       0       0       0       0       0       0       0
       0       0       0       0       0       0       0       0
       0       0       0       0       0       0       0       0
       0       0       0       0       0       0       0       0
       0       0       0       0       0       0       0       0
       0       0       0       0       0       0       0       0
       0       0       0       0       0       0       0       0
       0       0       0       0       0       0       0       0
       0       0       0       0       0       0       0       0
       0       0       0       0       0       0       0       0
       0       0       0       0       0       0       0       0
       0       0       0       0       0       0       0       0
       0       0       0       0       0       0       0       0
       0       0       0       0       0       0       0       0
       0       0       0       0       0       0       0       0
       0       0       0       0       0       0       0       0
       0       0       0       0       0       0       0       0
       0       0       0       0       0       0       0       0
       0       0       0       0       0       0       0       0
       0       0       0       0       0       0       0       0
       0       0       0       0       0       0       0       0
       0       0       0       0       0       0       0       0
       0       0       0       0       0       0       0       0
       0       0       0       0       0       0       0       0
       0       0       0       0       0       0       0       0
       0       0       0       0       0       0       0       0
       0       0       0       0       0       0       0       0
       0       0       0       0       0       0       0       0
       0       0       0       0       0       0       0       0
       0       0       0       0       0       0       0       0
       0       0       0       0       0       0       0       0
       0       0       0       0       0       0       0       0
       0       0       0       0       0       0       0       0
       0       0       0       0       0       0       0       0
       0       0       0       0       0       0       0       0
       0       0       0       0       0       0       0       0
       0       0       0       0       0       0       0       0
       0       0       0       0       0       0       0       0
       0       0       0       0       0       0       0       0
       0       0       0       0       0       0       0       0
       0       0       0       0       0       0       0       0
       0       0       0       0       0       0       0       0
       0       0       0       0       0       0       0       0
       0       0       0       0       0       0       0       0
       0       0       0       0       0       0       0       0
       0       0       0       0       0       0       0       0
       0       0       0       0       0       0       0       0
       0       0       0       0       0       0       0       0
       0       0       0       0       0       0       0       0
       0       0       0       0       0       0       0       0
       0       0       0       0       0       0       0       0
       0       0       0       0       0       0       0       0
       0       0       0       0       0       0       0       0
       0       0       0       0       0       0       0       0
       0       0       0       0       0       0       0       0
       0       0       0       0       0       0       0       0
       0       0       0       0       0       0       0       0
       0       0       0       0       0       0       0       0
       0       0       0       0       0       0       0       0
       0       0       0       0       0       0       0       0
       0       0       0       0       0       0       0       0
       0       0       0       0       0       0       0       0
       0       0       0       0       0       0       0       0
       0       0       0       0       0       0       0       0
       0       0       0       0       0       0       0       0
       0       0       0       0       0       0       0       0
       0       0       0       0       0       0       0       0
       0       0       0       0       0       0       0       0
       0       0       0       0       0       0       0       0
       0       0       0       0       0       0       0       0
       0       0       0       0       0       0       0       0
       0       0       0       0       0       0       0       0
       0       0       0       0       0       0       0       0
       0       0       0       0       0       0       0       0
       0       0       0       0       0       0       0       0
       0       0       0       0       0       0       0       0
       0       0       0       0       0       0       0       0
       0       0       0       0       0       0       0       0
       0       0       0       0       0       0       0       0
       0       0       0       0       0       0       0       0
       0       0       0       0       0       0       0       0
       0       0       0       0       0       0       0       0
       0       0       0       0       0       0       0       0
       0       0       0       0       0       0       0       0
       0       0       0       0       0       0       0       0
       0       0       0       0       0       0       0       0
       0       0       0       0       0       0       0       0
       0       0       0       0       0       0       0       0
       0       0       0       0       0       0       0       0
       0       0       0       0       0       0       0       0
       0       0       0       0       0       0       0       0
       0       0       0       0       0       0       0       0
       0       0       0       0       0       0       0       0
       0       0       0       0       0       0       0       0
       0       0       0       0       0       0       0       0
       0       0       0       0       0       0       0       0
       0       0       0       0       0       0       0       0
       0       0       0       0       0       0       0       0
       0       0       0       0       0       0       0       0
       0       0       0       0       0       0       0       0
       0       0       0       0       0       0       0       0
       0       0       0       0       0       0       0       0
       0       0       0       0       0       0       0       0
       0       0       0       0       0       0       0       0
       0       0       0       0       0       0       0       0
       0       0       0       0       0       0       0       0
       0       0       0       0       0       0       0       0
       0       0       0       0       0       0       0       0
       0       0       0       0       0       0       0       0
       0       0       0       0       0       0       0       0
       0       0       0       0       0       0       0       0
       0       0       0       0       0       0       0       0
       0       0       0       0       0       0       0       0
       0       0       0       0       0       0       0       0
       0       0       0       0       0       0       0       0
       0       0       0       0       0       0       0       0
       0       0       0       0       0       0       0       0
       0       0       0       0       0       0       0       0
       0       0       0       0       0       0       0       0
       0       0       0       0       0       0       0       0
       0       0       0       0       0       0       0       0
       0       0       0       0       0       0       0       0
       0       0       0       0       0       0       0       0
       0       0       0       0       0       0       0       0
       0       0       0       0       0       0       0       0
       0       0       0       0       0       0       0       0
       0       0       0       0       0       0       0       0
       0       0       0       0       0       0       0       0
       0       0       0       0       0       0       0       0
       0       0       0       0       0       0       0       0
       0       0       0       0       0       0       0       0
       0       0       0       0       0       0       0       0
       0       0       0       0       0       0       0       0
       0       0       0       0       0       0       0       0
       0       0       0       0       0       0       0       0
       0       0       0       0       0       0       0       0
       0       0       0       0       0       0       0       0
       0       0       0       0       0       0       0       0
       0       0       0       0       0       0       0       0
       0       0       0       0       0       0       0       0
       0       0       0       0       0       0       0       0
       0       0       0       0       0       0       0       0
       0       0       0       0       0       0       0       0
       0       0       0       0       0       0       0       0
       0       0       0       0       0       0       0       0
       0       0       0       0       0       0       0       0
       0       0       0       0       0       0       0       0
       0       0       0       0       0       0       0       0
       0       0       0       0       0       0       0       0
       0       0       0       0       0       0       0       0
       0       0       0       0       0       0       0       0
       0       0       0       0       0       0       0       0
       0       0       0       0       0       0       0       0
       0       0       0       0       0       0       0       0
       0       0       0       0       0       0       0       0
       0       0       0       0       0       0       0       0
       0       0       0       0       0       0       0       0
       0       0       0       0       0       0       0       0
       0       0       0       0       0       0       0       0
       0       0       0       0       0       0       0       0
       0       0       0       0       0       0       0       0
       0       0       0       0       0       0       0       0
       0       0       0       0       0       0       0       0
       0       0       0       0       0       0       0       0
       0       0       0       0       0       0       0       0
       0       0       0       0       0       0       0       0
       0       0       0       0       0       0       0       0
       0       0       0       0       0       0       0       0
       0       0       0       0       0       0       0       0
       0       0       0       0       0       0       0       0
       0       0       0       0       0       0       0       0
       0       0       0       0       0       0       0       0
       0       0       0       0       0       0       0       0
       0       0       0       0       0       0       0       0
       0       0       0       0       0       0       0       0
       0       0       0       0       0       0       0       0
       0       0       0       0       0       0       0       0
       0       0       0       0       0       0       0       0
       0       0       0       0       0       0       0       0
       0       0       0       0       0       0       0       0
       0       0       0       0       0       0       0       0
       0       0       0       0       0       0       0       0
       0       0       0       0       0       0       0       0
       0       0       0       0       0       0       0       0
       0       0       0       0       0       0       0       0
       0       0       0       0       0       0       0       0
       0       0       0       0       0       0       0       0
       0       0       0       0       0       0       0       0
       0       0       0       0       0       0       0       0
       0       0       0       0       0       0       0       0
       0       0       0       0       0       0       0       0
       0       0       0       0       0       0       0       0
       0       0       0       0       0       0       0       0
       0       0       0       0       0       0       0       0
       0       0       0       0       0       0       0       0
       0       0       0       0       0       0       0       0
       0       0       0       0       0       0       0       0
       0       0       0       0       0       0       0       0
       0       0       0       0       0       0       0       0
       0       0       0       0       0       0       0       0
       0       0       0       0       0       0       0       0
       0       0       0       0       0       0       0       0
       0       0       0       0       0       0       0       0
       0       0       0       0       0       0       0       0
       0       0       0       0       0       0       0       0
       0       0       0       0       0       0       0       0
       0       0       0       0       0       0       0       0
       0       0       0       0       0       0       0       0
       0       0       0       0       0       0       0       0
       0       0       0       0       0       0       0       0
       0       0       0       0       0       0       0       0
       0       0       0       0       0       0       0       0
       0       0       0       0       0       0       0       0
       0       0       0       0       0       0       0       0
       0       0       0       0       0       0       0       0
       0       0       0       0       0       0       0       0
       0       0       0       0       0       0       0       0
       0       0       0       0       0       0       0       0
       0       0       0       0       0       0       0       0
       0       0       0       0       0       0       0       0
       0       0       0       0       0       0       0       0
       0       0       0       0       0       0       0       0
       0       0       0       0       0       0       0       0
       0       0       0       0       0       0       0       0
       0       0       0       0       0       0       0       0
       0       0       0       0       0       0       0       0
       0       0       0       0       0       0       0       0
       0       0       0       0       0       0       0       0
       0       0       0       0       0       0       0       0
       0       0       0       0       0       0       0       0
       0       0       0       0       0       0       0       0
       0       0       0       0       0       0       0       0
       0       0       0       0       0       0       0       0
       0       0       0       0       0       0       0       0
       0       0       0       0       0       0       0       0
       0       0       0       0       0       0       0       0
       0       0       0       0       0       0       0       0
       0       0       0       0       0       0       0       0
       0       0       0       0       0       0       0       0
       0       0       0       0       0       0       0       0
       0       0       0       0       0       0       0       0
       0       0       0       0       0       0       0       0
       0       0       0       0       0       0       0       0
       0       0       0       0       0       0       0       0
       0       0       0       0       0       0       0       0
       0       0       0       0       0       0       0       0
       0       0       0       0       0       0       0       0
       0       0       0       0       0       0       0       0
       0       0       0       0       0       0       0       0
       0       0       0       0       0       0       0       0
       0       0       0       0       0       0       0       0
       0       0       0       0       0       0       0       0
       0       0       0       0       0       0       0       0
       0       0       0       0       0       0       0       0
       0       0       0       0       0       0       0       0
       0       0       0       0       0       0       0       0
       0       0       0       0       0       0       0       0
       0       0       0       0       0       0       0       0
       0       0       0       0       0       0       0       0
       0       0       0       0       0       0       0       0
       0       0       0       0       0       0       0       0
       0       0       0       0       0       0       0       0
       0       0       0       0       0       0       0       0
       0       0       0       0       0       0       0       0
       0       0       0       0       0       0       0       0
       0       0       0       0       0       0       0       0
       0       0       0       0       0       0       0       0
       0       0       0       0       0       0       0       0
       0       0       0       0       0       0       0       0
       0       0       0       0       0       0       0       0
       0       0       0       0       0       0       0       0
       0       0       0       0       0       0       0       0
       0       0       0       0       0       0       0       0
       0       0       0       0       0       0       0       0
       0       0       0       0       0       0       0       0
       0       0       0       0       0       0       0       0
       0       0       0       0       0       0       0       0
       0       0       0       0       0       0       0       0
       0       0       0       0       0       0       0       0
       0       0       0       0       0       0       0       0
       0       0       0       0       0       0       0       0
       0       0       0       0       0       0       0       0
       0       0       0       0       0       0       0       0
       0       0       0       0       0       0       0       0
       0       0       0       0       0       0       0       0
       0       0       0       0       0       0       0       0
       0       0       0       0       0       0       0       0
       0       0       0       0       0       0       0       0
       0       0       0       0       0       0       0       0
       0       0       0       0       0       0       0       0
       0       0       0       0       0       0       0       0
       0       0       0       0       0       0       0       0
       0       0       0       0       0       0       0       0
       0       0       0       0       0       0       0       0
       0       0       0       0       0       0       0       0
       0       0       0       0       0       0       0       0
       0       0       0       0       0       0       0       0
       0       0       0       0       0       0       0       0
       0       0       0       0       0       0       0       0
       0       0       0       0       0       0       0       0
       0       0       0       0       0       0       0       0
       0       0       0       0       0       0       0       0
       0       0       0       0       0       0       0       0
       0       0       0       0       0       0       0       0
       0       0       0       0       0       0       0       0
       0       0       0       0       0       0       0       0
       0       0       0       0       0       0       0       0
       0       0       0       0       0       0       0       0
       0       0       0       0       0       0       0       0
       0       0       0       0       0       0       0       0
       0       0       0       0       0       0       0       0
       0       0       0       0       0       0       0       0
       0       0       0       0       0       0       0       0
       0       0       0       0       0       0       0       0
       0       0       0       0       0       0       0       0
       0       0       0       0       0       0       0       0
       0       0       0       0       0       0       0       0
       0       0       0       0       0       0       0       0
       0       0       0       0       0       0       0       0
       0       0       0       0       0       0       0       0
       0       0       0       0       0       0       0       0
       0       0       0       0       0       0       0       0
       0       0       0       0       0       0       0       0
       0       0       0       0       0       0       0       0
       0       0       0       0       0       0       0       0
       0       0       0       0       0       0       0       0
       0       0       0       0       0       0       0       0
       0       0       0       0       0       0       0       0
       0       0       0       0       0       0       0       0
       0       0       0       0       0       0       0       0
       0       0       0       0       0       0       0       0
       0       0       0       0       0       0       0       0
       0       0       0       0       0       0       0       0
       0       0       0       0       0       0       0       0
       0       0       0       0       0       0       0       0
       0       0       0       0       0       0       0       0
       0       0       0       0       0       0       0       0
       0       0       0       0       0       0       0       0
       0       0       0       0       0       0       0       0
       0       0       0       0       0       0       0       0
       0       0       0       0       0       0       0       0
       0       0       0       0       0       0       0       0
       0       0       0       0       0       0       0       0
       0       0       0       0       0       0       0       0
       0       0       0       0       0       0       0       0
       0       0       0       0       0       0       0       0
       0       0       0       0       0       0       0       0
       0       0       0       0       0       0       0       0
       0       0       0       0       0       0       0       0
       0       0       0       0       0       0       0       0
       0       0       0       0       0       0       0       0
       0       0       0       0       0       0       0       0
       0       0       0       0       0       0       0       0
       0       0       0       0       0       0       0       0
       0       0       0       0       0       0       0       0
       0       0       0       0       0       0       0       0
       0       0       0       0       0       0       0       0
       0       0       0       0       0       0       0       0
       0       0       0       0       0       0       0       0
       0       0       0       0       0       0       0       0
       0       0       0       0       0       0       0       0
       0       0       0       0       0       0       0       0
       0       0       0       0       0       0       0       0
       0       0       0       0       0       0       0       0
       0       0       0       0       0       0       0       0
       0       0       0       0       0       0       0       0
       0       0       0       0       0       0       0       0
       0       0       0       0       0       0       0       0
       0       0       0       0       0       0       0       0
       0       0       0       0       0       0       0       0
       0       0       0       0       0       0       0       0
       0       0       0       0       0       0       0       0
       0       0       0       0       0       0       0       0
       0       0       0       0       0       0       0       0
       0       0       0       0       0       0       0       0
       0       0       0       0       0       0       0       0
       0       0       0       0       0       0       0       0
       0       0       0       0       0       0       0       0
       0       0       0       0       0       0       0       0
       0       0       0       0       0       0       0       0
       0       0       0       0       0       0       0       0
       0       0       0       0       0       0       0       0
       0       0       0       0       0       0       0       0
       0       0       0       0       0       0       0       0
       0       0       0       0       0       0       0       0
       0       0       0       0       0       0       0       0
       0       0       0       0       0       0       0       0
       0       0       0       0       0       0       0       0
       0       0       0       0       0       0       0       0
       0       0       0       0       0       0       0       0
       0       0       0       0       0       0       0       0
       0       0       0       0       0       0       0       0
       0       0       0       0       0       0       0       0
       0       0       0       0       0       0       0       0
       0       0       0       0       0       0       0       0
       0       0       0       0       0       0       0       0
       0       0       0       0       0       0       0       0
       0       0       0       0       0       0       0       0
       0       0       0       0       0       0       0       0
       0       0       0       0       0       0       0       0
       0       0       0       0       0       0       0       0
       0       0       0       0       0       0       0       0
       0       0       0       0       0       0       0       0
       0       0       0       0       0       0       0       0
       0       0       0       0       0       0       0       0
       0       0       0       0       0       0       0       0
       0       0       0       0       0       0       0       0
       0       0       0       0       0       0       0       0
       0       0       0       0       0       0       0       0
       0       0       0       0       0       0       0       0
       0       0       0       0       0       0       0       0
       0       0       0       0       0       0       0       0
       0       0       0       0       0       0       0       0
       0       0       0       0       0       0       0       0
       0       0       0       0       0       0       0       0
       0       0       0       0       0       0       0       0
       0       0       0       0       0       0       0       0
       0       0       0       0       0       0       0       0
       0       0       0       0       0       0       0       0
       0       0       0       0       0       0       0       0
       0       0       0       0       0       0       0       0
       0       0       0       0       0       0       0       0
       0       0       0       0       0       0       0       0
       0       0       0       0       0       0       0       0
       0       0       0       0       0       0       0       0
       0       0       0       0       0       0       0       0
       0       0       0       0       0       0       0       0
       0       0       0       0       0       0       0       0
       0       0       0       0       0       0       0       0
       0       0       0       0       0       0       0       0
       0       0       0       0       0       0       0       0
       0       0       0       0       0       0       0       0
       0       0       0       0       0       0       0       0
       0       0       0       0       0       0       0       0
       0       0       0       0       0       0       0       0
       0       0       0       0       0       0       0       0
       0       0       0       0       0       0       0       0
       0       0       0       0       0       0       0       0
       0       0       0       0       0       0       0       0
       0       0       0       0       0       0       0       0
       0       0       0       0       0       0       0       0
       0       0       0       0       0       0       0       0
       0       0       0       0       0       0       0       0
       0       0       0       0       0       0       0       0
       0       0       0       0       0       0       0       0
       0       0       0       0       0       0       0       0
       0       0       0       0       0       0       0       0
       0       0       0       0       0       0       0       0
       0       0       0       0       0       0       0       0
       0       0       0       0       0       0       0       0
       0       0       0       0       0       0       0       0
       0       0       0       0       0       0       0       0
       0       0       0       0       0       0       0       0
       0       0       0       0       0       0       0       0
       0       0       0       0       0       0       0       0
       0       0       0       0       0       0       0       0
       0       0       0       0       0       0       0       0
       0       0       0       0       0       0       0       0
       0       0       0       0       0       0       0       0
       0       0       0       0       0       0       0       0
       0       0       0       0       0       0       0       0
       0       0       0       0       0       0       0       0
       0       0       0       0       0       0       0       0
       0       0       0       0       0       0       0       0
       0       0       0       0       0       0       0       0
       0       0       0       0       0       0       0       0
       0       0       0       0       0       0       0       0
       0       0       0       0       0       0       0       0
       0       0       0       0       0       0       0       0
       0       0       0       0       0       0       0       0
       0       0       0       0       0       0       0       0
       0       0       0       0       0       0       0       0
       0       0       0       0       0       0       0       0
       0       0       0       0       0       0       0       0
       0       0       0       0       0       0       0       0
       0       0       0       0       0       0       0       0
       0       0       0       0       0       0       0       0
       0       0       0       0       0       0       0       0
       0       0       0       0       0       0       0       0
       0       0       0       0       0       0       0       0
       0       0       0       0       0       0       0       0
       0       0       0       0       0       0       0       0
       0       0       0       0       0       0       0       0
       0       0       0       0       0       0       0       0
       0       0       0       0       0       0       0       0
       0       0       0       0       0       0       0       0
       0       0       0       0       0       0       0       0
       0       0       0       0       0       0       0       0
       0       0       0       0       0       0       0       0
       0       0       0       0       0       0       0       0
       0       0       0       0       0       0       0       0
       0       0       0       0       0       0       0       0
       0       0       0       0       0       0       0       0
       0       0       0       0       0       0       0       0
       0       0       0       0       0       0       0       0
       0       0       0       0       0       0       0       0
       0       0       0       0       0       0       0       0
       0       0       0       0       0       0       0       0
       0       0       0       0       0       0       0       0
       0       0       0       0       0       0       0       0
       0       0       0       0       0       0       0       0
       0       0       0       0       0       0       0       0
       0       0       0       0       0       0       0       0
       0       0       0       0       0       0       0       0
       0       0       0       0       0       0       0       0
       0       0       0       0       0       0       0       0
       0       0       0       0       0       0       0       0
       0       0       0       0       0       0       0       0
       0       0       0       0       0       0       0       0
       0       0       0       0       0       0       0       0
       0       0       0       0       0       0       0       0
       0       0       0       0       0       0       0       0
       0       0       0       0       0       0       0       0
       0       0       0       0       0       0       0       0
       0       0       0       0       0       0       0       0
       0       0       0       0       0       0       0       0
       0       0       0       0       0       0       0       0
       0       0       0       0       0       0       0       0
       0       0       0       0       0       0       0       0
       0       0       0       0       0       0       0       0
       0       0       0       0       0       0       0       0
       0       0       0       0       0       0       0       0
       0       0       0       0       0       0       0       0
       0       0       0       0       0       0       0       0
       0       0       0       0       0       0       0       0
       0       0       0       0       0       0       0       0
       0       0       0       0       0       0       0       0
       0       0       0       0       0       0       0       0
       0       0       0       0       0       0       0       0
       0       0       0       0       0       0       0       0
       0       0       0       0       0       0       0       0
       0       0       0       0       0       0       0       0
       0       0       0       0       0       0       0       0
       0       0       0       0       0       0       0       0
       0       0       0       0       0       0       0       0
       0       0       0       0       0       0       0       0
       0       0       0       0       0       0       0       0
       0       0       0       0       0       0       0       0
       0       0       0       0       0       0       0       0
       0       0       0       0       0       0       0       0
       0       0       0       0       0       0       0       0
       0       0       0       0       0       0       0       0
       0       0       0       0       0       0       0       0
       0       0       0       0       0       0       0       0
       0       0       0       0       0       0       0       0
       0       0       0       0       0       0       0       0
       0       0       0       0       0       0       0       0
       0       0       0       0       0       0       0       0
       0       0       0       0       0       0       0       0
       0       0       0       0       0       0       0       0
       0       0       0       0       0       0       0       0
       0       0       0       0       0       0       0       0
       0       0       0       0       0       0       0       0
       0       0       0       0       0       0       0       0
       0       0       0       0       0       0       0       0
       0       0       0       0       0       0       0       0
       0       0       0       0       0       0       0       0
       0       0       0       0       0       0       0       0
       0       0       0       0       0       0       0       0
       0       0       0       0       0       0       0       0
       0       0       0       0       0       0       0       0
       0       0       0       0       0       0       0       0
       0       0       0       0       0       0       0       0
       0       0       0       0       0       0       0       0
       0       0       0       0       0       0       0       0
       0       0       0       0       0       0       0       0
       0       0       0       0       0       0       0       0
       0       0       0       0       0       0       0       0
       0       0       0       0       0       0       0       0
       0       0       0       0       0       0       0       0
       0       0       0       0       0       0       0       0
       0       0       0       0       0       0       0       0
       0       0       0       0       0       0       0       0
       0       0       0       0       0       0       0       0
       0       0       0       0       0       0       0       0
       0       0       0       0       0       0       0       0
       0       0       0       0       0       0       0       0
       0       0       0       0       0       0       0       0
       0       0       0       0       0       0       0       0
       0       0       0       0       0       0       0       0
       0       0       0       0       0       0       0       0
       0       0       0       0       0       0       0       0
       0       0       0       0       0       0       0       0
       0       0       0       0       0       0       0       0
       0       0       0       0       0       0       0       0
       0       0       0       0       0       0       0       0
       0       0       0       0       0       0       0       0
       0       0       0       0       0       0       0       0
       0       0       0       0       0       0       0       0
       0       0       0       0       0       0       0       0
       0       0       0       0       0       0       0       0
       0       0       0       0       0       0       0       0
       0       0       0       0       0       0       0       0
       0       0       0       0       0       0       0       0
       0       0       0       0       0       0       0       0
       0       0       0       0       0       0       0       0
       0       0       0       0       0       0       0       0
       0       0       0       0       0       0       0       0
       0       0       0       0       0       0       0       0
       0       0       0       0       0       0       0       0
       0       0       0       0       0       0       0       0
       0       0       0       0       0       0       0       0
       0       0       0       0       0       0       0       0
       0       0       0       0       0       0       0       0
       0       0       0       0       0       0       0       0
       0       0       0       0       0       0       0       0
       0       0       0       0       0       0       0       0
       0       0       0       0       0       0       0       0
       0       0       0       0       0       0       0       0
       0       0       0       0       0       0       0       0
       0       0       0       0       0       0       0       0
       0       0       0       0       0       0       0       0
       0       0       0       0       0       0       0       0
       0       0       0       0       0       0       0       0
       0       0       0       0       0       0       0       0
       0       0       0       0       0       0       0       0
       0       0       0       0       0       0       0       0
       0       0       0       0       0       0       0       0
       0       0       0       0       0       0       0       0
       0       0       0       0       0       0       0       0
       0       0       0       0       0       0       0       0
       0       0       0       0       0       0       0       0
       0       0       0       0       0       0       0       0
       0       0       0       0       0       0       0       0
       0       0       0       0       0       0       0       0
       0       0       0       0       0       0       0       0
       0       0       0       0       0       0       0       0
       0       0       0       0       0       0       0       0
       0       0       0       0       0       0       0       0
       0       0       0       0       0       0       0       0
       0       0       0       0       0       0       0       0
       0       0       0       0       0       0       0       0
       0       0       0       0       0       0       0       0
       0       0       0       0       0       0       0       0
       0       0       0       0       0       0       0       0
       0       0       0       0       0       0       0       0
       0       0       0       0       0       0       0       0
       0       0       0       0       0       0       0       0
       0       0       0       0       0       0       0       0
       0       0       0       0       0       0       0       0
       0       0       0       0       0       0       0       0
       0       0       0       0       0       0       0       0
       0       0       0       0       0       0       0       0
       0       0       0       0       0       0       0       0
       0       0       0       0       0       0       0       0
       0       0       0       0       0       0       0       0
       0       0       0       0       0       0       0       0
       0       0       0       0       0       0       0       0
       0       0       0       0       0       0       0       0
       0       0       0       0       0       0       0       0
       0       0       0       0       0       0       0       0
       0       0       0       0       0       0       0       0
       0       0       0       0       0       0       0       0
       0       0       0       0       0       0       0       0
       0       0       0       0       0       0       0       0
       0       0       0       0       0       0       0       0
       0       0       0       0       0       0       0       0
       0       0       0       0       0       0       0       0
       0       0       0       0       0       0       0       0
       0       0       0       0       0       0       0       0
       0       0       0       0       0       0       0       0
       0       0       0       0       0       0       0       0
       0       0       0       0       0       0       0       0
       0       0       0       0       0       0       0       0
       0       0       0       0       0       0       0       0
       0       0       0       0       0       0       0       0
       0       0       0       0       0       0       0       0
       0       0       0       0       0       0       0       0
       0       0       0       0       0       0       0       0
       0       0       0       0       0       0       0       0
       0       0       0       0       0       0       0       0
       0       0       0       0       0       0       0       0
       0       0       0       0       0       0       0       0
       0       0       0       0       0       0       0       0
       0       0       0       0       0       0       0       0
       0       0       0       0       0       0       0       0
       0       0       0       0       0       0       0       0
       0       0       0       0       0       0       0       0
       0       0       0       0       0       0       0       0
       0       0       0       0       0       0       0       0
       0       0       0       0       0       0       0       0
       0       0       0       0       0       0       0       0
       0       0       0       0       0       0       0       0
       0       0       0       0       0       0       0       0
       0       0       0       0       0       0       0       0
       0       0       0       0       0       0       0       0
       0       0       0       0       0       0       0       0
       0       0       0       0       0       0       0       0
       0       0       0       0       0       0       0       0
       0       0       0       0       0       0       0       0
       0       0       0       0       0       0       0       0
       0       0       0       0       0       0       0       0
       0       0       0       0       0       0       0       0
       0       0       0       0       0       0       0       0
       0       0       0       0       0       0       0       0
       0       0       0       0       0       0       0       0
       0       0       0       0       0       0       0       0
       0       0       0       0       0       0       0       0
       0       0       0       0       0       0       0       0
       0       0       0       0       0       0       0       0
       0       0       0       0       0       0       0       0
       0       0       0       0       0       0       0       0
       0       0       0       0       0       0       0       0
       0       0       0       0       0       0       0       0
       0       0       0       0       0       0       0       0
       0       0       0       0       0       0       0       0
       0       0       0       0       0       0       0       0
       0       0       0       0       0       0       0       0
       0       0       0       0       0       0       0       0
       0       0       0       0       0       0       0       0
       0       0       0       0       0       0       0       0
       0       0       0       0       0       0       0       0
       0       0       0       0       0       0       0       0
       0       0       0       0       0       0       0       0
       0       0       0       0       0       0       0       0
       0       0       0       0       0       0       0       0
       0       0       0       0       0       0       0       0
       0       0       0       0       0       0       0       0
       0       0       0       0       0       0       0       0
       0       0       0       0       0       0       0       0
       0       0       0       0       0       0       0       0
       0       0       0       0       0       0       0       0
       0       0       0       0       0       0       0       0
       0       0       0       0       0       0       0       0
       0       0       0       0       0       0       0       0
       0       0       0       0       0       0       0       0
       0       0       0       0       0       0       0       0
       0       0       0       0       0       0       0       0
       0       0       0       0       0       0       0       0
       0       0       0       0       0       0       0       0
       0       0       0       0       0       0       0       0
       0       0       0       0       0       0       0       0
       0       0       0       0       0       0       0       0
       0       0       0       0       0       0       0       0
       0       0       0       0       0       0       0       0
       0       0       0       0       0       0       0       0
       0       0       0       0       0       0       0       0
       0       0       0       0       0       0       0       0
       0       0       0       0       0       0       0       0
       0       0       0       0       0       0       0       0
       0       0       0       0       0       0       0       0
       0       0       0       0       0       0       0       0
       0       0       0       0       0       0       0       0
       0       0       0       0       0       0       0       0
       0       0       0       0       0       0       0       0
       0       0       0       0       0       0       0       0
       0       0       0       0       0       0       0       0
       0       0       0       0       0       0       0       0
       0       0       0       0       0       0       0       0
       0       0       0       0       0       0       0       0
       0       0       0       0       0       0       0       0
       0       0       0       0       0       0       0       0
       0       0       0       0       0       0       0       0
       0       0       0       0       0       0       0       0
       0       0       0       0       0       0       0       0
       0       0       0       0       0       0       0       0
       0       0       0       0       0       0       0       0
       0       0       0       0       0       0       0       0
       0       0       0       0       0       0       0       0
       0       0       0       0       0       0       0       0
       0       0       0       0       0       0       0       0
       0       0       0       0       0       0       0       0
       0       0       0       0       0       0       0       0
       0       0       0       0       0       0       0       0
       0       0       0       0       0       0       0       0
       0       0       0       0       0       0       0       0
       0       0       0       0       0       0       0       0
       0       0       0       0       0       0       0       0
       0       0       0       0       0       0       0       0
       0       0       0       0       0       0       0       0
       0       0       0       0       0       0       0       0
       0       0       0       0       0       0       0       0
       0       0       0       0       0       0       0       0
       0       0       0       0       0       0       0       0
       0       0       0       0       0       0       0       0
       0       0       0       0       0       0       0       0
       0       0       0       0       0       0       0       0
       0       0       0       0       0       0       0       0
       0       0       0       0       0       0       0       0
       0       0       0       0       0       0       0       0
       0       0       0       0       0       0       0       0
       0       0       0       0       0       0       0       0
       0       0       0       0       0       0       0       0
       0       0       0       0       0       0       0       0
       0       0       0       0       0       0       0       0
       0       0       0       0       0       0       0       0
       0       0       0       0       0       0       0       0
       0       0       0       0       0       0       0       0
       0       0       0       0       0       0       0       0
       0       0       0       0       0       0       0       0
       0       0       0       0       0       0       0       0
       0       0       0       0       0       0       0       0
       0       0       0       0       0       0       0       0
       0       0       0       0       0       0       0       0
       0       0       0       0       0       0       0       0
       0       0       0       0       0       0       0       0
       0       0       0       0       0       0       0       0
       0       0       0       0       0       0       0       0
       0       0       0       0       0       0       0       0
       0       0       0       0       0       0       0       0
       0       0       0       0       0       0       0       0
       0       0       0       0       0       0       0       0
       0       0       0       0       0       0       0       0
       0       0       0       0       0       0       0       0
       0       0       0       0       0       0       0       0
       0       0       0       0       0       0       0       0
       0       0       0       0       0       0       0       0
       0       0       0       0       0       0       0       0
       0       0       0       0       0       0       0       0
       0       0       0       0       0       0       0       0
       0       0       0       0       0       0       0       0
       0       0       0       0       0       0       0       0
       0       0       0       0       0       0       0       0
       0       0       0       0       0       0       0       0
       0       0       0       0       0       0       0       0
       0       0       0       0       0       0       0       0
       0       0       0       0       0       0       0       0
       0       0       0       0       0       0       0       0
       0       0       0       0       0       0       0       0
       0       0       0       0       0       0       0       0
       0       0       0       0       0       0       0       0
       0       0       0       0       0       0       0       0
       0       0       0       0       0       0       0       0
       0       0       0       0       0       0       0       0
       0       0       0       0       0       0       0       0
       0       0       0       0       0       0       0       0
       0       0       0       0       0       0       0       0
       0       0       0       0       0       0       0       0
       0       0       0       0       0       0       0       0
       0       0       0       0       0       0       0       0
       0       0       0       0       0       0       0       0
       0       0       0       0       0       0       0       0
       0       0       0       0       0       0       0       0
       0       0       0       0       0       0       0       0
       0       0       0       0       0       0       0       0
       0       0       0       0       0       0       0       0
       0       0       0       0       0       0       0       0
       0       0       0       0       0       0       0       0
       0       0       0       0       0       0       0       0
       0       0       0       0       0       0       0       0
       0       0       0       0       0       0       0       0
       0       0       0       0       0       0       0       0
       0       0       0       0       0       0       0       0
       0       0       0       0       0       0       0       0
       0       0       0       0       0       0       0       0
       0       0       0       0       0       0       0       0
       0       0       0       0       0       0       0       0
       0       0       0       0       0       0       0       0
       0       0       0       0       0       0       0       0
       0       0       0       0       0       0       0       0
       0       0       0       0       0       0       0       0
       0       0       0       0       0       0       0       0
       0       0       0       0       0       0       0       0
       0       0       0       0       0       0       0       0
       0       0       0       0       0       0       0       0
       0       0       0       0       0       0       0       0
       0       0       0       0       0       0       0       0
       0       0       0       0       0       0       0       0
       0       0       0       0       0       0       0       0
       0       0       0       0       0       0       0       0
       0       0       0       0       0       0       0       0
       0       0       0       0       0       0       0       0
       0       0       0       0       0       0       0       0
       0       0       0       0       0       0       0       0
       0       0       0       0       0       0       0       0
       0       0       0       0       0       0       0       0
       0       0       0       0       0       0       0       0
       0       0       0       0       0       0       0       0
       0       0       0       0       0       0       0       0
       0       0       0       0       0       0       0       0
       0       0       0       0       0       0       0       0
       0       0       0       0       0       0       0       0
       0       0       0       0       0       0       0       0
       0       0       0       0       0       0       0       0
       0       0       0       0       0       0       0       0
       0       0       0       0       0       0       0       0
       0       0       0       0       0       0       0       0
       0       0       0       0       0       0       0       0
       0       0       0       0       0       0       0       0
       0       0       0       0       0       0       0       0
       0       0       0       0       0       0       0       0
       0       0       0       0       0       0       0       0
       0       0       0       0       0       0       0       0
       0       0       0       0       0       0       0       0
       0       0       0       0       0       0       0       0
       0       0       0       0       0       0       0       0
       0       0       0       0       0       0       0       0
       0       0       0       0       0       0       0       0
       0       0       0       0       0       0       0       0
       0       0       0       0       0       0       0       0
       0       0       0       0       0       0       0       0
       0       0       0       0       0       0       0       0
       0       0       0       0       0       0       0       0
       0       0       0       0       0       0       0       0
       0       0       0       0       0       0       0       0
       0       0       0       0       0       0       0       0
       0       0       0       0       0       0       0       0
       0       0       0       0       0       0       0       0
       0       0       0       0       0       0       0       0
       0       0       0       0       0       0       0       0
       0       0       0       0       0       0       0       0
       0       0       0       0       0       0       0       0
       0       0       0       0       0       0       0       0
       0       0       0       0       0       0       0       0
       0       0       0       0       0       0       0       0
       0       0       0       0       0       0       0       0
       0       0       0       0       0       0       0       0
       0       0       0       0       0       0       0       0
       0       0       0       0       0       0       0       0
       0       0       0       0       0       0       0       0
       0       0       0       0       0       0       0       0
       0       0       0       0       0       0       0       0
       0       0       0       0       0       0       0       0
       0       0       0       0       0       0       0       0
       0       0       0       0       0       0       0       0
       0       0       0       0       0       0       0       0
       0       0       0       0       0       0       0       0
       0       0       0       0       0       0       0       0
       0       0       0       0       0       0       0       0
       0       0       0       0       0       0       0       0
       0       0       0       0       0       0       0       0
       0       0       0       0       0       0       0       0
       0       0       0       0       0       0       0       0
       0       0       0       0       0       0       0       0
       0       0       0       0       0       0       0       0
       0       0       0       0       0       0       0       0
       0       0       0       0       0       0       0       0
       0       0       0       0       0       0       0       0
       0       0       0       0       0       0       0       0
       0       0       0       0       0       0       0       0
       0       0       0       0       0       0       0       0
       0       0       0       0       0       0       0       0
       0       0       0       0       0       0       0       0
       0       0       0       0       0       0       0       0
       0       0       0       0       0       0       0       0
       0       0       0       0       0       0       0       0
       0       0       0       0       0       0       0       0
       0       0       0       0       0       0       0       0
       0       0       0       0       0       0       0       0
       0       0       0       0       0       0       0       0
       0       0       0       0       0       0       0       0
       0       0       0       0       0       0       0       0
       0       0       0       0       0       0       0       0
       0       0       0       0       0       0       0       0
       0       0       0       0       0       0       0       0
       0       0       0       0       0       0       0       0
       0       0       0       0       0       0       0       0
       0       0       0       0       0       0       0       0
       0       0       0       0       0       0       0       0
       0       0       0       0       0       0       0       0
       0       0       0       0       0       0       0       0
       0       0       0       0       0       0       0       0
       0       0       0       0       0       0       0       0
       0       0       0       0       0       0       0       0
       0       0       0       0       0       0       0       0
       0       0       0       0       0       0       0       0
       0       0       0       0       0       0       0       0
       0       0       0       0       0       0       0       0
       0       0       0       0       0       0       0       0
       0       0       0       0       0       0       0       0
       0       0       0       0       0       0       0       0
       0       0       0       0       0       0       0       0
       0       0       0       0       0       0       0       0
       0       0       0       0       0       0       0       0
       0       0       0       0       0       0       0       0
       0       0       0       0       0       0       0       0
       0       0       0       0       0       0       0       0
       0       0       0       0       0       0       0       0
       0       0       0       0       0       0       0       0
       0       0       0       0       0       0       0       0
       0       0       0       0       0       0       0       0
       0       0       0       0       0       0       0       0
       0       0       0       0       0       0       0       0
       0       0       0       0       0       0       0       0
       0       0       0       0       0       0       0       0
       0       0       0       0       0       0       0       0
       0       0       0       0       0       0       0       0
       0       0       0       0       0       0       0       0
       0       0       0       0       0       0       0       0
       0       0       0       0       0       0       0       0
       0       0       0       0       0       0       0       0
       0       0       0       0       0       0       0       0
       0       0       0       0       0       0       0       0
       0       0       0       0       0       0       0       0
       0       0       0       0       0       0       0       0
       0       0       0       0       0       0       0       0
       0       0       0       0       0       0       0       0
       0       0       0       0       0       0       0       0
       0       0       0       0       0       0       0       0
       0       0       0       0       0       0       0       0
       0       0       0       0       0       0       0       0
       0       0       0       0       0       0       0       0
       0       0       0       0       0       0       0       0
       0       0       0       0       0       0       0       0
       0       0       0       0       0       0       0       0
       0       0       0       0       0       0       0       0
       0       0       0       0       0       0       0       0
       0       0       0       0       0       0       0       0
       0       0       0       0       0       0       0       0
       0       0       0       0       0       0       0       0
       0       0       0       0       0       0       0       0
       0       0       0       0       0       0       0       0
       0       0       0       0       0       0       0       0
       0       0       0       0       0       0       0       0
       0       0       0       0       0       0       0       0
       0       0       0       0       0       0       0       0
       0       0       0       0       0       0       0       0
       0       0       0       0       0       0       0       0
       0       0       0       0       0       0       0       0
       0       0       0       0       0       0       0       0
       0       0       0       0       0       0       0       0
       0       0       0       0       0       0       0       0
       0       0       0       0       0       0       0       0
       0       0       0       0       0       0       0       0
       0       0       0       0       0       0       0       0
       0       0       0       0       0       0       0       0
       0       0       0       0       0       0       0       0
       0       0       0       0       0       0       0       0
       0       0       0       0       0       0       0       0
       0       0       0       0       0       0       0       0
       0       0       0       0       0       0       0       0
       0       0       0       0       0       0       0       0
       0       0       0       0       0       0       0       0
       0       0       0       0       0       0       0       0
       0       0       0       0       0       0       0       0
       0       0       0       0       0       0       0       0
       0       0       0       0       0       0       0       0
       0       0       0       0       0       0       0       0
       0       0       0       0       0       0       0       0
       0       0       0       0       0       0       0       0
       0       0       0       0       0       0       0       0
       0       0       0       0       0       0       0       0
       0       0       0       0       0       0       0       0
       0       0       0       0       0       0       0       0
       0       0       0       0       0       0       0       0
       0       0       0       0       0       0       0       0
       0       0       0       0       0       0       0       0
       0       0       0       0       0       0       0       0
       0       0       0       0       0       0       0       0
       0       0       0       0       0       0       0       0
       0       0       0       0       0       0       0       0
       0       0       0       0       0       0       0       0
       0       0       0       0       0       0       0       0
       0       0       0       0       0       0       0       0
       0       0       0       0       0       0       0       0
       0       0       0       0       0       0       0       0
       0       0       0       0       0       0       0       0
       0       0       0       0       0       0       0       0
       0       0       0       0       0       0       0       0
       0       0       0       0       0       0       0       0
       0       0       0       0       0       0       0       0
       0       0       0       0       0       0       0       0
       0       0       0       0       0       0       0       0
       0       0       0       0       0       0       0       0
       0       0       0       0       0       0       0       0
       0       0       0       0       0       0       0       0
       0       0       0       0       0       0       0       0
       0       0       0       0       0       0       0       0
       0       0       0       0       0       0       0       0
       0       0       0       0       0       0       0       0
       0       0       0       0       0       0       0       0
       0       0       0       0       0       0       0       0
       0       0       0       0       0       0       0       0
       0       0       0       0       0       0       0       0
       0       0       0       0       0       0       0       0
       0       0       0       0       0       0       0       0
       0       0       0       0       0       0       0       0
       0       0       0       0       0       0       0       0
       0       0       0       0       0       0       0       0
       0       0       0       0       0       0       0       0
       0       0       0       0       0       0       0       0
       0       0       0       0       0       0       0       0
       0       0       0       0       0       0       0       0
       0       0       0       0       0       0       0       0
       0       0       0       0       0       0       0       0
       0       0       0       0       0       0       0       0
       0       0       0       0       0       0       0       0
       0       0       0       0       0       0       0       0
       0       0       0       0       0       0       0       0
       0       0       0       0       0       0       0       0
       0       0       0       0       0       0       0       0
       0       0       0       0       0       0       0       0
       0       0       0       0       0       0       0       0
       0       0       0       0       0       0       0       0
       0       0       0       0       0       0       0       0
       0       0       0       0       0       0       0       0
       0       0       0       0       0       0       0       0
       0       0       0       0       0       0       0       0
       0       0       0       0       0       0       0       0
       0       0       0       0       0       0       0       0
       0       0       0       0       0       0       0       0
       0       0       0       0       0       0       0       0
       0       0       0       0       0       0       0       0
       0       0       0       0       0       0       0       0
       0       0       0       0       0       0       0       0
       0       0       0       0       0       0       0       0
       0       0       0       0       0       0       0       0
       0       0       0       0       0       0       0       0
       0       0       0       0       0       0       0       0
       0       0       0       0       0       0       0       0
       0       0       0       0       0       0       0       0
       0       0       0       0       0       0       0       0
       0       0       0       0       0       0       0       0
       0       0       0       0       0       0       0       0
       0       0       0       0       0       0       0       0
       0       0       0       0       0       0       0       0
       0       0       0       0       0       0       0       0
       0       0       0       0       0       0       0       0
       0       0       0       0       0       0       0       0
       0       0       0       0       0       0       0       0
       0       0       0       0       0       0       0       0
       0       0       0       0       0       0       0       0
       0       0       0       0       0       0       0       0
       0       0       0       0       0       0       0       0
       0       0       0       0       0       0       0       0
       0       0       0       0       0       0       0       0
       0       0       0       0       0       0       0       0
       0       0       0       0       0       0       0       0
       0       0       0       0       0       0       0       0
       0       0       0       0       0       0       0       0
       0       0       0       0       0       0       0       0
       0       0       0       0       0       0       0       0
       0       0       0       0       0       0       0       0
       0       0       0       0       0       0       0       0
       0       0       0       0       0       0       0       0
       0       0       0       0       0       0       0       0
       0       0       0       0       0       0       0       0
       0       0       0       0       0       0       0       0
       0       0       0       0       0       0       0       0
       0       0       0       0       0       0       0       0
       0       0       0       0       0       0       0       0
       0       0       0       0       0       0       0       0
       0       0       0       0       0       0       0       0
       0       0       0       0       0       0       0       0
       0       0       0       0       0       0       0       0
       0       0       0       0       0       0       0       0
       0       0       0       0       0       0       0       0
       0       0       0       0       0       0       0       0
       0       0       0       0       0       0       0       0
       0       0       0       0       0       0       0       0
       0       0       0       0       0       0       0       0
       0       0       0       0       0       0       0       0
       0       0       0       0       0       0       0       0
       0       0       0       0       0       0       0       0
       0       0       0       0       0       0       0       0
       0       0       0       0       0       0       0       0
       0       0       0       0       0       0       0       0
       0       0       0       0       0       0       0       0
       0       0       0       0       0       0       0       0
       0       0       0       0       0       0       0       0
       0       0       0       0       0       0       0       0
       0       0       0       0       0       0       0       0
       0       0       0       0       0       0       0       0
       0       0       0       0       0       0       0       0
       0       0       0       0       0       0       0       0
       0       0       0       0       0       0       0       0
       0       0       0       0       0       0       0       0
       0       0       0       0       0       0       0       0
       0       0       0       0       0       0       0       0
       0       0       0       0       0       0       0       0
       0       0       0       0       0       0       0       0
       0       0       0       0       0       0       0       0
       0       0       0       0       0       0       0       0
       0       0       0       0       0       0       0       0
       0       0       0       0       0       0       0       0
       0       0       0       0       0       0       0       0
       0       0       0       0       0       0       0       0
       0       0       0       0       0       0       0       0
       0       0       0       0       0       0       0       0
       0       0       0       0       0       0       0       0
       0       0       0       0       0       0       0       0
       0       0       0       0       0       0       0       0
       0       0       0       0       0       0       0       0
       0       0       0       0       0       0       0       0
       0       0       0       0       0       0       0       0
       0       0       0       0       0       0       0       0
       0       0       0       0       0       0       0       0
       0       0       0       0       0       0       0       0
       0       0       0       0       0       0       0       0
       0       0       0       0       0       0       0       0
       0       0       0       0       0       0       0       0
       0       0       0       0       0       0       0       0
       0       0       0       0       0       0       0       0
       0       0       0       0       0       0       0       0
       0       0       0       0       0       0       0       0
       0       0       0       0       0       0       0       0
       0       0       0       0       0       0       0       0
       0       0       0       0       0       0       0       0
       0       0       0       0       0       0       0       0
       0       0       0       0       0       0       0       0
       0       0       0       0       0       0       0       0
       0       0       0       0       0       0       0       0
       0       0       0       0       0       0       0       0
       0       0       0       0       0       0       0       0
       0       0       0       0       0       0       0       0
       0       0       0       0       0       0       0       0
       0       0       0       0       0       0       0       0
       0       0       0       0       0       0       0       0
       0       0       0       0       0       0       0       0
       0       0       0       0       0       0       0       0
       0       0       0       0       0       0       0       0
       0       0       0       0       0       0       0       0
       0       0       0       0       0       0       0       0
       0       0       0       0       0       0       0       0
       0       0       0       0       0       0       0       0
       0       0       0       0       0       0       0       0
       0       0       0       0       0       0       0       0
       0       0       0       0       0       0       0       0
       0       0       0       0       0       0       0       0
       0       0       0       0       0       0       0       0
       0       0       0       0       0       0       0       0
       0       0       0       0       0       0       0       0
       0       0       0       0       0       0       0       0
       0       0       0       0       0       0       0       0
       0       0       0       0       0       0       0       0
       0       0       0       0       0       0       0       0
       0       0       0       0       0       0       0       0
       0       0       0       0       0       0       0       0
       0       0       0       0       0       0       0       0
       0       0       0       0       0       0       0       0
       0       0       0       0       0       0       0       0
       0       0       0       0       0       0       0       0
       0       0       0       0       0       0       0       0
       0       0       0       0       0       0       0       0
       0       0       0       0       0       0       0       0
       0       0       0       0       0       0       0       0
       0       0       0       0       0       0       0       0
       0       0       0       0       0       0       0       0
       0       0       0       0       0       0       0       0
       0       0       0       0       0       0       0       0
       0       0       0       0       0       0       0       0
       0       0       0       0       0       0       0       0
       0       0       0       0       0       0       0       0
       0       0       0       0       0       0       0       0
       0       0       0       0       0       0       0       0
       0       0       0       0       0       0       0       0
       0       0       0       0       0       0       0       0
       0       0       0       0       0       0       0       0
       0       0       0       0       0       0       0       0
       0       0       0       0       0       0       0       0
       0       0       0       0       0       0       0       0
       0       0       0       0       0       0       0       0
       0       0       0       0       0       0       0       0
       0       0       0       0       0       0       0       0
       0       0       0       0       0       0       0       0
       0       0       0       0       0       0       0       0
       0       0       0       0       0       0       0       0
       0       0       0       0       0       0       0       0
       0       0       0       0       0       0       0       0
       0       0       0       0       0       0       0       0
       0       0       0       0       0       0       0       0
       0       0       0       0       0       0       0       0
       0       0       0       0       0       0       0       0
       0       0       0       0       0       0       0       0
       0       0       0       0       0       0       0       0
       0       0       0       0       0       0       0       0
       0       0       0       0       0       0       0       0
       0       0       0       0       0       0       0       0
       0       0       0       0       0       0       0       0
       0       0       0       0       0       0       0       0
       0       0       0       0       0       0       0       0
       0       0       0       0       0       0       0       0
       0       0       0       0       0       0       0       0
       0       0       0       0       0       0       0       0
       0       0       0       0       0       0       0       0
       0       0       0       0       0       0       0       0
       0       0       0       0       0       0       0       0
       0       0       0       0       0       0       0       0
       0       0       0       0       0       0       0       0
       0       0       0       0       0       0       0       0
       0       0       0       0       0       0       0       0
       0       0       0       0       0       0       0       0
       0       0       0       0       0       0       0       0
       0       0       0       0       0       0       0       0
       0       0       0       0       0       0       0       0
       0       0       0       0       0       0       0       0
       0       0       0       0       0       0       0       0
       0       0       0       0       0       0       0       0
       0       0       0       0       0       0       0       0
       0       0       0       0       0       0       0       0
       0       0       0       0       0       0       0       0
       0       0       0       0       0       0       0       0
       0       0       0       0       0       0       0       0
       0       0       0       0       0       0       0       0
       0       0       0       0       0       0       0       0
       0       0       0       0       0       0       0       0
       0       0       0       0       0       0       0       0
       0       0       0       0       0       0       0       0
       0       0       0       0       0       0       0       0
       0       0       0       0       0       0       0       0
       0       0       0       0       0       0       0       0
       0       0       0       0       0       0       0       0
       0       0       0       0       0       0       0       0
       0       0       0       0       0       0       0       0
       0       0       0       0       0       0       0       0
       0       0       0       0       0       0       0       0
       0       0       0       0       0       0       0       0
       0       0       0       0       0       0       0       0
       0       0       0       0       0       0       0       0
       0       0       0       0       0       0       0       0
       0       0       0       0       0       0       0       0
       0       0       0       0       0       0       0       0
       0       0       0       0       0       0       0       0
       0       0       0       0       0       0       0       0
       0       0       0       0       0       0       0       0
       0       0       0       0       0       0       0       0
       0       0       0       0       0       0       0       0
       0       0       0       0       0       0       0       0
       0       0       0       0       0       0       0       0
       0       0       0       0       0       0       0       0
       0       0       0       0       0       0       0       0
       0       0       0       0       0       0       0       0
       0       0       0       0       0       0       0       0
       0       0       0       0       0       0       0       0
       0       0       0       0       0       0       0       0
       0       0       0       0       0       0       0       0
       0       0       0       0       0       0       0       0
       0       0       0       0       0       0       0       0
       0       0       0       0       0       0       0       0
       0       0       0       0       0       0       0       0
       0       0       0       0       0       0       0       0
       0       0       0       0       0       0       0       0
       0       0       0       0       0       0       0       0
       0       0       0       0       0       0       0       0
       0       0       0       0       0       0       0       0
       0       0       0       0       0       0       0       0
       0       0       0       0       0       0       0       0
       0       0       0       0       0       0       0       0
       0       0       0       0       0       0       0       0
       0       0       0       0       0       0       0       0
       0       0       0       0       0       0       0       0
       0       0       0       0       0       0       0       0
       0       0       0       0       0       0       0       0
       0       0       0       0       0       0       0       0
       0       0       0       0       0       0       0       0
       0       0       0       0       0       0       0       0
       0       0       0       0       0       0       0       0
       0       0       0       0       0       0       0       0
       0       0       0       0       0       0       0       0
       0       0       0       0       0       0       0       0
       0       0       0       0       0       0       0       0
       0       0       0       0       0       0       0       0
       0       0       0       0       0       0       0       0
       0       0       0       0       0       0       0       0
       0       0       0       0       0       0       0       0
       0       0       0       0       0       0       0       0
       0       0       0       0       0       0       0       0
       0       0       0       0       0       0       0       0
       0       0       0       0       0       0       0       0
       0       0       0       0       0       0       0       0
       0       0       0       0       0       0       0       0
       0       0       0       0       0       0       0       0
       0       0       0       0       0       0       0       0
       0       0       0       0       0       0       0       0
       0       0       0       0       0       0       0       0
       0       0       0       0       0       0       0       0
       0       0       0       0       0       0       0       0
       0       0       0       0       0       0       0       0
       0       0       0       0       0       0       0       0
       0       0       0       0       0       0       0       0
       0       0       0       0       0       0       0       0
       0       0       0       0       0       0       0       0
       0       0       0       0       0       0       0       0
       0       0       0       0       0       0       0       0
       0       0       0       0       0       0       0       0
       0       0       0       0       0       0       0       0
       0       0       0       0       0       0       0       0
       0       0       0       0       0       0       0       0
       0       0       0       0       0       0       0       0
       0       0       0       0       0       0       0       0
       0       0       0       0       0       0       0       0
       0       0       0       0       0       0       0       0
       0       0       0       0       0       0       0       0
       0       0       0       0       0       0       0       0
       0       0       0       0       0       0       0       0
       0       0       0       0       0       0       0       0
       0       0       0       0       0       0       0       0
       0       0       0       0       0       0       0       0
       0       0       0       0       0       0       0       0
       0       0       0       0       0       0       0       0
       0       0       0       0       0       0       0       0
       0       0       0       0       0       0       0       0
       0       0       0       0       0       0       0       0
       0       0       0       0       0       0       0       0
       0       0       0       0       0       0       0       0
       0       0       0       0       0       0       0       0
       0       0       0       0       0       0       0       0
       0       0       0       0       0       0       0       0
       0       0       0       0       0       0       0       0
       0       0       0       0       0       0       0       0
       0       0       0       0       0       0       0       0
       0       0       0       0       0       0       0       0
       0       0       0       0       0       0       0       0
       0       0       0       0       0       0       0       0
       0       0       0       0       0       0       0       0
       0       0       0       0       0       0       0       0
       0       0       0       0       0       0       0       0
       0       0       0       0       0       0       0       0
       0       0       0       0       0       0       0       0
       0       0       0       0       0       0       0       0
       0       0       0       0       0       0       0       0
       0       0       0       0       0       0       0       0
       0       0       0       0       0       0       0       0
       0       0       0       0       0       0       0       0
       0       0       0       0       0       0       0       0
       0       0       0       0       0       0       0       0
       0       0       0       0       0       0       0       0
       0       0       0       0       0       0       0       0
       0       0       0       0       0       0       0       0
       0       0       0       0       0       0       0       0
       0       0       0       0       0       0       0       0
       0       0       0       0       0       0       0       0
       0       0       0       0       0       0       0       0
       0       0       0       0       0       0       0       0
       0       0       0       0       0       0       0       0
       0       0       0       0       0       0       0       0
       0       0       0       0       0       0       0       0
       0       0       0       0       0       0       0       0
       0       0       0       0       0       0       0       0
       0       0       0       0       0       0       0       0
       0       0       0       0       0       0       0       0
       0       0       0       0       0       0       0       0
       0       0       0       0       0       0       0       0
       0       0       0       0       0       0       0       0
       0       0       0       0       0       0       0       0
       0       0       0       0       0       0       0       0
       0       0       0       0       0       0       0       0
       0       0       0       0       0       0       0       0
       0       0       0       0       0       0       0       0
       0       0       0       0       0       0       0       0
       0       0       0       0       0       0       0       0
       0       0       0       0       0       0       0       0
       0       0       0       0       0       0       0       0
       0       0       0       0       0       0       0       0
       0       0       0       0       0       0       0       0
       0       0       0       0       0       0       0       0
       0       0       0       0       0       0       0       0
       0       0       0       0       0       0       0       0
       0       0       0       0       0       0       0       0
       0       0       0       0       0       0       0       0
       0       0       0       0       0       0       0       0
       0       0       0       0       0       0       0       0
       0       0       0       0       0       0       0       0
       0       0       0       0       0       0       0       0
       0       0       0       0       0       0       0       0
       0       0       0       0       0       0       0       0
       0       0       0       0       0       0       0       0
       0       0       0       0       0       0       0       0
       0       0       0       0       0       0       0       0
       0       0       0       0       0       0       0       0
       0       0       0       0       0       0       0       0
       0       0       0       0       0       0       0       0
       0       0       0       0       0       0       0       0
       0       0       0       0       0       0       0       0
       0       0       0       0       0       0       0       0
       0       0       0       0       0       0       0       0
       0       0       0       0       0       0       0       0
       0       0       0       0       0       0       0       0
       0       0       0       0       0       0       0       0
       0       0       0       0       0       0       0       0
       0       0       0       0       0       0       0       0
       0       0       0       0       0       0       0       0
       0       0       0       0       0       0       0       0
       0       0       0       0       0       0       0       0
       0       0       0       0       0       0       0       0
       0       0       0       0       0       0       0       0
       0       0       0       0       0       0       0       0
       0       0       0       0       0       0       0       0
       0       0       0       0       0       0       0       0
       0       0       0       0       0       0       0       0
       0       0       0       0       0       0       0       0
       0       0       0       0       0       0       0       0
       0       0       0       0       0       0       0       0
       0       0       0       0       0       0       0       0
       0       0       0       0       0       0       0       0
       0       0       0       0       0       0       0       0
       0       0       0       0       0       0       0       0
       0       0       0       0       0       0       0       0
       0       0       0       0       0       0       0       0
       0       0       0       0       0       0       0       0
       0       0       0       0       0       0       0       0
       0       0       0       0       0       0       0       0
       0       0       0       0       0       0       0       0
       0       0       0       0       0       0       0       0
       0       0       0       0       0       0       0       0
       0       0       0       0       0       0       0       0
       0       0       0       0       0       0       0       0
       0       0       0       0       0       0       0       0
       0       0       0       0       0       0       0       0
       0       0       0       0       0       0       0       0
       0       0       0       0       0       0       0       0
       0       0       0       0       0       0       0       0
       0       0       0       0       0       0       0       0
       0       0       0       0       0       0       0       0
       0       0       0       0       0       0       0       0
       0       0       0       0       0       0       0       0
       0       0       0       0       0       0       0       0
       0       0       0       0       0       0       0       0
       0       0       0       0       0       0       0       0
       0       0       0       0       0       0       0       0
       0       0       0       0       0       0       0       0
       0       0       0       0       0       0       0       0
       0       0       0       0       0       0       0       0
       0       0       0       0       0       0       0       0
       0       0       0       0       0       0       0       0
       0       0       0       0       0       0       0       0
       0       0       0       0       0       0       0       0
       0       0       0       0       0       0       0       0
       0       0       0       0       0       0       0       0
       0       0       0       0       0       0       0       0
       0       0       0       0       0       0       0       0
       0       0       0       0       0       0       0       0
       0       0       0       0       0       0       0       0
       0       0       0       0       0       0       0       0
       0       0       0       0       0       0       0       0
       0       0       0       0       0       0       0       0
       0       0       0       0       0       0       0       0
       0       0       0       0       0       0       0       0
       0       0       0       0       0       0       0       0
       0       0       0       0       0       0       0       0
       0       0       0       0       0       0       0       0
       0       0       0       0       0       0       0       0
       0       0       0       0       0       0       0       0
       0       0       0       0       0       0       0       0
       0       0       0       0       0       0       0       0
       0       0       0       0       0       0       0       0
       0       0       0       0       0       0       0       0
       0       0       0       0       0       0       0       0
       0       0       0       0       0       0       0       0
       0       0       0       0       0       0       0       0
       0       0       0       0       0       0       0       0
       0       0       0       0       0       0       0       0
       0       0       0       0       0       0       0       0
       0       0       0       0       0       0       0       0
       0       0       0       0       0       0       0       0
       0       0       0       0       0       0       0       0
       0       0       0       0       0       0       0       0
       0       0       0       0       0       0       0       0
       0       0       0       0       0       0       0       0
       0       0       0       0       0       0       0       0
       0       0       0       0       0       0       0       0
       0       0       0       0       0       0       0       0
       0       0       0       0       0       0       0       0
       0       0       0       0       0       0       0       0
       0       0       0       0       0       0       0       0
       0       0       0       0       0       0       0       0
       0       0       0       0       0       0       0       0
       0       0       0       0       0       0       0       0
       0       0       0       0       0       0       0       0
       0       0       0       0       0       0       0       0
       0       0       0       0       0       0       0       0
       0       0       0       0       0       0       0       0
       0       0       0       0       0       0       0       0
       0       0       0       0       0       0       0       0
       0       0       0       0       0       0       0       0
       0       0       0       0       0       0       0       0
       0       0       0       0       0       0       0       0
       0       0       0       0       0       0       0       0
       0       0       0       0       0       0       0       0
       0       0       0       0       0       0       0       0
       0       0       0       0       0       0       0       0
       0       0       0       0       0       0       0       0
       0       0       0       0       0       0       0       0
       0       0       0       0       0       0       0       0
       0       0       0       0       0       0       0       0
       0       0       0       0       0       0       0       0
       0       0       0       0       0       0       0       0
       0       0       0       0       0       0       0       0
       0       0       0       0       0       0       0       0
       0       0       0       0       0       0       0       0
       0       0       0       0       0       0       0       0
       0       0       0       0       0       0       0       0
       0       0       0       0       0       0       0       0
       0       0       0       0       0       0       0       0
       0       0       0       0       0       0       0       0
       0       0       0       0       0       0       0       0
       0       0       0       0       0       0       0       0
       0       0       0       0       0       0       0       0
       0       0       0       0       0       0       0       0
       0       0       0       0       0       0       0       0
       0       0       0       0       0       0       0       0
       0       0       0       0       0       0       0       0
       0       0       0       0       0       0       0       0
       0       0       0       0       0       0       0       0
       0       0       0       0       0       0       0       0
       0       0       0       0       0       0       0       0
       0       0       0       0       0       0       0       0
       0       0       0       0       0       0       0       0
       0       0       0       0       0       0       0       0
       0       0       0       0       0       0       0       0
       0       0       0       0       0       0       0       0
       0       0       0       0       0       0       0       0
       0       0       0       0       0       0       0       0
       0       0       0       0       0       0       0       0
       0       0       0       0       0       0       0       0
       0       0       0       0       0       0       0       0
       0       0       0       0       0       0       0       0
       0       0       0       0       0       0       0       0
       0       0       0       0       0       0       0       0
       0       0       0       0       0       0       0       0
       0       0       0       0       0       0       0       0
       0       0       0       0       0       0       0       0
       0       0       0       0       0       0       0       0
       0       0       0       0       0       0       0       0
       0       0       0       0       0       0       0       0
       0       0       0       0       0       0       0       0
       0       0       0       0       0       0       0       0
       0       0       0       0       0       0       0       0
       0       0       0       0       0       0       0       0
       0       0       0       0       0       0       0       0
       0       0       0       0       0       0       0       0
       0       0       0       0       0       0       0       0
       0       0       0       0       0       0       0       0
       0       0       0       0       0       0       0       0
       0       0       0       0       0       0       0       0
       0       0       0       0       0       0       0       0
       0       0       0       0       0       0       0       0
       0       0       0       0       0       0       0       0
       0       0       0       0       0       0       0       0
       0       0       0       0       0       0       0       0
       0       0       0       0       0       0       0       0
       0       0       0       0       0       0       0       0
       0       0       0       0       0       0       0       0
       0       0       0       0       0       0       0       0
       0       0       0       0       0       0       0       0
       0       0       0       0       0       0       0       0
       0       0       0       0       0       0       0       0
       0       0       0       0       0       0       0       0
       0       0       0       0       0       0       0       0
       0       0       0       0       0       0       0       0
       0       0       0       0       0       0       0       0
       0       0       0       0       0       0       0       0
       0       0       0       0       0       0       0       0
       0       0       0       0       0       0       0       0
       0       0       0       0       0       0       0       0
       0       0       0       0       0       0       0       0
       0       0       0       0       0       0       0       0
       0       0       0       0       0       0       0       0
       0       0       0       0       0       0       0       0
       0       0       0       0       0       0       0       0
       0       0       0       0       0       0       0       0
       0       0       0       0       0       0       0       0
       0       0       0       0       0       0       0       0
       0       0       0       0       0       0       0       0
       0       0       0       0       0       0       0       0
       0       0       0       0       0       0       0       0
       0       0       0       0       0       0       0       0
       0       0       0       0       0       0       0       0
       0       0       0       0       0       0       0       0
       0       0       0       0       0       0       0       0
       0       0       0       0       0       0       0       0
       0       0       0       0       0       0       0       0
       0       0       0       0       0       0       0       0
       0       0       0       0       0       0       0       0
       0       0       0       0       0       0       0       0
       0       0       0       0       0       0       0       0
       0       0       0       0       0       0       0       0
       0       0       0       0       0       0       0       0
       0       0       0       0       0       0       0       0
       0       0       0       0       0       0       0       0
       0       0       0       0       0       0       0       0
       0       0       0       0       0       0       0       0
       0       0       0       0       0       0       0       0
       0       0       0       0       0       0       0       0
       0       0       0       0       0       0       0       0
       0       0       0       0       0       0       0       0
       0       0       0       0       0       0       0       0
       0       0       0       0       0       0       0       0
       0       0       0       0       0       0       0       0
       0       0       0       0       0       0       0       0
       0       0       0       0       0       0       0       0
       0       0       0       0       0       0       0       0
       0       0       0       0       0       0       0       0
       0       0       0       0       0       0       0       0
       0       0       0       0       0       0       0       0
       0       0       0       0       0       0       0       0
       0       0       0       0       0       0       0       0
       0       0       0       0       0       0       0       0
       0       0       0       0       0       0       0       0
       0       0       0       0       0       0       0       0
       0       0       0       0       0       0       0       0
       0       0       0       0       0       0       0       0
       0       0       0       0       0       0       0       0
       0       0       0       0       0       0       0       0
       0       0       0       0       0       0       0       0
       0       0       0       0       0       0       0       0
       0       0       0       0       0       0       0       0
       0       0       0       0       0       0       0       0
       0       0       0       0       0       0       0       0
       0       0       0       0       0       0       0       0
       0       0       0       0       0       0       0       0
       0       0       0       0       0       0       0       0
       0       0       0       0       0       0       0       0
       0       0       0       0       0       0       0       0
       0       0       0       0       0       0       0       0
       0       0       0       0       0       0       0       0
       0       0       0       0       0       0       0       0
       0       0       0       0       0       0       0       0
       0       0       0       0       0       0       0       0
       0       0       0       0       0       0       0       0
       0       0       0       0       0       0       0       0
       0       0       0       0       0       0       0       0
       0       0       0       0       0       0       0       0
       0       0       0       0       0       0       0       0
       0       0       0       0       0       0       0       0
       0       0       0       0       0       0       0       0
       0       0       0       0       0       0       0       0
       0       0       0       0       0       0       0       0
       0       0       0       0       0       0       0       0
       0       0       0       0       0       0       0       0
       0       0       0       0       0       0       0       0
       0       0       0       0       0       0       0       0
       0       0       0       0       0       0       0       0
       0       0       0       0       0       0       0       0
       0       0       0       0       0       0       0       0
       0       0       0       0       0       0       0       0
       0       0       0       0       0       0       0       0
       0       0       0       0       0       0       0       0
       0       0       0       0       0       0       0       0
       0       0       0       0       0       0       0       0
       0       0       0       0       0       0       0       0
       0       0       0       0       0       0       0       0
       0       0       0       0       0       0       0       0
       0       0       0       0

       1       0 !NGRP
       0       0       0

