PSF

      46 !NTITLE
 REMARKS original generated structure x-plor psf file
 REMARKS 42 patches were applied to the molecule.
 REMARKS topology /opt/charmm/toppar/top_all36_na.rtf 
 REMARKS segment DNA { first 5TER; last 3TER; auto angles dihedrals }
 REMARKS patch 5TER DNA:1  
 REMARKS patch 3TER DNA:40  
 REMARKS patch DEO5 DNA:1  
 REMARKS patch DEOX DNA:2  
 REMARKS patch DEOX DNA:3  
 REMARKS patch DEOX DNA:4  
 REMARKS patch DEOX DNA:5  
 REMARKS patch DEOX DNA:6  
 REMARKS patch DEOX DNA:7  
 REMARKS patch DEOX DNA:8  
 REMARKS patch DEOX DNA:9  
 REMARKS patch DEOX DNA:10  
 REMARKS patch DEOX DNA:11  
 REMARKS patch DEOX DNA:12  
 REMARKS patch DEOX DNA:13  
 REMARKS patch DEOX DNA:14  
 REMARKS patch DEOX DNA:15  
 REMARKS patch DEOX DNA:16  
 REMARKS patch DEOX DNA:17  
 REMARKS patch DEOX DNA:18  
 REMARKS patch DEOX DNA:19  
 REMARKS patch DEOX DNA:20  
 REMARKS patch DEOX DNA:21  
 REMARKS patch DEOX DNA:22  
 REMARKS patch DEOX DNA:23  
 REMARKS patch DEOX DNA:24  
 REMARKS patch DEOX DNA:25  
 REMARKS patch DEOX DNA:26  
 REMARKS patch DEOX DNA:27  
 REMARKS patch DEOX DNA:28  
 REMARKS patch DEOX DNA:29  
 REMARKS patch DEOX DNA:30  
 REMARKS patch DEOX DNA:31  
 REMARKS patch DEOX DNA:32  
 REMARKS patch DEOX DNA:33  
 REMARKS patch DEOX DNA:34  
 REMARKS patch DEOX DNA:35  
 REMARKS patch DEOX DNA:36  
 REMARKS patch DEOX DNA:37  
 REMARKS patch DEOX DNA:38  
 REMARKS patch DEOX DNA:39  
 REMARKS patch DEOX DNA:40  

    1279 !NATOM
       1 DNA  1    THY  H5T  HN5    0.430000        1.0080           0
       2 DNA  1    THY  O5'  ON5   -0.660000       15.9994           0
       3 DNA  1    THY  C5'  CN8B   0.050000       12.0110           0
       4 DNA  1    THY  H5'  HN8    0.090000        1.0080           0
       5 DNA  1    THY  H5'' HN8    0.090000        1.0080           0
       6 DNA  1    THY  C4'  CN7    0.160000       12.0110           0
       7 DNA  1    THY  H4'  HN7    0.090000        1.0080           0
       8 DNA  1    THY  O4'  ON6   -0.500000       15.9994           0
       9 DNA  1    THY  C1'  CN7B   0.160000       12.0110           0
      10 DNA  1    THY  H1'  HN7    0.090000        1.0080           0
      11 DNA  1    THY  N1   NN2B  -0.340000       14.0070           0
      12 DNA  1    THY  C6   CN3    0.170000       12.0110           0
      13 DNA  1    THY  H6   HN3    0.170000        1.0080           0
      14 DNA  1    THY  C2   CN1T   0.510000       12.0110           0
      15 DNA  1    THY  O2   ON1   -0.410000       15.9994           0
      16 DNA  1    THY  N3   NN2U  -0.460000       14.0070           0
      17 DNA  1    THY  H3   HN2    0.360000        1.0080           0
      18 DNA  1    THY  C4   CN1    0.500000       12.0110           0
      19 DNA  1    THY  O4   ON1   -0.450000       15.9994           0
      20 DNA  1    THY  C5   CN3T  -0.150000       12.0110           0
      21 DNA  1    THY  C5M  CN9   -0.110000       12.0110           0
      22 DNA  1    THY  H51  HN9    0.070000        1.0080           0
      23 DNA  1    THY  H52  HN9    0.070000        1.0080           0
      24 DNA  1    THY  H53  HN9    0.070000        1.0080           0
      25 DNA  1    THY  C2'  CN8   -0.180000       12.0110           0
      26 DNA  1    THY  H2'' HN8    0.090000        1.0080           0
      27 DNA  1    THY  H2'  HN8    0.090000        1.0080           0
      28 DNA  1    THY  C3'  CN7    0.010000       12.0110           0
      29 DNA  1    THY  H3'  HN7    0.090000        1.0080           0
      30 DNA  1    THY  O3'  ON2   -0.570000       15.9994           0
      31 DNA  2    THY  P    P2     1.500000       30.9740           0
      32 DNA  2    THY  O1P  ON3   -0.780000       15.9994           0
      33 DNA  2    THY  O2P  ON3   -0.780000       15.9994           0
      34 DNA  2    THY  O5'  ON2   -0.570000       15.9994           0
      35 DNA  2    THY  C5'  CN8B  -0.080000       12.0110           0
      36 DNA  2    THY  H5'  HN8    0.090000        1.0080           0
      37 DNA  2    THY  H5'' HN8    0.090000        1.0080           0
      38 DNA  2    THY  C4'  CN7    0.160000       12.0110           0
      39 DNA  2    THY  H4'  HN7    0.090000        1.0080           0
      40 DNA  2    THY  O4'  ON6   -0.500000       15.9994           0
      41 DNA  2    THY  C1'  CN7B   0.160000       12.0110           0
      42 DNA  2    THY  H1'  HN7    0.090000        1.0080           0
      43 DNA  2    THY  N1   NN2B  -0.340000       14.0070           0
      44 DNA  2    THY  C6   CN3    0.170000       12.0110           0
      45 DNA  2    THY  H6   HN3    0.170000        1.0080           0
      46 DNA  2    THY  C2   CN1T   0.510000       12.0110           0
      47 DNA  2    THY  O2   ON1   -0.410000       15.9994           0
      48 DNA  2    THY  N3   NN2U  -0.460000       14.0070           0
      49 DNA  2    THY  H3   HN2    0.360000        1.0080           0
      50 DNA  2    THY  C4   CN1    0.500000       12.0110           0
      51 DNA  2    THY  O4   ON1   -0.450000       15.9994           0
      52 DNA  2    THY  C5   CN3T  -0.150000       12.0110           0
      53 DNA  2    THY  C5M  CN9   -0.110000       12.0110           0
      54 DNA  2    THY  H51  HN9    0.070000        1.0080           0
      55 DNA  2    THY  H52  HN9    0.070000        1.0080           0
      56 DNA  2    THY  H53  HN9    0.070000        1.0080           0
      57 DNA  2    THY  C2'  CN8   -0.180000       12.0110           0
      58 DNA  2    THY  H2'' HN8    0.090000        1.0080           0
      59 DNA  2    THY  H2'  HN8    0.090000        1.0080           0
      60 DNA  2    THY  C3'  CN7    0.010000       12.0110           0
      61 DNA  2    THY  H3'  HN7    0.090000        1.0080           0
      62 DNA  2    THY  O3'  ON2   -0.570000       15.9994           0
      63 DNA  3    THY  P    P2     1.500000       30.9740           0
      64 DNA  3    THY  O1P  ON3   -0.780000       15.9994           0
      65 DNA  3    THY  O2P  ON3   -0.780000       15.9994           0
      66 DNA  3    THY  O5'  ON2   -0.570000       15.9994           0
      67 DNA  3    THY  C5'  CN8B  -0.080000       12.0110           0
      68 DNA  3    THY  H5'  HN8    0.090000        1.0080           0
      69 DNA  3    THY  H5'' HN8    0.090000        1.0080           0
      70 DNA  3    THY  C4'  CN7    0.160000       12.0110           0
      71 DNA  3    THY  H4'  HN7    0.090000        1.0080           0
      72 DNA  3    THY  O4'  ON6   -0.500000       15.9994           0
      73 DNA  3    THY  C1'  CN7B   0.160000       12.0110           0
      74 DNA  3    THY  H1'  HN7    0.090000        1.0080           0
      75 DNA  3    THY  N1   NN2B  -0.340000       14.0070           0
      76 DNA  3    THY  C6   CN3    0.170000       12.0110           0
      77 DNA  3    THY  H6   HN3    0.170000        1.0080           0
      78 DNA  3    THY  C2   CN1T   0.510000       12.0110           0
      79 DNA  3    THY  O2   ON1   -0.410000       15.9994           0
      80 DNA  3    THY  N3   NN2U  -0.460000       14.0070           0
      81 DNA  3    THY  H3   HN2    0.360000        1.0080           0
      82 DNA  3    THY  C4   CN1    0.500000       12.0110           0
      83 DNA  3    THY  O4   ON1   -0.450000       15.9994           0
      84 DNA  3    THY  C5   CN3T  -0.150000       12.0110           0
      85 DNA  3    THY  C5M  CN9   -0.110000       12.0110           0
      86 DNA  3    THY  H51  HN9    0.070000        1.0080           0
      87 DNA  3    THY  H52  HN9    0.070000        1.0080           0
      88 DNA  3    THY  H53  HN9    0.070000        1.0080           0
      89 DNA  3    THY  C2'  CN8   -0.180000       12.0110           0
      90 DNA  3    THY  H2'' HN8    0.090000        1.0080           0
      91 DNA  3    THY  H2'  HN8    0.090000        1.0080           0
      92 DNA  3    THY  C3'  CN7    0.010000       12.0110           0
      93 DNA  3    THY  H3'  HN7    0.090000        1.0080           0
      94 DNA  3    THY  O3'  ON2   -0.570000       15.9994           0
      95 DNA  4    THY  P    P2     1.500000       30.9740           0
      96 DNA  4    THY  O1P  ON3   -0.780000       15.9994           0
      97 DNA  4    THY  O2P  ON3   -0.780000       15.9994           0
      98 DNA  4    THY  O5'  ON2   -0.570000       15.9994           0
      99 DNA  4    THY  C5'  CN8B  -0.080000       12.0110           0
     100 DNA  4    THY  H5'  HN8    0.090000        1.0080           0
     101 DNA  4    THY  H5'' HN8    0.090000        1.0080           0
     102 DNA  4    THY  C4'  CN7    0.160000       12.0110           0
     103 DNA  4    THY  H4'  HN7    0.090000        1.0080           0
     104 DNA  4    THY  O4'  ON6   -0.500000       15.9994           0
     105 DNA  4    THY  C1'  CN7B   0.160000       12.0110           0
     106 DNA  4    THY  H1'  HN7    0.090000        1.0080           0
     107 DNA  4    THY  N1   NN2B  -0.340000       14.0070           0
     108 DNA  4    THY  C6   CN3    0.170000       12.0110           0
     109 DNA  4    THY  H6   HN3    0.170000        1.0080           0
     110 DNA  4    THY  C2   CN1T   0.510000       12.0110           0
     111 DNA  4    THY  O2   ON1   -0.410000       15.9994           0
     112 DNA  4    THY  N3   NN2U  -0.460000       14.0070           0
     113 DNA  4    THY  H3   HN2    0.360000        1.0080           0
     114 DNA  4    THY  C4   CN1    0.500000       12.0110           0
     115 DNA  4    THY  O4   ON1   -0.450000       15.9994           0
     116 DNA  4    THY  C5   CN3T  -0.150000       12.0110           0
     117 DNA  4    THY  C5M  CN9   -0.110000       12.0110           0
     118 DNA  4    THY  H51  HN9    0.070000        1.0080           0
     119 DNA  4    THY  H52  HN9    0.070000        1.0080           0
     120 DNA  4    THY  H53  HN9    0.070000        1.0080           0
     121 DNA  4    THY  C2'  CN8   -0.180000       12.0110           0
     122 DNA  4    THY  H2'' HN8    0.090000        1.0080           0
     123 DNA  4    THY  H2'  HN8    0.090000        1.0080           0
     124 DNA  4    THY  C3'  CN7    0.010000       12.0110           0
     125 DNA  4    THY  H3'  HN7    0.090000        1.0080           0
     126 DNA  4    THY  O3'  ON2   -0.570000       15.9994           0
     127 DNA  5    THY  P    P2     1.500000       30.9740           0
     128 DNA  5    THY  O1P  ON3   -0.780000       15.9994           0
     129 DNA  5    THY  O2P  ON3   -0.780000       15.9994           0
     130 DNA  5    THY  O5'  ON2   -0.570000       15.9994           0
     131 DNA  5    THY  C5'  CN8B  -0.080000       12.0110           0
     132 DNA  5    THY  H5'  HN8    0.090000        1.0080           0
     133 DNA  5    THY  H5'' HN8    0.090000        1.0080           0
     134 DNA  5    THY  C4'  CN7    0.160000       12.0110           0
     135 DNA  5    THY  H4'  HN7    0.090000        1.0080           0
     136 DNA  5    THY  O4'  ON6   -0.500000       15.9994           0
     137 DNA  5    THY  C1'  CN7B   0.160000       12.0110           0
     138 DNA  5    THY  H1'  HN7    0.090000        1.0080           0
     139 DNA  5    THY  N1   NN2B  -0.340000       14.0070           0
     140 DNA  5    THY  C6   CN3    0.170000       12.0110           0
     141 DNA  5    THY  H6   HN3    0.170000        1.0080           0
     142 DNA  5    THY  C2   CN1T   0.510000       12.0110           0
     143 DNA  5    THY  O2   ON1   -0.410000       15.9994           0
     144 DNA  5    THY  N3   NN2U  -0.460000       14.0070           0
     145 DNA  5    THY  H3   HN2    0.360000        1.0080           0
     146 DNA  5    THY  C4   CN1    0.500000       12.0110           0
     147 DNA  5    THY  O4   ON1   -0.450000       15.9994           0
     148 DNA  5    THY  C5   CN3T  -0.150000       12.0110           0
     149 DNA  5    THY  C5M  CN9   -0.110000       12.0110           0
     150 DNA  5    THY  H51  HN9    0.070000        1.0080           0
     151 DNA  5    THY  H52  HN9    0.070000        1.0080           0
     152 DNA  5    THY  H53  HN9    0.070000        1.0080           0
     153 DNA  5    THY  C2'  CN8   -0.180000       12.0110           0
     154 DNA  5    THY  H2'' HN8    0.090000        1.0080           0
     155 DNA  5    THY  H2'  HN8    0.090000        1.0080           0
     156 DNA  5    THY  C3'  CN7    0.010000       12.0110           0
     157 DNA  5    THY  H3'  HN7    0.090000        1.0080           0
     158 DNA  5    THY  O3'  ON2   -0.570000       15.9994           0
     159 DNA  6    THY  P    P2     1.500000       30.9740           0
     160 DNA  6    THY  O1P  ON3   -0.780000       15.9994           0
     161 DNA  6    THY  O2P  ON3   -0.780000       15.9994           0
     162 DNA  6    THY  O5'  ON2   -0.570000       15.9994           0
     163 DNA  6    THY  C5'  CN8B  -0.080000       12.0110           0
     164 DNA  6    THY  H5'  HN8    0.090000        1.0080           0
     165 DNA  6    THY  H5'' HN8    0.090000        1.0080           0
     166 DNA  6    THY  C4'  CN7    0.160000       12.0110           0
     167 DNA  6    THY  H4'  HN7    0.090000        1.0080           0
     168 DNA  6    THY  O4'  ON6   -0.500000       15.9994           0
     169 DNA  6    THY  C1'  CN7B   0.160000       12.0110           0
     170 DNA  6    THY  H1'  HN7    0.090000        1.0080           0
     171 DNA  6    THY  N1   NN2B  -0.340000       14.0070           0
     172 DNA  6    THY  C6   CN3    0.170000       12.0110           0
     173 DNA  6    THY  H6   HN3    0.170000        1.0080           0
     174 DNA  6    THY  C2   CN1T   0.510000       12.0110           0
     175 DNA  6    THY  O2   ON1   -0.410000       15.9994           0
     176 DNA  6    THY  N3   NN2U  -0.460000       14.0070           0
     177 DNA  6    THY  H3   HN2    0.360000        1.0080           0
     178 DNA  6    THY  C4   CN1    0.500000       12.0110           0
     179 DNA  6    THY  O4   ON1   -0.450000       15.9994           0
     180 DNA  6    THY  C5   CN3T  -0.150000       12.0110           0
     181 DNA  6    THY  C5M  CN9   -0.110000       12.0110           0
     182 DNA  6    THY  H51  HN9    0.070000        1.0080           0
     183 DNA  6    THY  H52  HN9    0.070000        1.0080           0
     184 DNA  6    THY  H53  HN9    0.070000        1.0080           0
     185 DNA  6    THY  C2'  CN8   -0.180000       12.0110           0
     186 DNA  6    THY  H2'' HN8    0.090000        1.0080           0
     187 DNA  6    THY  H2'  HN8    0.090000        1.0080           0
     188 DNA  6    THY  C3'  CN7    0.010000       12.0110           0
     189 DNA  6    THY  H3'  HN7    0.090000        1.0080           0
     190 DNA  6    THY  O3'  ON2   -0.570000       15.9994           0
     191 DNA  7    THY  P    P2     1.500000       30.9740           0
     192 DNA  7    THY  O1P  ON3   -0.780000       15.9994           0
     193 DNA  7    THY  O2P  ON3   -0.780000       15.9994           0
     194 DNA  7    THY  O5'  ON2   -0.570000       15.9994           0
     195 DNA  7    THY  C5'  CN8B  -0.080000       12.0110           0
     196 DNA  7    THY  H5'  HN8    0.090000        1.0080           0
     197 DNA  7    THY  H5'' HN8    0.090000        1.0080           0
     198 DNA  7    THY  C4'  CN7    0.160000       12.0110           0
     199 DNA  7    THY  H4'  HN7    0.090000        1.0080           0
     200 DNA  7    THY  O4'  ON6   -0.500000       15.9994           0
     201 DNA  7    THY  C1'  CN7B   0.160000       12.0110           0
     202 DNA  7    THY  H1'  HN7    0.090000        1.0080           0
     203 DNA  7    THY  N1   NN2B  -0.340000       14.0070           0
     204 DNA  7    THY  C6   CN3    0.170000       12.0110           0
     205 DNA  7    THY  H6   HN3    0.170000        1.0080           0
     206 DNA  7    THY  C2   CN1T   0.510000       12.0110           0
     207 DNA  7    THY  O2   ON1   -0.410000       15.9994           0
     208 DNA  7    THY  N3   NN2U  -0.460000       14.0070           0
     209 DNA  7    THY  H3   HN2    0.360000        1.0080           0
     210 DNA  7    THY  C4   CN1    0.500000       12.0110           0
     211 DNA  7    THY  O4   ON1   -0.450000       15.9994           0
     212 DNA  7    THY  C5   CN3T  -0.150000       12.0110           0
     213 DNA  7    THY  C5M  CN9   -0.110000       12.0110           0
     214 DNA  7    THY  H51  HN9    0.070000        1.0080           0
     215 DNA  7    THY  H52  HN9    0.070000        1.0080           0
     216 DNA  7    THY  H53  HN9    0.070000        1.0080           0
     217 DNA  7    THY  C2'  CN8   -0.180000       12.0110           0
     218 DNA  7    THY  H2'' HN8    0.090000        1.0080           0
     219 DNA  7    THY  H2'  HN8    0.090000        1.0080           0
     220 DNA  7    THY  C3'  CN7    0.010000       12.0110           0
     221 DNA  7    THY  H3'  HN7    0.090000        1.0080           0
     222 DNA  7    THY  O3'  ON2   -0.570000       15.9994           0
     223 DNA  8    THY  P    P2     1.500000       30.9740           0
     224 DNA  8    THY  O1P  ON3   -0.780000       15.9994           0
     225 DNA  8    THY  O2P  ON3   -0.780000       15.9994           0
     226 DNA  8    THY  O5'  ON2   -0.570000       15.9994           0
     227 DNA  8    THY  C5'  CN8B  -0.080000       12.0110           0
     228 DNA  8    THY  H5'  HN8    0.090000        1.0080           0
     229 DNA  8    THY  H5'' HN8    0.090000        1.0080           0
     230 DNA  8    THY  C4'  CN7    0.160000       12.0110           0
     231 DNA  8    THY  H4'  HN7    0.090000        1.0080           0
     232 DNA  8    THY  O4'  ON6   -0.500000       15.9994           0
     233 DNA  8    THY  C1'  CN7B   0.160000       12.0110           0
     234 DNA  8    THY  H1'  HN7    0.090000        1.0080           0
     235 DNA  8    THY  N1   NN2B  -0.340000       14.0070           0
     236 DNA  8    THY  C6   CN3    0.170000       12.0110           0
     237 DNA  8    THY  H6   HN3    0.170000        1.0080           0
     238 DNA  8    THY  C2   CN1T   0.510000       12.0110           0
     239 DNA  8    THY  O2   ON1   -0.410000       15.9994           0
     240 DNA  8    THY  N3   NN2U  -0.460000       14.0070           0
     241 DNA  8    THY  H3   HN2    0.360000        1.0080           0
     242 DNA  8    THY  C4   CN1    0.500000       12.0110           0
     243 DNA  8    THY  O4   ON1   -0.450000       15.9994           0
     244 DNA  8    THY  C5   CN3T  -0.150000       12.0110           0
     245 DNA  8    THY  C5M  CN9   -0.110000       12.0110           0
     246 DNA  8    THY  H51  HN9    0.070000        1.0080           0
     247 DNA  8    THY  H52  HN9    0.070000        1.0080           0
     248 DNA  8    THY  H53  HN9    0.070000        1.0080           0
     249 DNA  8    THY  C2'  CN8   -0.180000       12.0110           0
     250 DNA  8    THY  H2'' HN8    0.090000        1.0080           0
     251 DNA  8    THY  H2'  HN8    0.090000        1.0080           0
     252 DNA  8    THY  C3'  CN7    0.010000       12.0110           0
     253 DNA  8    THY  H3'  HN7    0.090000        1.0080           0
     254 DNA  8    THY  O3'  ON2   -0.570000       15.9994           0
     255 DNA  9    THY  P    P2     1.500000       30.9740           0
     256 DNA  9    THY  O1P  ON3   -0.780000       15.9994           0
     257 DNA  9    THY  O2P  ON3   -0.780000       15.9994           0
     258 DNA  9    THY  O5'  ON2   -0.570000       15.9994           0
     259 DNA  9    THY  C5'  CN8B  -0.080000       12.0110           0
     260 DNA  9    THY  H5'  HN8    0.090000        1.0080           0
     261 DNA  9    THY  H5'' HN8    0.090000        1.0080           0
     262 DNA  9    THY  C4'  CN7    0.160000       12.0110           0
     263 DNA  9    THY  H4'  HN7    0.090000        1.0080           0
     264 DNA  9    THY  O4'  ON6   -0.500000       15.9994           0
     265 DNA  9    THY  C1'  CN7B   0.160000       12.0110           0
     266 DNA  9    THY  H1'  HN7    0.090000        1.0080           0
     267 DNA  9    THY  N1   NN2B  -0.340000       14.0070           0
     268 DNA  9    THY  C6   CN3    0.170000       12.0110           0
     269 DNA  9    THY  H6   HN3    0.170000        1.0080           0
     270 DNA  9    THY  C2   CN1T   0.510000       12.0110           0
     271 DNA  9    THY  O2   ON1   -0.410000       15.9994           0
     272 DNA  9    THY  N3   NN2U  -0.460000       14.0070           0
     273 DNA  9    THY  H3   HN2    0.360000        1.0080           0
     274 DNA  9    THY  C4   CN1    0.500000       12.0110           0
     275 DNA  9    THY  O4   ON1   -0.450000       15.9994           0
     276 DNA  9    THY  C5   CN3T  -0.150000       12.0110           0
     277 DNA  9    THY  C5M  CN9   -0.110000       12.0110           0
     278 DNA  9    THY  H51  HN9    0.070000        1.0080           0
     279 DNA  9    THY  H52  HN9    0.070000        1.0080           0
     280 DNA  9    THY  H53  HN9    0.070000        1.0080           0
     281 DNA  9    THY  C2'  CN8   -0.180000       12.0110           0
     282 DNA  9    THY  H2'' HN8    0.090000        1.0080           0
     283 DNA  9    THY  H2'  HN8    0.090000        1.0080           0
     284 DNA  9    THY  C3'  CN7    0.010000       12.0110           0
     285 DNA  9    THY  H3'  HN7    0.090000        1.0080           0
     286 DNA  9    THY  O3'  ON2   -0.570000       15.9994           0
     287 DNA  10   THY  P    P2     1.500000       30.9740           0
     288 DNA  10   THY  O1P  ON3   -0.780000       15.9994           0
     289 DNA  10   THY  O2P  ON3   -0.780000       15.9994           0
     290 DNA  10   THY  O5'  ON2   -0.570000       15.9994           0
     291 DNA  10   THY  C5'  CN8B  -0.080000       12.0110           0
     292 DNA  10   THY  H5'  HN8    0.090000        1.0080           0
     293 DNA  10   THY  H5'' HN8    0.090000        1.0080           0
     294 DNA  10   THY  C4'  CN7    0.160000       12.0110           0
     295 DNA  10   THY  H4'  HN7    0.090000        1.0080           0
     296 DNA  10   THY  O4'  ON6   -0.500000       15.9994           0
     297 DNA  10   THY  C1'  CN7B   0.160000       12.0110           0
     298 DNA  10   THY  H1'  HN7    0.090000        1.0080           0
     299 DNA  10   THY  N1   NN2B  -0.340000       14.0070           0
     300 DNA  10   THY  C6   CN3    0.170000       12.0110           0
     301 DNA  10   THY  H6   HN3    0.170000        1.0080           0
     302 DNA  10   THY  C2   CN1T   0.510000       12.0110           0
     303 DNA  10   THY  O2   ON1   -0.410000       15.9994           0
     304 DNA  10   THY  N3   NN2U  -0.460000       14.0070           0
     305 DNA  10   THY  H3   HN2    0.360000        1.0080           0
     306 DNA  10   THY  C4   CN1    0.500000       12.0110           0
     307 DNA  10   THY  O4   ON1   -0.450000       15.9994           0
     308 DNA  10   THY  C5   CN3T  -0.150000       12.0110           0
     309 DNA  10   THY  C5M  CN9   -0.110000       12.0110           0
     310 DNA  10   THY  H51  HN9    0.070000        1.0080           0
     311 DNA  10   THY  H52  HN9    0.070000        1.0080           0
     312 DNA  10   THY  H53  HN9    0.070000        1.0080           0
     313 DNA  10   THY  C2'  CN8   -0.180000       12.0110           0
     314 DNA  10   THY  H2'' HN8    0.090000        1.0080           0
     315 DNA  10   THY  H2'  HN8    0.090000        1.0080           0
     316 DNA  10   THY  C3'  CN7    0.010000       12.0110           0
     317 DNA  10   THY  H3'  HN7    0.090000        1.0080           0
     318 DNA  10   THY  O3'  ON2   -0.570000       15.9994           0
     319 DNA  11   THY  P    P2     1.500000       30.9740           0
     320 DNA  11   THY  O1P  ON3   -0.780000       15.9994           0
     321 DNA  11   THY  O2P  ON3   -0.780000       15.9994           0
     322 DNA  11   THY  O5'  ON2   -0.570000       15.9994           0
     323 DNA  11   THY  C5'  CN8B  -0.080000       12.0110           0
     324 DNA  11   THY  H5'  HN8    0.090000        1.0080           0
     325 DNA  11   THY  H5'' HN8    0.090000        1.0080           0
     326 DNA  11   THY  C4'  CN7    0.160000       12.0110           0
     327 DNA  11   THY  H4'  HN7    0.090000        1.0080           0
     328 DNA  11   THY  O4'  ON6   -0.500000       15.9994           0
     329 DNA  11   THY  C1'  CN7B   0.160000       12.0110           0
     330 DNA  11   THY  H1'  HN7    0.090000        1.0080           0
     331 DNA  11   THY  N1   NN2B  -0.340000       14.0070           0
     332 DNA  11   THY  C6   CN3    0.170000       12.0110           0
     333 DNA  11   THY  H6   HN3    0.170000        1.0080           0
     334 DNA  11   THY  C2   CN1T   0.510000       12.0110           0
     335 DNA  11   THY  O2   ON1   -0.410000       15.9994           0
     336 DNA  11   THY  N3   NN2U  -0.460000       14.0070           0
     337 DNA  11   THY  H3   HN2    0.360000        1.0080           0
     338 DNA  11   THY  C4   CN1    0.500000       12.0110           0
     339 DNA  11   THY  O4   ON1   -0.450000       15.9994           0
     340 DNA  11   THY  C5   CN3T  -0.150000       12.0110           0
     341 DNA  11   THY  C5M  CN9   -0.110000       12.0110           0
     342 DNA  11   THY  H51  HN9    0.070000        1.0080           0
     343 DNA  11   THY  H52  HN9    0.070000        1.0080           0
     344 DNA  11   THY  H53  HN9    0.070000        1.0080           0
     345 DNA  11   THY  C2'  CN8   -0.180000       12.0110           0
     346 DNA  11   THY  H2'' HN8    0.090000        1.0080           0
     347 DNA  11   THY  H2'  HN8    0.090000        1.0080           0
     348 DNA  11   THY  C3'  CN7    0.010000       12.0110           0
     349 DNA  11   THY  H3'  HN7    0.090000        1.0080           0
     350 DNA  11   THY  O3'  ON2   -0.570000       15.9994           0
     351 DNA  12   THY  P    P2     1.500000       30.9740           0
     352 DNA  12   THY  O1P  ON3   -0.780000       15.9994           0
     353 DNA  12   THY  O2P  ON3   -0.780000       15.9994           0
     354 DNA  12   THY  O5'  ON2   -0.570000       15.9994           0
     355 DNA  12   THY  C5'  CN8B  -0.080000       12.0110           0
     356 DNA  12   THY  H5'  HN8    0.090000        1.0080           0
     357 DNA  12   THY  H5'' HN8    0.090000        1.0080           0
     358 DNA  12   THY  C4'  CN7    0.160000       12.0110           0
     359 DNA  12   THY  H4'  HN7    0.090000        1.0080           0
     360 DNA  12   THY  O4'  ON6   -0.500000       15.9994           0
     361 DNA  12   THY  C1'  CN7B   0.160000       12.0110           0
     362 DNA  12   THY  H1'  HN7    0.090000        1.0080           0
     363 DNA  12   THY  N1   NN2B  -0.340000       14.0070           0
     364 DNA  12   THY  C6   CN3    0.170000       12.0110           0
     365 DNA  12   THY  H6   HN3    0.170000        1.0080           0
     366 DNA  12   THY  C2   CN1T   0.510000       12.0110           0
     367 DNA  12   THY  O2   ON1   -0.410000       15.9994           0
     368 DNA  12   THY  N3   NN2U  -0.460000       14.0070           0
     369 DNA  12   THY  H3   HN2    0.360000        1.0080           0
     370 DNA  12   THY  C4   CN1    0.500000       12.0110           0
     371 DNA  12   THY  O4   ON1   -0.450000       15.9994           0
     372 DNA  12   THY  C5   CN3T  -0.150000       12.0110           0
     373 DNA  12   THY  C5M  CN9   -0.110000       12.0110           0
     374 DNA  12   THY  H51  HN9    0.070000        1.0080           0
     375 DNA  12   THY  H52  HN9    0.070000        1.0080           0
     376 DNA  12   THY  H53  HN9    0.070000        1.0080           0
     377 DNA  12   THY  C2'  CN8   -0.180000       12.0110           0
     378 DNA  12   THY  H2'' HN8    0.090000        1.0080           0
     379 DNA  12   THY  H2'  HN8    0.090000        1.0080           0
     380 DNA  12   THY  C3'  CN7    0.010000       12.0110           0
     381 DNA  12   THY  H3'  HN7    0.090000        1.0080           0
     382 DNA  12   THY  O3'  ON2   -0.570000       15.9994           0
     383 DNA  13   THY  P    P2     1.500000       30.9740           0
     384 DNA  13   THY  O1P  ON3   -0.780000       15.9994           0
     385 DNA  13   THY  O2P  ON3   -0.780000       15.9994           0
     386 DNA  13   THY  O5'  ON2   -0.570000       15.9994           0
     387 DNA  13   THY  C5'  CN8B  -0.080000       12.0110           0
     388 DNA  13   THY  H5'  HN8    0.090000        1.0080           0
     389 DNA  13   THY  H5'' HN8    0.090000        1.0080           0
     390 DNA  13   THY  C4'  CN7    0.160000       12.0110           0
     391 DNA  13   THY  H4'  HN7    0.090000        1.0080           0
     392 DNA  13   THY  O4'  ON6   -0.500000       15.9994           0
     393 DNA  13   THY  C1'  CN7B   0.160000       12.0110           0
     394 DNA  13   THY  H1'  HN7    0.090000        1.0080           0
     395 DNA  13   THY  N1   NN2B  -0.340000       14.0070           0
     396 DNA  13   THY  C6   CN3    0.170000       12.0110           0
     397 DNA  13   THY  H6   HN3    0.170000        1.0080           0
     398 DNA  13   THY  C2   CN1T   0.510000       12.0110           0
     399 DNA  13   THY  O2   ON1   -0.410000       15.9994           0
     400 DNA  13   THY  N3   NN2U  -0.460000       14.0070           0
     401 DNA  13   THY  H3   HN2    0.360000        1.0080           0
     402 DNA  13   THY  C4   CN1    0.500000       12.0110           0
     403 DNA  13   THY  O4   ON1   -0.450000       15.9994           0
     404 DNA  13   THY  C5   CN3T  -0.150000       12.0110           0
     405 DNA  13   THY  C5M  CN9   -0.110000       12.0110           0
     406 DNA  13   THY  H51  HN9    0.070000        1.0080           0
     407 DNA  13   THY  H52  HN9    0.070000        1.0080           0
     408 DNA  13   THY  H53  HN9    0.070000        1.0080           0
     409 DNA  13   THY  C2'  CN8   -0.180000       12.0110           0
     410 DNA  13   THY  H2'' HN8    0.090000        1.0080           0
     411 DNA  13   THY  H2'  HN8    0.090000        1.0080           0
     412 DNA  13   THY  C3'  CN7    0.010000       12.0110           0
     413 DNA  13   THY  H3'  HN7    0.090000        1.0080           0
     414 DNA  13   THY  O3'  ON2   -0.570000       15.9994           0
     415 DNA  14   THY  P    P2     1.500000       30.9740           0
     416 DNA  14   THY  O1P  ON3   -0.780000       15.9994           0
     417 DNA  14   THY  O2P  ON3   -0.780000       15.9994           0
     418 DNA  14   THY  O5'  ON2   -0.570000       15.9994           0
     419 DNA  14   THY  C5'  CN8B  -0.080000       12.0110           0
     420 DNA  14   THY  H5'  HN8    0.090000        1.0080           0
     421 DNA  14   THY  H5'' HN8    0.090000        1.0080           0
     422 DNA  14   THY  C4'  CN7    0.160000       12.0110           0
     423 DNA  14   THY  H4'  HN7    0.090000        1.0080           0
     424 DNA  14   THY  O4'  ON6   -0.500000       15.9994           0
     425 DNA  14   THY  C1'  CN7B   0.160000       12.0110           0
     426 DNA  14   THY  H1'  HN7    0.090000        1.0080           0
     427 DNA  14   THY  N1   NN2B  -0.340000       14.0070           0
     428 DNA  14   THY  C6   CN3    0.170000       12.0110           0
     429 DNA  14   THY  H6   HN3    0.170000        1.0080           0
     430 DNA  14   THY  C2   CN1T   0.510000       12.0110           0
     431 DNA  14   THY  O2   ON1   -0.410000       15.9994           0
     432 DNA  14   THY  N3   NN2U  -0.460000       14.0070           0
     433 DNA  14   THY  H3   HN2    0.360000        1.0080           0
     434 DNA  14   THY  C4   CN1    0.500000       12.0110           0
     435 DNA  14   THY  O4   ON1   -0.450000       15.9994           0
     436 DNA  14   THY  C5   CN3T  -0.150000       12.0110           0
     437 DNA  14   THY  C5M  CN9   -0.110000       12.0110           0
     438 DNA  14   THY  H51  HN9    0.070000        1.0080           0
     439 DNA  14   THY  H52  HN9    0.070000        1.0080           0
     440 DNA  14   THY  H53  HN9    0.070000        1.0080           0
     441 DNA  14   THY  C2'  CN8   -0.180000       12.0110           0
     442 DNA  14   THY  H2'' HN8    0.090000        1.0080           0
     443 DNA  14   THY  H2'  HN8    0.090000        1.0080           0
     444 DNA  14   THY  C3'  CN7    0.010000       12.0110           0
     445 DNA  14   THY  H3'  HN7    0.090000        1.0080           0
     446 DNA  14   THY  O3'  ON2   -0.570000       15.9994           0
     447 DNA  15   THY  P    P2     1.500000       30.9740           0
     448 DNA  15   THY  O1P  ON3   -0.780000       15.9994           0
     449 DNA  15   THY  O2P  ON3   -0.780000       15.9994           0
     450 DNA  15   THY  O5'  ON2   -0.570000       15.9994           0
     451 DNA  15   THY  C5'  CN8B  -0.080000       12.0110           0
     452 DNA  15   THY  H5'  HN8    0.090000        1.0080           0
     453 DNA  15   THY  H5'' HN8    0.090000        1.0080           0
     454 DNA  15   THY  C4'  CN7    0.160000       12.0110           0
     455 DNA  15   THY  H4'  HN7    0.090000        1.0080           0
     456 DNA  15   THY  O4'  ON6   -0.500000       15.9994           0
     457 DNA  15   THY  C1'  CN7B   0.160000       12.0110           0
     458 DNA  15   THY  H1'  HN7    0.090000        1.0080           0
     459 DNA  15   THY  N1   NN2B  -0.340000       14.0070           0
     460 DNA  15   THY  C6   CN3    0.170000       12.0110           0
     461 DNA  15   THY  H6   HN3    0.170000        1.0080           0
     462 DNA  15   THY  C2   CN1T   0.510000       12.0110           0
     463 DNA  15   THY  O2   ON1   -0.410000       15.9994           0
     464 DNA  15   THY  N3   NN2U  -0.460000       14.0070           0
     465 DNA  15   THY  H3   HN2    0.360000        1.0080           0
     466 DNA  15   THY  C4   CN1    0.500000       12.0110           0
     467 DNA  15   THY  O4   ON1   -0.450000       15.9994           0
     468 DNA  15   THY  C5   CN3T  -0.150000       12.0110           0
     469 DNA  15   THY  C5M  CN9   -0.110000       12.0110           0
     470 DNA  15   THY  H51  HN9    0.070000        1.0080           0
     471 DNA  15   THY  H52  HN9    0.070000        1.0080           0
     472 DNA  15   THY  H53  HN9    0.070000        1.0080           0
     473 DNA  15   THY  C2'  CN8   -0.180000       12.0110           0
     474 DNA  15   THY  H2'' HN8    0.090000        1.0080           0
     475 DNA  15   THY  H2'  HN8    0.090000        1.0080           0
     476 DNA  15   THY  C3'  CN7    0.010000       12.0110           0
     477 DNA  15   THY  H3'  HN7    0.090000        1.0080           0
     478 DNA  15   THY  O3'  ON2   -0.570000       15.9994           0
     479 DNA  16   THY  P    P2     1.500000       30.9740           0
     480 DNA  16   THY  O1P  ON3   -0.780000       15.9994           0
     481 DNA  16   THY  O2P  ON3   -0.780000       15.9994           0
     482 DNA  16   THY  O5'  ON2   -0.570000       15.9994           0
     483 DNA  16   THY  C5'  CN8B  -0.080000       12.0110           0
     484 DNA  16   THY  H5'  HN8    0.090000        1.0080           0
     485 DNA  16   THY  H5'' HN8    0.090000        1.0080           0
     486 DNA  16   THY  C4'  CN7    0.160000       12.0110           0
     487 DNA  16   THY  H4'  HN7    0.090000        1.0080           0
     488 DNA  16   THY  O4'  ON6   -0.500000       15.9994           0
     489 DNA  16   THY  C1'  CN7B   0.160000       12.0110           0
     490 DNA  16   THY  H1'  HN7    0.090000        1.0080           0
     491 DNA  16   THY  N1   NN2B  -0.340000       14.0070           0
     492 DNA  16   THY  C6   CN3    0.170000       12.0110           0
     493 DNA  16   THY  H6   HN3    0.170000        1.0080           0
     494 DNA  16   THY  C2   CN1T   0.510000       12.0110           0
     495 DNA  16   THY  O2   ON1   -0.410000       15.9994           0
     496 DNA  16   THY  N3   NN2U  -0.460000       14.0070           0
     497 DNA  16   THY  H3   HN2    0.360000        1.0080           0
     498 DNA  16   THY  C4   CN1    0.500000       12.0110           0
     499 DNA  16   THY  O4   ON1   -0.450000       15.9994           0
     500 DNA  16   THY  C5   CN3T  -0.150000       12.0110           0
     501 DNA  16   THY  C5M  CN9   -0.110000       12.0110           0
     502 DNA  16   THY  H51  HN9    0.070000        1.0080           0
     503 DNA  16   THY  H52  HN9    0.070000        1.0080           0
     504 DNA  16   THY  H53  HN9    0.070000        1.0080           0
     505 DNA  16   THY  C2'  CN8   -0.180000       12.0110           0
     506 DNA  16   THY  H2'' HN8    0.090000        1.0080           0
     507 DNA  16   THY  H2'  HN8    0.090000        1.0080           0
     508 DNA  16   THY  C3'  CN7    0.010000       12.0110           0
     509 DNA  16   THY  H3'  HN7    0.090000        1.0080           0
     510 DNA  16   THY  O3'  ON2   -0.570000       15.9994           0
     511 DNA  17   THY  P    P2     1.500000       30.9740           0
     512 DNA  17   THY  O1P  ON3   -0.780000       15.9994           0
     513 DNA  17   THY  O2P  ON3   -0.780000       15.9994           0
     514 DNA  17   THY  O5'  ON2   -0.570000       15.9994           0
     515 DNA  17   THY  C5'  CN8B  -0.080000       12.0110           0
     516 DNA  17   THY  H5'  HN8    0.090000        1.0080           0
     517 DNA  17   THY  H5'' HN8    0.090000        1.0080           0
     518 DNA  17   THY  C4'  CN7    0.160000       12.0110           0
     519 DNA  17   THY  H4'  HN7    0.090000        1.0080           0
     520 DNA  17   THY  O4'  ON6   -0.500000       15.9994           0
     521 DNA  17   THY  C1'  CN7B   0.160000       12.0110           0
     522 DNA  17   THY  H1'  HN7    0.090000        1.0080           0
     523 DNA  17   THY  N1   NN2B  -0.340000       14.0070           0
     524 DNA  17   THY  C6   CN3    0.170000       12.0110           0
     525 DNA  17   THY  H6   HN3    0.170000        1.0080           0
     526 DNA  17   THY  C2   CN1T   0.510000       12.0110           0
     527 DNA  17   THY  O2   ON1   -0.410000       15.9994           0
     528 DNA  17   THY  N3   NN2U  -0.460000       14.0070           0
     529 DNA  17   THY  H3   HN2    0.360000        1.0080           0
     530 DNA  17   THY  C4   CN1    0.500000       12.0110           0
     531 DNA  17   THY  O4   ON1   -0.450000       15.9994           0
     532 DNA  17   THY  C5   CN3T  -0.150000       12.0110           0
     533 DNA  17   THY  C5M  CN9   -0.110000       12.0110           0
     534 DNA  17   THY  H51  HN9    0.070000        1.0080           0
     535 DNA  17   THY  H52  HN9    0.070000        1.0080           0
     536 DNA  17   THY  H53  HN9    0.070000        1.0080           0
     537 DNA  17   THY  C2'  CN8   -0.180000       12.0110           0
     538 DNA  17   THY  H2'' HN8    0.090000        1.0080           0
     539 DNA  17   THY  H2'  HN8    0.090000        1.0080           0
     540 DNA  17   THY  C3'  CN7    0.010000       12.0110           0
     541 DNA  17   THY  H3'  HN7    0.090000        1.0080           0
     542 DNA  17   THY  O3'  ON2   -0.570000       15.9994           0
     543 DNA  18   THY  P    P2     1.500000       30.9740           0
     544 DNA  18   THY  O1P  ON3   -0.780000       15.9994           0
     545 DNA  18   THY  O2P  ON3   -0.780000       15.9994           0
     546 DNA  18   THY  O5'  ON2   -0.570000       15.9994           0
     547 DNA  18   THY  C5'  CN8B  -0.080000       12.0110           0
     548 DNA  18   THY  H5'  HN8    0.090000        1.0080           0
     549 DNA  18   THY  H5'' HN8    0.090000        1.0080           0
     550 DNA  18   THY  C4'  CN7    0.160000       12.0110           0
     551 DNA  18   THY  H4'  HN7    0.090000        1.0080           0
     552 DNA  18   THY  O4'  ON6   -0.500000       15.9994           0
     553 DNA  18   THY  C1'  CN7B   0.160000       12.0110           0
     554 DNA  18   THY  H1'  HN7    0.090000        1.0080           0
     555 DNA  18   THY  N1   NN2B  -0.340000       14.0070           0
     556 DNA  18   THY  C6   CN3    0.170000       12.0110           0
     557 DNA  18   THY  H6   HN3    0.170000        1.0080           0
     558 DNA  18   THY  C2   CN1T   0.510000       12.0110           0
     559 DNA  18   THY  O2   ON1   -0.410000       15.9994           0
     560 DNA  18   THY  N3   NN2U  -0.460000       14.0070           0
     561 DNA  18   THY  H3   HN2    0.360000        1.0080           0
     562 DNA  18   THY  C4   CN1    0.500000       12.0110           0
     563 DNA  18   THY  O4   ON1   -0.450000       15.9994           0
     564 DNA  18   THY  C5   CN3T  -0.150000       12.0110           0
     565 DNA  18   THY  C5M  CN9   -0.110000       12.0110           0
     566 DNA  18   THY  H51  HN9    0.070000        1.0080           0
     567 DNA  18   THY  H52  HN9    0.070000        1.0080           0
     568 DNA  18   THY  H53  HN9    0.070000        1.0080           0
     569 DNA  18   THY  C2'  CN8   -0.180000       12.0110           0
     570 DNA  18   THY  H2'' HN8    0.090000        1.0080           0
     571 DNA  18   THY  H2'  HN8    0.090000        1.0080           0
     572 DNA  18   THY  C3'  CN7    0.010000       12.0110           0
     573 DNA  18   THY  H3'  HN7    0.090000        1.0080           0
     574 DNA  18   THY  O3'  ON2   -0.570000       15.9994           0
     575 DNA  19   THY  P    P2     1.500000       30.9740           0
     576 DNA  19   THY  O1P  ON3   -0.780000       15.9994           0
     577 DNA  19   THY  O2P  ON3   -0.780000       15.9994           0
     578 DNA  19   THY  O5'  ON2   -0.570000       15.9994           0
     579 DNA  19   THY  C5'  CN8B  -0.080000       12.0110           0
     580 DNA  19   THY  H5'  HN8    0.090000        1.0080           0
     581 DNA  19   THY  H5'' HN8    0.090000        1.0080           0
     582 DNA  19   THY  C4'  CN7    0.160000       12.0110           0
     583 DNA  19   THY  H4'  HN7    0.090000        1.0080           0
     584 DNA  19   THY  O4'  ON6   -0.500000       15.9994           0
     585 DNA  19   THY  C1'  CN7B   0.160000       12.0110           0
     586 DNA  19   THY  H1'  HN7    0.090000        1.0080           0
     587 DNA  19   THY  N1   NN2B  -0.340000       14.0070           0
     588 DNA  19   THY  C6   CN3    0.170000       12.0110           0
     589 DNA  19   THY  H6   HN3    0.170000        1.0080           0
     590 DNA  19   THY  C2   CN1T   0.510000       12.0110           0
     591 DNA  19   THY  O2   ON1   -0.410000       15.9994           0
     592 DNA  19   THY  N3   NN2U  -0.460000       14.0070           0
     593 DNA  19   THY  H3   HN2    0.360000        1.0080           0
     594 DNA  19   THY  C4   CN1    0.500000       12.0110           0
     595 DNA  19   THY  O4   ON1   -0.450000       15.9994           0
     596 DNA  19   THY  C5   CN3T  -0.150000       12.0110           0
     597 DNA  19   THY  C5M  CN9   -0.110000       12.0110           0
     598 DNA  19   THY  H51  HN9    0.070000        1.0080           0
     599 DNA  19   THY  H52  HN9    0.070000        1.0080           0
     600 DNA  19   THY  H53  HN9    0.070000        1.0080           0
     601 DNA  19   THY  C2'  CN8   -0.180000       12.0110           0
     602 DNA  19   THY  H2'' HN8    0.090000        1.0080           0
     603 DNA  19   THY  H2'  HN8    0.090000        1.0080           0
     604 DNA  19   THY  C3'  CN7    0.010000       12.0110           0
     605 DNA  19   THY  H3'  HN7    0.090000        1.0080           0
     606 DNA  19   THY  O3'  ON2   -0.570000       15.9994           0
     607 DNA  20   THY  P    P2     1.500000       30.9740           0
     608 DNA  20   THY  O1P  ON3   -0.780000       15.9994           0
     609 DNA  20   THY  O2P  ON3   -0.780000       15.9994           0
     610 DNA  20   THY  O5'  ON2   -0.570000       15.9994           0
     611 DNA  20   THY  C5'  CN8B  -0.080000       12.0110           0
     612 DNA  20   THY  H5'  HN8    0.090000        1.0080           0
     613 DNA  20   THY  H5'' HN8    0.090000        1.0080           0
     614 DNA  20   THY  C4'  CN7    0.160000       12.0110           0
     615 DNA  20   THY  H4'  HN7    0.090000        1.0080           0
     616 DNA  20   THY  O4'  ON6   -0.500000       15.9994           0
     617 DNA  20   THY  C1'  CN7B   0.160000       12.0110           0
     618 DNA  20   THY  H1'  HN7    0.090000        1.0080           0
     619 DNA  20   THY  N1   NN2B  -0.340000       14.0070           0
     620 DNA  20   THY  C6   CN3    0.170000       12.0110           0
     621 DNA  20   THY  H6   HN3    0.170000        1.0080           0
     622 DNA  20   THY  C2   CN1T   0.510000       12.0110           0
     623 DNA  20   THY  O2   ON1   -0.410000       15.9994           0
     624 DNA  20   THY  N3   NN2U  -0.460000       14.0070           0
     625 DNA  20   THY  H3   HN2    0.360000        1.0080           0
     626 DNA  20   THY  C4   CN1    0.500000       12.0110           0
     627 DNA  20   THY  O4   ON1   -0.450000       15.9994           0
     628 DNA  20   THY  C5   CN3T  -0.150000       12.0110           0
     629 DNA  20   THY  C5M  CN9   -0.110000       12.0110           0
     630 DNA  20   THY  H51  HN9    0.070000        1.0080           0
     631 DNA  20   THY  H52  HN9    0.070000        1.0080           0
     632 DNA  20   THY  H53  HN9    0.070000        1.0080           0
     633 DNA  20   THY  C2'  CN8   -0.180000       12.0110           0
     634 DNA  20   THY  H2'' HN8    0.090000        1.0080           0
     635 DNA  20   THY  H2'  HN8    0.090000        1.0080           0
     636 DNA  20   THY  C3'  CN7    0.010000       12.0110           0
     637 DNA  20   THY  H3'  HN7    0.090000        1.0080           0
     638 DNA  20   THY  O3'  ON2   -0.570000       15.9994           0
     639 DNA  21   THY  P    P2     1.500000       30.9740           0
     640 DNA  21   THY  O1P  ON3   -0.780000       15.9994           0
     641 DNA  21   THY  O2P  ON3   -0.780000       15.9994           0
     642 DNA  21   THY  O5'  ON2   -0.570000       15.9994           0
     643 DNA  21   THY  C5'  CN8B  -0.080000       12.0110           0
     644 DNA  21   THY  H5'  HN8    0.090000        1.0080           0
     645 DNA  21   THY  H5'' HN8    0.090000        1.0080           0
     646 DNA  21   THY  C4'  CN7    0.160000       12.0110           0
     647 DNA  21   THY  H4'  HN7    0.090000        1.0080           0
     648 DNA  21   THY  O4'  ON6   -0.500000       15.9994           0
     649 DNA  21   THY  C1'  CN7B   0.160000       12.0110           0
     650 DNA  21   THY  H1'  HN7    0.090000        1.0080           0
     651 DNA  21   THY  N1   NN2B  -0.340000       14.0070           0
     652 DNA  21   THY  C6   CN3    0.170000       12.0110           0
     653 DNA  21   THY  H6   HN3    0.170000        1.0080           0
     654 DNA  21   THY  C2   CN1T   0.510000       12.0110           0
     655 DNA  21   THY  O2   ON1   -0.410000       15.9994           0
     656 DNA  21   THY  N3   NN2U  -0.460000       14.0070           0
     657 DNA  21   THY  H3   HN2    0.360000        1.0080           0
     658 DNA  21   THY  C4   CN1    0.500000       12.0110           0
     659 DNA  21   THY  O4   ON1   -0.450000       15.9994           0
     660 DNA  21   THY  C5   CN3T  -0.150000       12.0110           0
     661 DNA  21   THY  C5M  CN9   -0.110000       12.0110           0
     662 DNA  21   THY  H51  HN9    0.070000        1.0080           0
     663 DNA  21   THY  H52  HN9    0.070000        1.0080           0
     664 DNA  21   THY  H53  HN9    0.070000        1.0080           0
     665 DNA  21   THY  C2'  CN8   -0.180000       12.0110           0
     666 DNA  21   THY  H2'' HN8    0.090000        1.0080           0
     667 DNA  21   THY  H2'  HN8    0.090000        1.0080           0
     668 DNA  21   THY  C3'  CN7    0.010000       12.0110           0
     669 DNA  21   THY  H3'  HN7    0.090000        1.0080           0
     670 DNA  21   THY  O3'  ON2   -0.570000       15.9994           0
     671 DNA  22   THY  P    P2     1.500000       30.9740           0
     672 DNA  22   THY  O1P  ON3   -0.780000       15.9994           0
     673 DNA  22   THY  O2P  ON3   -0.780000       15.9994           0
     674 DNA  22   THY  O5'  ON2   -0.570000       15.9994           0
     675 DNA  22   THY  C5'  CN8B  -0.080000       12.0110           0
     676 DNA  22   THY  H5'  HN8    0.090000        1.0080           0
     677 DNA  22   THY  H5'' HN8    0.090000        1.0080           0
     678 DNA  22   THY  C4'  CN7    0.160000       12.0110           0
     679 DNA  22   THY  H4'  HN7    0.090000        1.0080           0
     680 DNA  22   THY  O4'  ON6   -0.500000       15.9994           0
     681 DNA  22   THY  C1'  CN7B   0.160000       12.0110           0
     682 DNA  22   THY  H1'  HN7    0.090000        1.0080           0
     683 DNA  22   THY  N1   NN2B  -0.340000       14.0070           0
     684 DNA  22   THY  C6   CN3    0.170000       12.0110           0
     685 DNA  22   THY  H6   HN3    0.170000        1.0080           0
     686 DNA  22   THY  C2   CN1T   0.510000       12.0110           0
     687 DNA  22   THY  O2   ON1   -0.410000       15.9994           0
     688 DNA  22   THY  N3   NN2U  -0.460000       14.0070           0
     689 DNA  22   THY  H3   HN2    0.360000        1.0080           0
     690 DNA  22   THY  C4   CN1    0.500000       12.0110           0
     691 DNA  22   THY  O4   ON1   -0.450000       15.9994           0
     692 DNA  22   THY  C5   CN3T  -0.150000       12.0110           0
     693 DNA  22   THY  C5M  CN9   -0.110000       12.0110           0
     694 DNA  22   THY  H51  HN9    0.070000        1.0080           0
     695 DNA  22   THY  H52  HN9    0.070000        1.0080           0
     696 DNA  22   THY  H53  HN9    0.070000        1.0080           0
     697 DNA  22   THY  C2'  CN8   -0.180000       12.0110           0
     698 DNA  22   THY  H2'' HN8    0.090000        1.0080           0
     699 DNA  22   THY  H2'  HN8    0.090000        1.0080           0
     700 DNA  22   THY  C3'  CN7    0.010000       12.0110           0
     701 DNA  22   THY  H3'  HN7    0.090000        1.0080           0
     702 DNA  22   THY  O3'  ON2   -0.570000       15.9994           0
     703 DNA  23   THY  P    P2     1.500000       30.9740           0
     704 DNA  23   THY  O1P  ON3   -0.780000       15.9994           0
     705 DNA  23   THY  O2P  ON3   -0.780000       15.9994           0
     706 DNA  23   THY  O5'  ON2   -0.570000       15.9994           0
     707 DNA  23   THY  C5'  CN8B  -0.080000       12.0110           0
     708 DNA  23   THY  H5'  HN8    0.090000        1.0080           0
     709 DNA  23   THY  H5'' HN8    0.090000        1.0080           0
     710 DNA  23   THY  C4'  CN7    0.160000       12.0110           0
     711 DNA  23   THY  H4'  HN7    0.090000        1.0080           0
     712 DNA  23   THY  O4'  ON6   -0.500000       15.9994           0
     713 DNA  23   THY  C1'  CN7B   0.160000       12.0110           0
     714 DNA  23   THY  H1'  HN7    0.090000        1.0080           0
     715 DNA  23   THY  N1   NN2B  -0.340000       14.0070           0
     716 DNA  23   THY  C6   CN3    0.170000       12.0110           0
     717 DNA  23   THY  H6   HN3    0.170000        1.0080           0
     718 DNA  23   THY  C2   CN1T   0.510000       12.0110           0
     719 DNA  23   THY  O2   ON1   -0.410000       15.9994           0
     720 DNA  23   THY  N3   NN2U  -0.460000       14.0070           0
     721 DNA  23   THY  H3   HN2    0.360000        1.0080           0
     722 DNA  23   THY  C4   CN1    0.500000       12.0110           0
     723 DNA  23   THY  O4   ON1   -0.450000       15.9994           0
     724 DNA  23   THY  C5   CN3T  -0.150000       12.0110           0
     725 DNA  23   THY  C5M  CN9   -0.110000       12.0110           0
     726 DNA  23   THY  H51  HN9    0.070000        1.0080           0
     727 DNA  23   THY  H52  HN9    0.070000        1.0080           0
     728 DNA  23   THY  H53  HN9    0.070000        1.0080           0
     729 DNA  23   THY  C2'  CN8   -0.180000       12.0110           0
     730 DNA  23   THY  H2'' HN8    0.090000        1.0080           0
     731 DNA  23   THY  H2'  HN8    0.090000        1.0080           0
     732 DNA  23   THY  C3'  CN7    0.010000       12.0110           0
     733 DNA  23   THY  H3'  HN7    0.090000        1.0080           0
     734 DNA  23   THY  O3'  ON2   -0.570000       15.9994           0
     735 DNA  24   THY  P    P2     1.500000       30.9740           0
     736 DNA  24   THY  O1P  ON3   -0.780000       15.9994           0
     737 DNA  24   THY  O2P  ON3   -0.780000       15.9994           0
     738 DNA  24   THY  O5'  ON2   -0.570000       15.9994           0
     739 DNA  24   THY  C5'  CN8B  -0.080000       12.0110           0
     740 DNA  24   THY  H5'  HN8    0.090000        1.0080           0
     741 DNA  24   THY  H5'' HN8    0.090000        1.0080           0
     742 DNA  24   THY  C4'  CN7    0.160000       12.0110           0
     743 DNA  24   THY  H4'  HN7    0.090000        1.0080           0
     744 DNA  24   THY  O4'  ON6   -0.500000       15.9994           0
     745 DNA  24   THY  C1'  CN7B   0.160000       12.0110           0
     746 DNA  24   THY  H1'  HN7    0.090000        1.0080           0
     747 DNA  24   THY  N1   NN2B  -0.340000       14.0070           0
     748 DNA  24   THY  C6   CN3    0.170000       12.0110           0
     749 DNA  24   THY  H6   HN3    0.170000        1.0080           0
     750 DNA  24   THY  C2   CN1T   0.510000       12.0110           0
     751 DNA  24   THY  O2   ON1   -0.410000       15.9994           0
     752 DNA  24   THY  N3   NN2U  -0.460000       14.0070           0
     753 DNA  24   THY  H3   HN2    0.360000        1.0080           0
     754 DNA  24   THY  C4   CN1    0.500000       12.0110           0
     755 DNA  24   THY  O4   ON1   -0.450000       15.9994           0
     756 DNA  24   THY  C5   CN3T  -0.150000       12.0110           0
     757 DNA  24   THY  C5M  CN9   -0.110000       12.0110           0
     758 DNA  24   THY  H51  HN9    0.070000        1.0080           0
     759 DNA  24   THY  H52  HN9    0.070000        1.0080           0
     760 DNA  24   THY  H53  HN9    0.070000        1.0080           0
     761 DNA  24   THY  C2'  CN8   -0.180000       12.0110           0
     762 DNA  24   THY  H2'' HN8    0.090000        1.0080           0
     763 DNA  24   THY  H2'  HN8    0.090000        1.0080           0
     764 DNA  24   THY  C3'  CN7    0.010000       12.0110           0
     765 DNA  24   THY  H3'  HN7    0.090000        1.0080           0
     766 DNA  24   THY  O3'  ON2   -0.570000       15.9994           0
     767 DNA  25   THY  P    P2     1.500000       30.9740           0
     768 DNA  25   THY  O1P  ON3   -0.780000       15.9994           0
     769 DNA  25   THY  O2P  ON3   -0.780000       15.9994           0
     770 DNA  25   THY  O5'  ON2   -0.570000       15.9994           0
     771 DNA  25   THY  C5'  CN8B  -0.080000       12.0110           0
     772 DNA  25   THY  H5'  HN8    0.090000        1.0080           0
     773 DNA  25   THY  H5'' HN8    0.090000        1.0080           0
     774 DNA  25   THY  C4'  CN7    0.160000       12.0110           0
     775 DNA  25   THY  H4'  HN7    0.090000        1.0080           0
     776 DNA  25   THY  O4'  ON6   -0.500000       15.9994           0
     777 DNA  25   THY  C1'  CN7B   0.160000       12.0110           0
     778 DNA  25   THY  H1'  HN7    0.090000        1.0080           0
     779 DNA  25   THY  N1   NN2B  -0.340000       14.0070           0
     780 DNA  25   THY  C6   CN3    0.170000       12.0110           0
     781 DNA  25   THY  H6   HN3    0.170000        1.0080           0
     782 DNA  25   THY  C2   CN1T   0.510000       12.0110           0
     783 DNA  25   THY  O2   ON1   -0.410000       15.9994           0
     784 DNA  25   THY  N3   NN2U  -0.460000       14.0070           0
     785 DNA  25   THY  H3   HN2    0.360000        1.0080           0
     786 DNA  25   THY  C4   CN1    0.500000       12.0110           0
     787 DNA  25   THY  O4   ON1   -0.450000       15.9994           0
     788 DNA  25   THY  C5   CN3T  -0.150000       12.0110           0
     789 DNA  25   THY  C5M  CN9   -0.110000       12.0110           0
     790 DNA  25   THY  H51  HN9    0.070000        1.0080           0
     791 DNA  25   THY  H52  HN9    0.070000        1.0080           0
     792 DNA  25   THY  H53  HN9    0.070000        1.0080           0
     793 DNA  25   THY  C2'  CN8   -0.180000       12.0110           0
     794 DNA  25   THY  H2'' HN8    0.090000        1.0080           0
     795 DNA  25   THY  H2'  HN8    0.090000        1.0080           0
     796 DNA  25   THY  C3'  CN7    0.010000       12.0110           0
     797 DNA  25   THY  H3'  HN7    0.090000        1.0080           0
     798 DNA  25   THY  O3'  ON2   -0.570000       15.9994           0
     799 DNA  26   THY  P    P2     1.500000       30.9740           0
     800 DNA  26   THY  O1P  ON3   -0.780000       15.9994           0
     801 DNA  26   THY  O2P  ON3   -0.780000       15.9994           0
     802 DNA  26   THY  O5'  ON2   -0.570000       15.9994           0
     803 DNA  26   THY  C5'  CN8B  -0.080000       12.0110           0
     804 DNA  26   THY  H5'  HN8    0.090000        1.0080           0
     805 DNA  26   THY  H5'' HN8    0.090000        1.0080           0
     806 DNA  26   THY  C4'  CN7    0.160000       12.0110           0
     807 DNA  26   THY  H4'  HN7    0.090000        1.0080           0
     808 DNA  26   THY  O4'  ON6   -0.500000       15.9994           0
     809 DNA  26   THY  C1'  CN7B   0.160000       12.0110           0
     810 DNA  26   THY  H1'  HN7    0.090000        1.0080           0
     811 DNA  26   THY  N1   NN2B  -0.340000       14.0070           0
     812 DNA  26   THY  C6   CN3    0.170000       12.0110           0
     813 DNA  26   THY  H6   HN3    0.170000        1.0080           0
     814 DNA  26   THY  C2   CN1T   0.510000       12.0110           0
     815 DNA  26   THY  O2   ON1   -0.410000       15.9994           0
     816 DNA  26   THY  N3   NN2U  -0.460000       14.0070           0
     817 DNA  26   THY  H3   HN2    0.360000        1.0080           0
     818 DNA  26   THY  C4   CN1    0.500000       12.0110           0
     819 DNA  26   THY  O4   ON1   -0.450000       15.9994           0
     820 DNA  26   THY  C5   CN3T  -0.150000       12.0110           0
     821 DNA  26   THY  C5M  CN9   -0.110000       12.0110           0
     822 DNA  26   THY  H51  HN9    0.070000        1.0080           0
     823 DNA  26   THY  H52  HN9    0.070000        1.0080           0
     824 DNA  26   THY  H53  HN9    0.070000        1.0080           0
     825 DNA  26   THY  C2'  CN8   -0.180000       12.0110           0
     826 DNA  26   THY  H2'' HN8    0.090000        1.0080           0
     827 DNA  26   THY  H2'  HN8    0.090000        1.0080           0
     828 DNA  26   THY  C3'  CN7    0.010000       12.0110           0
     829 DNA  26   THY  H3'  HN7    0.090000        1.0080           0
     830 DNA  26   THY  O3'  ON2   -0.570000       15.9994           0
     831 DNA  27   THY  P    P2     1.500000       30.9740           0
     832 DNA  27   THY  O1P  ON3   -0.780000       15.9994           0
     833 DNA  27   THY  O2P  ON3   -0.780000       15.9994           0
     834 DNA  27   THY  O5'  ON2   -0.570000       15.9994           0
     835 DNA  27   THY  C5'  CN8B  -0.080000       12.0110           0
     836 DNA  27   THY  H5'  HN8    0.090000        1.0080           0
     837 DNA  27   THY  H5'' HN8    0.090000        1.0080           0
     838 DNA  27   THY  C4'  CN7    0.160000       12.0110           0
     839 DNA  27   THY  H4'  HN7    0.090000        1.0080           0
     840 DNA  27   THY  O4'  ON6   -0.500000       15.9994           0
     841 DNA  27   THY  C1'  CN7B   0.160000       12.0110           0
     842 DNA  27   THY  H1'  HN7    0.090000        1.0080           0
     843 DNA  27   THY  N1   NN2B  -0.340000       14.0070           0
     844 DNA  27   THY  C6   CN3    0.170000       12.0110           0
     845 DNA  27   THY  H6   HN3    0.170000        1.0080           0
     846 DNA  27   THY  C2   CN1T   0.510000       12.0110           0
     847 DNA  27   THY  O2   ON1   -0.410000       15.9994           0
     848 DNA  27   THY  N3   NN2U  -0.460000       14.0070           0
     849 DNA  27   THY  H3   HN2    0.360000        1.0080           0
     850 DNA  27   THY  C4   CN1    0.500000       12.0110           0
     851 DNA  27   THY  O4   ON1   -0.450000       15.9994           0
     852 DNA  27   THY  C5   CN3T  -0.150000       12.0110           0
     853 DNA  27   THY  C5M  CN9   -0.110000       12.0110           0
     854 DNA  27   THY  H51  HN9    0.070000        1.0080           0
     855 DNA  27   THY  H52  HN9    0.070000        1.0080           0
     856 DNA  27   THY  H53  HN9    0.070000        1.0080           0
     857 DNA  27   THY  C2'  CN8   -0.180000       12.0110           0
     858 DNA  27   THY  H2'' HN8    0.090000        1.0080           0
     859 DNA  27   THY  H2'  HN8    0.090000        1.0080           0
     860 DNA  27   THY  C3'  CN7    0.010000       12.0110           0
     861 DNA  27   THY  H3'  HN7    0.090000        1.0080           0
     862 DNA  27   THY  O3'  ON2   -0.570000       15.9994           0
     863 DNA  28   THY  P    P2     1.500000       30.9740           0
     864 DNA  28   THY  O1P  ON3   -0.780000       15.9994           0
     865 DNA  28   THY  O2P  ON3   -0.780000       15.9994           0
     866 DNA  28   THY  O5'  ON2   -0.570000       15.9994           0
     867 DNA  28   THY  C5'  CN8B  -0.080000       12.0110           0
     868 DNA  28   THY  H5'  HN8    0.090000        1.0080           0
     869 DNA  28   THY  H5'' HN8    0.090000        1.0080           0
     870 DNA  28   THY  C4'  CN7    0.160000       12.0110           0
     871 DNA  28   THY  H4'  HN7    0.090000        1.0080           0
     872 DNA  28   THY  O4'  ON6   -0.500000       15.9994           0
     873 DNA  28   THY  C1'  CN7B   0.160000       12.0110           0
     874 DNA  28   THY  H1'  HN7    0.090000        1.0080           0
     875 DNA  28   THY  N1   NN2B  -0.340000       14.0070           0
     876 DNA  28   THY  C6   CN3    0.170000       12.0110           0
     877 DNA  28   THY  H6   HN3    0.170000        1.0080           0
     878 DNA  28   THY  C2   CN1T   0.510000       12.0110           0
     879 DNA  28   THY  O2   ON1   -0.410000       15.9994           0
     880 DNA  28   THY  N3   NN2U  -0.460000       14.0070           0
     881 DNA  28   THY  H3   HN2    0.360000        1.0080           0
     882 DNA  28   THY  C4   CN1    0.500000       12.0110           0
     883 DNA  28   THY  O4   ON1   -0.450000       15.9994           0
     884 DNA  28   THY  C5   CN3T  -0.150000       12.0110           0
     885 DNA  28   THY  C5M  CN9   -0.110000       12.0110           0
     886 DNA  28   THY  H51  HN9    0.070000        1.0080           0
     887 DNA  28   THY  H52  HN9    0.070000        1.0080           0
     888 DNA  28   THY  H53  HN9    0.070000        1.0080           0
     889 DNA  28   THY  C2'  CN8   -0.180000       12.0110           0
     890 DNA  28   THY  H2'' HN8    0.090000        1.0080           0
     891 DNA  28   THY  H2'  HN8    0.090000        1.0080           0
     892 DNA  28   THY  C3'  CN7    0.010000       12.0110           0
     893 DNA  28   THY  H3'  HN7    0.090000        1.0080           0
     894 DNA  28   THY  O3'  ON2   -0.570000       15.9994           0
     895 DNA  29   THY  P    P2     1.500000       30.9740           0
     896 DNA  29   THY  O1P  ON3   -0.780000       15.9994           0
     897 DNA  29   THY  O2P  ON3   -0.780000       15.9994           0
     898 DNA  29   THY  O5'  ON2   -0.570000       15.9994           0
     899 DNA  29   THY  C5'  CN8B  -0.080000       12.0110           0
     900 DNA  29   THY  H5'  HN8    0.090000        1.0080           0
     901 DNA  29   THY  H5'' HN8    0.090000        1.0080           0
     902 DNA  29   THY  C4'  CN7    0.160000       12.0110           0
     903 DNA  29   THY  H4'  HN7    0.090000        1.0080           0
     904 DNA  29   THY  O4'  ON6   -0.500000       15.9994           0
     905 DNA  29   THY  C1'  CN7B   0.160000       12.0110           0
     906 DNA  29   THY  H1'  HN7    0.090000        1.0080           0
     907 DNA  29   THY  N1   NN2B  -0.340000       14.0070           0
     908 DNA  29   THY  C6   CN3    0.170000       12.0110           0
     909 DNA  29   THY  H6   HN3    0.170000        1.0080           0
     910 DNA  29   THY  C2   CN1T   0.510000       12.0110           0
     911 DNA  29   THY  O2   ON1   -0.410000       15.9994           0
     912 DNA  29   THY  N3   NN2U  -0.460000       14.0070           0
     913 DNA  29   THY  H3   HN2    0.360000        1.0080           0
     914 DNA  29   THY  C4   CN1    0.500000       12.0110           0
     915 DNA  29   THY  O4   ON1   -0.450000       15.9994           0
     916 DNA  29   THY  C5   CN3T  -0.150000       12.0110           0
     917 DNA  29   THY  C5M  CN9   -0.110000       12.0110           0
     918 DNA  29   THY  H51  HN9    0.070000        1.0080           0
     919 DNA  29   THY  H52  HN9    0.070000        1.0080           0
     920 DNA  29   THY  H53  HN9    0.070000        1.0080           0
     921 DNA  29   THY  C2'  CN8   -0.180000       12.0110           0
     922 DNA  29   THY  H2'' HN8    0.090000        1.0080           0
     923 DNA  29   THY  H2'  HN8    0.090000        1.0080           0
     924 DNA  29   THY  C3'  CN7    0.010000       12.0110           0
     925 DNA  29   THY  H3'  HN7    0.090000        1.0080           0
     926 DNA  29   THY  O3'  ON2   -0.570000       15.9994           0
     927 DNA  30   THY  P    P2     1.500000       30.9740           0
     928 DNA  30   THY  O1P  ON3   -0.780000       15.9994           0
     929 DNA  30   THY  O2P  ON3   -0.780000       15.9994           0
     930 DNA  30   THY  O5'  ON2   -0.570000       15.9994           0
     931 DNA  30   THY  C5'  CN8B  -0.080000       12.0110           0
     932 DNA  30   THY  H5'  HN8    0.090000        1.0080           0
     933 DNA  30   THY  H5'' HN8    0.090000        1.0080           0
     934 DNA  30   THY  C4'  CN7    0.160000       12.0110           0
     935 DNA  30   THY  H4'  HN7    0.090000        1.0080           0
     936 DNA  30   THY  O4'  ON6   -0.500000       15.9994           0
     937 DNA  30   THY  C1'  CN7B   0.160000       12.0110           0
     938 DNA  30   THY  H1'  HN7    0.090000        1.0080           0
     939 DNA  30   THY  N1   NN2B  -0.340000       14.0070           0
     940 DNA  30   THY  C6   CN3    0.170000       12.0110           0
     941 DNA  30   THY  H6   HN3    0.170000        1.0080           0
     942 DNA  30   THY  C2   CN1T   0.510000       12.0110           0
     943 DNA  30   THY  O2   ON1   -0.410000       15.9994           0
     944 DNA  30   THY  N3   NN2U  -0.460000       14.0070           0
     945 DNA  30   THY  H3   HN2    0.360000        1.0080           0
     946 DNA  30   THY  C4   CN1    0.500000       12.0110           0
     947 DNA  30   THY  O4   ON1   -0.450000       15.9994           0
     948 DNA  30   THY  C5   CN3T  -0.150000       12.0110           0
     949 DNA  30   THY  C5M  CN9   -0.110000       12.0110           0
     950 DNA  30   THY  H51  HN9    0.070000        1.0080           0
     951 DNA  30   THY  H52  HN9    0.070000        1.0080           0
     952 DNA  30   THY  H53  HN9    0.070000        1.0080           0
     953 DNA  30   THY  C2'  CN8   -0.180000       12.0110           0
     954 DNA  30   THY  H2'' HN8    0.090000        1.0080           0
     955 DNA  30   THY  H2'  HN8    0.090000        1.0080           0
     956 DNA  30   THY  C3'  CN7    0.010000       12.0110           0
     957 DNA  30   THY  H3'  HN7    0.090000        1.0080           0
     958 DNA  30   THY  O3'  ON2   -0.570000       15.9994           0
     959 DNA  31   THY  P    P2     1.500000       30.9740           0
     960 DNA  31   THY  O1P  ON3   -0.780000       15.9994           0
     961 DNA  31   THY  O2P  ON3   -0.780000       15.9994           0
     962 DNA  31   THY  O5'  ON2   -0.570000       15.9994           0
     963 DNA  31   THY  C5'  CN8B  -0.080000       12.0110           0
     964 DNA  31   THY  H5'  HN8    0.090000        1.0080           0
     965 DNA  31   THY  H5'' HN8    0.090000        1.0080           0
     966 DNA  31   THY  C4'  CN7    0.160000       12.0110           0
     967 DNA  31   THY  H4'  HN7    0.090000        1.0080           0
     968 DNA  31   THY  O4'  ON6   -0.500000       15.9994           0
     969 DNA  31   THY  C1'  CN7B   0.160000       12.0110           0
     970 DNA  31   THY  H1'  HN7    0.090000        1.0080           0
     971 DNA  31   THY  N1   NN2B  -0.340000       14.0070           0
     972 DNA  31   THY  C6   CN3    0.170000       12.0110           0
     973 DNA  31   THY  H6   HN3    0.170000        1.0080           0
     974 DNA  31   THY  C2   CN1T   0.510000       12.0110           0
     975 DNA  31   THY  O2   ON1   -0.410000       15.9994           0
     976 DNA  31   THY  N3   NN2U  -0.460000       14.0070           0
     977 DNA  31   THY  H3   HN2    0.360000        1.0080           0
     978 DNA  31   THY  C4   CN1    0.500000       12.0110           0
     979 DNA  31   THY  O4   ON1   -0.450000       15.9994           0
     980 DNA  31   THY  C5   CN3T  -0.150000       12.0110           0
     981 DNA  31   THY  C5M  CN9   -0.110000       12.0110           0
     982 DNA  31   THY  H51  HN9    0.070000        1.0080           0
     983 DNA  31   THY  H52  HN9    0.070000        1.0080           0
     984 DNA  31   THY  H53  HN9    0.070000        1.0080           0
     985 DNA  31   THY  C2'  CN8   -0.180000       12.0110           0
     986 DNA  31   THY  H2'' HN8    0.090000        1.0080           0
     987 DNA  31   THY  H2'  HN8    0.090000        1.0080           0
     988 DNA  31   THY  C3'  CN7    0.010000       12.0110           0
     989 DNA  31   THY  H3'  HN7    0.090000        1.0080           0
     990 DNA  31   THY  O3'  ON2   -0.570000       15.9994           0
     991 DNA  32   THY  P    P2     1.500000       30.9740           0
     992 DNA  32   THY  O1P  ON3   -0.780000       15.9994           0
     993 DNA  32   THY  O2P  ON3   -0.780000       15.9994           0
     994 DNA  32   THY  O5'  ON2   -0.570000       15.9994           0
     995 DNA  32   THY  C5'  CN8B  -0.080000       12.0110           0
     996 DNA  32   THY  H5'  HN8    0.090000        1.0080           0
     997 DNA  32   THY  H5'' HN8    0.090000        1.0080           0
     998 DNA  32   THY  C4'  CN7    0.160000       12.0110           0
     999 DNA  32   THY  H4'  HN7    0.090000        1.0080           0
    1000 DNA  32   THY  O4'  ON6   -0.500000       15.9994           0
    1001 DNA  32   THY  C1'  CN7B   0.160000       12.0110           0
    1002 DNA  32   THY  H1'  HN7    0.090000        1.0080           0
    1003 DNA  32   THY  N1   NN2B  -0.340000       14.0070           0
    1004 DNA  32   THY  C6   CN3    0.170000       12.0110           0
    1005 DNA  32   THY  H6   HN3    0.170000        1.0080           0
    1006 DNA  32   THY  C2   CN1T   0.510000       12.0110           0
    1007 DNA  32   THY  O2   ON1   -0.410000       15.9994           0
    1008 DNA  32   THY  N3   NN2U  -0.460000       14.0070           0
    1009 DNA  32   THY  H3   HN2    0.360000        1.0080           0
    1010 DNA  32   THY  C4   CN1    0.500000       12.0110           0
    1011 DNA  32   THY  O4   ON1   -0.450000       15.9994           0
    1012 DNA  32   THY  C5   CN3T  -0.150000       12.0110           0
    1013 DNA  32   THY  C5M  CN9   -0.110000       12.0110           0
    1014 DNA  32   THY  H51  HN9    0.070000        1.0080           0
    1015 DNA  32   THY  H52  HN9    0.070000        1.0080           0
    1016 DNA  32   THY  H53  HN9    0.070000        1.0080           0
    1017 DNA  32   THY  C2'  CN8   -0.180000       12.0110           0
    1018 DNA  32   THY  H2'' HN8    0.090000        1.0080           0
    1019 DNA  32   THY  H2'  HN8    0.090000        1.0080           0
    1020 DNA  32   THY  C3'  CN7    0.010000       12.0110           0
    1021 DNA  32   THY  H3'  HN7    0.090000        1.0080           0
    1022 DNA  32   THY  O3'  ON2   -0.570000       15.9994           0
    1023 DNA  33   THY  P    P2     1.500000       30.9740           0
    1024 DNA  33   THY  O1P  ON3   -0.780000       15.9994           0
    1025 DNA  33   THY  O2P  ON3   -0.780000       15.9994           0
    1026 DNA  33   THY  O5'  ON2   -0.570000       15.9994           0
    1027 DNA  33   THY  C5'  CN8B  -0.080000       12.0110           0
    1028 DNA  33   THY  H5'  HN8    0.090000        1.0080           0
    1029 DNA  33   THY  H5'' HN8    0.090000        1.0080           0
    1030 DNA  33   THY  C4'  CN7    0.160000       12.0110           0
    1031 DNA  33   THY  H4'  HN7    0.090000        1.0080           0
    1032 DNA  33   THY  O4'  ON6   -0.500000       15.9994           0
    1033 DNA  33   THY  C1'  CN7B   0.160000       12.0110           0
    1034 DNA  33   THY  H1'  HN7    0.090000        1.0080           0
    1035 DNA  33   THY  N1   NN2B  -0.340000       14.0070           0
    1036 DNA  33   THY  C6   CN3    0.170000       12.0110           0
    1037 DNA  33   THY  H6   HN3    0.170000        1.0080           0
    1038 DNA  33   THY  C2   CN1T   0.510000       12.0110           0
    1039 DNA  33   THY  O2   ON1   -0.410000       15.9994           0
    1040 DNA  33   THY  N3   NN2U  -0.460000       14.0070           0
    1041 DNA  33   THY  H3   HN2    0.360000        1.0080           0
    1042 DNA  33   THY  C4   CN1    0.500000       12.0110           0
    1043 DNA  33   THY  O4   ON1   -0.450000       15.9994           0
    1044 DNA  33   THY  C5   CN3T  -0.150000       12.0110           0
    1045 DNA  33   THY  C5M  CN9   -0.110000       12.0110           0
    1046 DNA  33   THY  H51  HN9    0.070000        1.0080           0
    1047 DNA  33   THY  H52  HN9    0.070000        1.0080           0
    1048 DNA  33   THY  H53  HN9    0.070000        1.0080           0
    1049 DNA  33   THY  C2'  CN8   -0.180000       12.0110           0
    1050 DNA  33   THY  H2'' HN8    0.090000        1.0080           0
    1051 DNA  33   THY  H2'  HN8    0.090000        1.0080           0
    1052 DNA  33   THY  C3'  CN7    0.010000       12.0110           0
    1053 DNA  33   THY  H3'  HN7    0.090000        1.0080           0
    1054 DNA  33   THY  O3'  ON2   -0.570000       15.9994           0
    1055 DNA  34   THY  P    P2     1.500000       30.9740           0
    1056 DNA  34   THY  O1P  ON3   -0.780000       15.9994           0
    1057 DNA  34   THY  O2P  ON3   -0.780000       15.9994           0
    1058 DNA  34   THY  O5'  ON2   -0.570000       15.9994           0
    1059 DNA  34   THY  C5'  CN8B  -0.080000       12.0110           0
    1060 DNA  34   THY  H5'  HN8    0.090000        1.0080           0
    1061 DNA  34   THY  H5'' HN8    0.090000        1.0080           0
    1062 DNA  34   THY  C4'  CN7    0.160000       12.0110           0
    1063 DNA  34   THY  H4'  HN7    0.090000        1.0080           0
    1064 DNA  34   THY  O4'  ON6   -0.500000       15.9994           0
    1065 DNA  34   THY  C1'  CN7B   0.160000       12.0110           0
    1066 DNA  34   THY  H1'  HN7    0.090000        1.0080           0
    1067 DNA  34   THY  N1   NN2B  -0.340000       14.0070           0
    1068 DNA  34   THY  C6   CN3    0.170000       12.0110           0
    1069 DNA  34   THY  H6   HN3    0.170000        1.0080           0
    1070 DNA  34   THY  C2   CN1T   0.510000       12.0110           0
    1071 DNA  34   THY  O2   ON1   -0.410000       15.9994           0
    1072 DNA  34   THY  N3   NN2U  -0.460000       14.0070           0
    1073 DNA  34   THY  H3   HN2    0.360000        1.0080           0
    1074 DNA  34   THY  C4   CN1    0.500000       12.0110           0
    1075 DNA  34   THY  O4   ON1   -0.450000       15.9994           0
    1076 DNA  34   THY  C5   CN3T  -0.150000       12.0110           0
    1077 DNA  34   THY  C5M  CN9   -0.110000       12.0110           0
    1078 DNA  34   THY  H51  HN9    0.070000        1.0080           0
    1079 DNA  34   THY  H52  HN9    0.070000        1.0080           0
    1080 DNA  34   THY  H53  HN9    0.070000        1.0080           0
    1081 DNA  34   THY  C2'  CN8   -0.180000       12.0110           0
    1082 DNA  34   THY  H2'' HN8    0.090000        1.0080           0
    1083 DNA  34   THY  H2'  HN8    0.090000        1.0080           0
    1084 DNA  34   THY  C3'  CN7    0.010000       12.0110           0
    1085 DNA  34   THY  H3'  HN7    0.090000        1.0080           0
    1086 DNA  34   THY  O3'  ON2   -0.570000       15.9994           0
    1087 DNA  35   THY  P    P2     1.500000       30.9740           0
    1088 DNA  35   THY  O1P  ON3   -0.780000       15.9994           0
    1089 DNA  35   THY  O2P  ON3   -0.780000       15.9994           0
    1090 DNA  35   THY  O5'  ON2   -0.570000       15.9994           0
    1091 DNA  35   THY  C5'  CN8B  -0.080000       12.0110           0
    1092 DNA  35   THY  H5'  HN8    0.090000        1.0080           0
    1093 DNA  35   THY  H5'' HN8    0.090000        1.0080           0
    1094 DNA  35   THY  C4'  CN7    0.160000       12.0110           0
    1095 DNA  35   THY  H4'  HN7    0.090000        1.0080           0
    1096 DNA  35   THY  O4'  ON6   -0.500000       15.9994           0
    1097 DNA  35   THY  C1'  CN7B   0.160000       12.0110           0
    1098 DNA  35   THY  H1'  HN7    0.090000        1.0080           0
    1099 DNA  35   THY  N1   NN2B  -0.340000       14.0070           0
    1100 DNA  35   THY  C6   CN3    0.170000       12.0110           0
    1101 DNA  35   THY  H6   HN3    0.170000        1.0080           0
    1102 DNA  35   THY  C2   CN1T   0.510000       12.0110           0
    1103 DNA  35   THY  O2   ON1   -0.410000       15.9994           0
    1104 DNA  35   THY  N3   NN2U  -0.460000       14.0070           0
    1105 DNA  35   THY  H3   HN2    0.360000        1.0080           0
    1106 DNA  35   THY  C4   CN1    0.500000       12.0110           0
    1107 DNA  35   THY  O4   ON1   -0.450000       15.9994           0
    1108 DNA  35   THY  C5   CN3T  -0.150000       12.0110           0
    1109 DNA  35   THY  C5M  CN9   -0.110000       12.0110           0
    1110 DNA  35   THY  H51  HN9    0.070000        1.0080           0
    1111 DNA  35   THY  H52  HN9    0.070000        1.0080           0
    1112 DNA  35   THY  H53  HN9    0.070000        1.0080           0
    1113 DNA  35   THY  C2'  CN8   -0.180000       12.0110           0
    1114 DNA  35   THY  H2'' HN8    0.090000        1.0080           0
    1115 DNA  35   THY  H2'  HN8    0.090000        1.0080           0
    1116 DNA  35   THY  C3'  CN7    0.010000       12.0110           0
    1117 DNA  35   THY  H3'  HN7    0.090000        1.0080           0
    1118 DNA  35   THY  O3'  ON2   -0.570000       15.9994           0
    1119 DNA  36   THY  P    P2     1.500000       30.9740           0
    1120 DNA  36   THY  O1P  ON3   -0.780000       15.9994           0
    1121 DNA  36   THY  O2P  ON3   -0.780000       15.9994           0
    1122 DNA  36   THY  O5'  ON2   -0.570000       15.9994           0
    1123 DNA  36   THY  C5'  CN8B  -0.080000       12.0110           0
    1124 DNA  36   THY  H5'  HN8    0.090000        1.0080           0
    1125 DNA  36   THY  H5'' HN8    0.090000        1.0080           0
    1126 DNA  36   THY  C4'  CN7    0.160000       12.0110           0
    1127 DNA  36   THY  H4'  HN7    0.090000        1.0080           0
    1128 DNA  36   THY  O4'  ON6   -0.500000       15.9994           0
    1129 DNA  36   THY  C1'  CN7B   0.160000       12.0110           0
    1130 DNA  36   THY  H1'  HN7    0.090000        1.0080           0
    1131 DNA  36   THY  N1   NN2B  -0.340000       14.0070           0
    1132 DNA  36   THY  C6   CN3    0.170000       12.0110           0
    1133 DNA  36   THY  H6   HN3    0.170000        1.0080           0
    1134 DNA  36   THY  C2   CN1T   0.510000       12.0110           0
    1135 DNA  36   THY  O2   ON1   -0.410000       15.9994           0
    1136 DNA  36   THY  N3   NN2U  -0.460000       14.0070           0
    1137 DNA  36   THY  H3   HN2    0.360000        1.0080           0
    1138 DNA  36   THY  C4   CN1    0.500000       12.0110           0
    1139 DNA  36   THY  O4   ON1   -0.450000       15.9994           0
    1140 DNA  36   THY  C5   CN3T  -0.150000       12.0110           0
    1141 DNA  36   THY  C5M  CN9   -0.110000       12.0110           0
    1142 DNA  36   THY  H51  HN9    0.070000        1.0080           0
    1143 DNA  36   THY  H52  HN9    0.070000        1.0080           0
    1144 DNA  36   THY  H53  HN9    0.070000        1.0080           0
    1145 DNA  36   THY  C2'  CN8   -0.180000       12.0110           0
    1146 DNA  36   THY  H2'' HN8    0.090000        1.0080           0
    1147 DNA  36   THY  H2'  HN8    0.090000        1.0080           0
    1148 DNA  36   THY  C3'  CN7    0.010000       12.0110           0
    1149 DNA  36   THY  H3'  HN7    0.090000        1.0080           0
    1150 DNA  36   THY  O3'  ON2   -0.570000       15.9994           0
    1151 DNA  37   THY  P    P2     1.500000       30.9740           0
    1152 DNA  37   THY  O1P  ON3   -0.780000       15.9994           0
    1153 DNA  37   THY  O2P  ON3   -0.780000       15.9994           0
    1154 DNA  37   THY  O5'  ON2   -0.570000       15.9994           0
    1155 DNA  37   THY  C5'  CN8B  -0.080000       12.0110           0
    1156 DNA  37   THY  H5'  HN8    0.090000        1.0080           0
    1157 DNA  37   THY  H5'' HN8    0.090000        1.0080           0
    1158 DNA  37   THY  C4'  CN7    0.160000       12.0110           0
    1159 DNA  37   THY  H4'  HN7    0.090000        1.0080           0
    1160 DNA  37   THY  O4'  ON6   -0.500000       15.9994           0
    1161 DNA  37   THY  C1'  CN7B   0.160000       12.0110           0
    1162 DNA  37   THY  H1'  HN7    0.090000        1.0080           0
    1163 DNA  37   THY  N1   NN2B  -0.340000       14.0070           0
    1164 DNA  37   THY  C6   CN3    0.170000       12.0110           0
    1165 DNA  37   THY  H6   HN3    0.170000        1.0080           0
    1166 DNA  37   THY  C2   CN1T   0.510000       12.0110           0
    1167 DNA  37   THY  O2   ON1   -0.410000       15.9994           0
    1168 DNA  37   THY  N3   NN2U  -0.460000       14.0070           0
    1169 DNA  37   THY  H3   HN2    0.360000        1.0080           0
    1170 DNA  37   THY  C4   CN1    0.500000       12.0110           0
    1171 DNA  37   THY  O4   ON1   -0.450000       15.9994           0
    1172 DNA  37   THY  C5   CN3T  -0.150000       12.0110           0
    1173 DNA  37   THY  C5M  CN9   -0.110000       12.0110           0
    1174 DNA  37   THY  H51  HN9    0.070000        1.0080           0
    1175 DNA  37   THY  H52  HN9    0.070000        1.0080           0
    1176 DNA  37   THY  H53  HN9    0.070000        1.0080           0
    1177 DNA  37   THY  C2'  CN8   -0.180000       12.0110           0
    1178 DNA  37   THY  H2'' HN8    0.090000        1.0080           0
    1179 DNA  37   THY  H2'  HN8    0.090000        1.0080           0
    1180 DNA  37   THY  C3'  CN7    0.010000       12.0110           0
    1181 DNA  37   THY  H3'  HN7    0.090000        1.0080           0
    1182 DNA  37   THY  O3'  ON2   -0.570000       15.9994           0
    1183 DNA  38   THY  P    P2     1.500000       30.9740           0
    1184 DNA  38   THY  O1P  ON3   -0.780000       15.9994           0
    1185 DNA  38   THY  O2P  ON3   -0.780000       15.9994           0
    1186 DNA  38   THY  O5'  ON2   -0.570000       15.9994           0
    1187 DNA  38   THY  C5'  CN8B  -0.080000       12.0110           0
    1188 DNA  38   THY  H5'  HN8    0.090000        1.0080           0
    1189 DNA  38   THY  H5'' HN8    0.090000        1.0080           0
    1190 DNA  38   THY  C4'  CN7    0.160000       12.0110           0
    1191 DNA  38   THY  H4'  HN7    0.090000        1.0080           0
    1192 DNA  38   THY  O4'  ON6   -0.500000       15.9994           0
    1193 DNA  38   THY  C1'  CN7B   0.160000       12.0110           0
    1194 DNA  38   THY  H1'  HN7    0.090000        1.0080           0
    1195 DNA  38   THY  N1   NN2B  -0.340000       14.0070           0
    1196 DNA  38   THY  C6   CN3    0.170000       12.0110           0
    1197 DNA  38   THY  H6   HN3    0.170000        1.0080           0
    1198 DNA  38   THY  C2   CN1T   0.510000       12.0110           0
    1199 DNA  38   THY  O2   ON1   -0.410000       15.9994           0
    1200 DNA  38   THY  N3   NN2U  -0.460000       14.0070           0
    1201 DNA  38   THY  H3   HN2    0.360000        1.0080           0
    1202 DNA  38   THY  C4   CN1    0.500000       12.0110           0
    1203 DNA  38   THY  O4   ON1   -0.450000       15.9994           0
    1204 DNA  38   THY  C5   CN3T  -0.150000       12.0110           0
    1205 DNA  38   THY  C5M  CN9   -0.110000       12.0110           0
    1206 DNA  38   THY  H51  HN9    0.070000        1.0080           0
    1207 DNA  38   THY  H52  HN9    0.070000        1.0080           0
    1208 DNA  38   THY  H53  HN9    0.070000        1.0080           0
    1209 DNA  38   THY  C2'  CN8   -0.180000       12.0110           0
    1210 DNA  38   THY  H2'' HN8    0.090000        1.0080           0
    1211 DNA  38   THY  H2'  HN8    0.090000        1.0080           0
    1212 DNA  38   THY  C3'  CN7    0.010000       12.0110           0
    1213 DNA  38   THY  H3'  HN7    0.090000        1.0080           0
    1214 DNA  38   THY  O3'  ON2   -0.570000       15.9994           0
    1215 DNA  39   THY  P    P2     1.500000       30.9740           0
    1216 DNA  39   THY  O1P  ON3   -0.780000       15.9994           0
    1217 DNA  39   THY  O2P  ON3   -0.780000       15.9994           0
    1218 DNA  39   THY  O5'  ON2   -0.570000       15.9994           0
    1219 DNA  39   THY  C5'  CN8B  -0.080000       12.0110           0
    1220 DNA  39   THY  H5'  HN8    0.090000        1.0080           0
    1221 DNA  39   THY  H5'' HN8    0.090000        1.0080           0
    1222 DNA  39   THY  C4'  CN7    0.160000       12.0110           0
    1223 DNA  39   THY  H4'  HN7    0.090000        1.0080           0
    1224 DNA  39   THY  O4'  ON6   -0.500000       15.9994           0
    1225 DNA  39   THY  C1'  CN7B   0.160000       12.0110           0
    1226 DNA  39   THY  H1'  HN7    0.090000        1.0080           0
    1227 DNA  39   THY  N1   NN2B  -0.340000       14.0070           0
    1228 DNA  39   THY  C6   CN3    0.170000       12.0110           0
    1229 DNA  39   THY  H6   HN3    0.170000        1.0080           0
    1230 DNA  39   THY  C2   CN1T   0.510000       12.0110           0
    1231 DNA  39   THY  O2   ON1   -0.410000       15.9994           0
    1232 DNA  39   THY  N3   NN2U  -0.460000       14.0070           0
    1233 DNA  39   THY  H3   HN2    0.360000        1.0080           0
    1234 DNA  39   THY  C4   CN1    0.500000       12.0110           0
    1235 DNA  39   THY  O4   ON1   -0.450000       15.9994           0
    1236 DNA  39   THY  C5   CN3T  -0.150000       12.0110           0
    1237 DNA  39   THY  C5M  CN9   -0.110000       12.0110           0
    1238 DNA  39   THY  H51  HN9    0.070000        1.0080           0
    1239 DNA  39   THY  H52  HN9    0.070000        1.0080           0
    1240 DNA  39   THY  H53  HN9    0.070000        1.0080           0
    1241 DNA  39   THY  C2'  CN8   -0.180000       12.0110           0
    1242 DNA  39   THY  H2'' HN8    0.090000        1.0080           0
    1243 DNA  39   THY  H2'  HN8    0.090000        1.0080           0
    1244 DNA  39   THY  C3'  CN7    0.010000       12.0110           0
    1245 DNA  39   THY  H3'  HN7    0.090000        1.0080           0
    1246 DNA  39   THY  O3'  ON2   -0.570000       15.9994           0
    1247 DNA  40   THY  P    P2     1.500000       30.9740           0
    1248 DNA  40   THY  O1P  ON3   -0.780000       15.9994           0
    1249 DNA  40   THY  O2P  ON3   -0.780000       15.9994           0
    1250 DNA  40   THY  O5'  ON2   -0.570000       15.9994           0
    1251 DNA  40   THY  C5'  CN8B  -0.080000       12.0110           0
    1252 DNA  40   THY  H5'  HN8    0.090000        1.0080           0
    1253 DNA  40   THY  H5'' HN8    0.090000        1.0080           0
    1254 DNA  40   THY  C4'  CN7    0.160000       12.0110           0
    1255 DNA  40   THY  H4'  HN7    0.090000        1.0080           0
    1256 DNA  40   THY  O4'  ON6   -0.500000       15.9994           0
    1257 DNA  40   THY  C1'  CN7B   0.160000       12.0110           0
    1258 DNA  40   THY  H1'  HN7    0.090000        1.0080           0
    1259 DNA  40   THY  N1   NN2B  -0.340000       14.0070           0
    1260 DNA  40   THY  C6   CN3    0.170000       12.0110           0
    1261 DNA  40   THY  H6   HN3    0.170000        1.0080           0
    1262 DNA  40   THY  C2   CN1T   0.510000       12.0110           0
    1263 DNA  40   THY  O2   ON1   -0.410000       15.9994           0
    1264 DNA  40   THY  N3   NN2U  -0.460000       14.0070           0
    1265 DNA  40   THY  H3   HN2    0.360000        1.0080           0
    1266 DNA  40   THY  C4   CN1    0.500000       12.0110           0
    1267 DNA  40   THY  O4   ON1   -0.450000       15.9994           0
    1268 DNA  40   THY  C5   CN3T  -0.150000       12.0110           0
    1269 DNA  40   THY  C5M  CN9   -0.110000       12.0110           0
    1270 DNA  40   THY  H51  HN9    0.070000        1.0080           0
    1271 DNA  40   THY  H52  HN9    0.070000        1.0080           0
    1272 DNA  40   THY  H53  HN9    0.070000        1.0080           0
    1273 DNA  40   THY  C2'  CN8   -0.180000       12.0110           0
    1274 DNA  40   THY  H2'' HN8    0.090000        1.0080           0
    1275 DNA  40   THY  H2'  HN8    0.090000        1.0080           0
    1276 DNA  40   THY  C3'  CN7    0.140000       12.0110           0
    1277 DNA  40   THY  H3'  HN7    0.090000        1.0080           0
    1278 DNA  40   THY  O3'  ON5   -0.660000       15.9994           0
    1279 DNA  40   THY  H3T  HN5    0.430000        1.0080           0

    1358 !NBOND: bonds
       1       2       2       3       3       6       3       4
       3       5       6       8       6      28       6       7
       8       9       9      11       9      25       9      10
      11      14      11      12      12      13      14      16
      14      15      16      17      16      18      18      20
      18      19      20      21      20      12      21      22
      21      23      21      24      25      27      25      28
      25      26      28      30      28      29      30      31
      31      32      31      33      31      34      34      35
      35      38      35      36      35      37      38      40
      38      60      38      39      40      41      41      43
      41      57      41      42      43      46      43      44
      44      45      46      48      46      47      48      49
      48      50      50      52      50      51      52      53
      52      44      53      54      53      55      53      56
      57      59      57      60      57      58      60      62
      60      61      62      63      63      64      63      65
      63      66      66      67      67      70      67      68
      67      69      70      72      70      92      70      71
      72      73      73      75      73      89      73      74
      75      78      75      76      76      77      78      80
      78      79      80      81      80      82      82      84
      82      83      84      85      84      76      85      86
      85      87      85      88      89      91      89      92
      89      90      92      94      92      93      94      95
      95      96      95      97      95      98      98      99
      99     102      99     100      99     101     102     104
     102     124     102     103     104     105     105     107
     105     121     105     106     107     110     107     108
     108     109     110     112     110     111     112     113
     112     114     114     116     114     115     116     117
     116     108     117     118     117     119     117     120
     121     123     121     124     121     122     124     126
     124     125     126     127     127     128     127     129
     127     130     130     131     131     134     131     132
     131     133     134     136     134     156     134     135
     136     137     137     139     137     153     137     138
     139     142     139     140     140     141     142     144
     142     143     144     145     144     146     146     148
     146     147     148     149     148     140     149     150
     149     151     149     152     153     155     153     156
     153     154     156     158     156     157     158     159
     159     160     159     161     159     162     162     163
     163     166     163     164     163     165     166     168
     166     188     166     167     168     169     169     171
     169     185     169     170     171     174     171     172
     172     173     174     176     174     175     176     177
     176     178     178     180     178     179     180     181
     180     172     181     182     181     183     181     184
     185     187     185     188     185     186     188     190
     188     189     190     191     191     192     191     193
     191     194     194     195     195     198     195     196
     195     197     198     200     198     220     198     199
     200     201     201     203     201     217     201     202
     203     206     203     204     204     205     206     208
     206     207     208     209     208     210     210     212
     210     211     212     213     212     204     213     214
     213     215     213     216     217     219     217     220
     217     218     220     222     220     221     222     223
     223     224     223     225     223     226     226     227
     227     230     227     228     227     229     230     232
     230     252     230     231     232     233     233     235
     233     249     233     234     235     238     235     236
     236     237     238     240     238     239     240     241
     240     242     242     244     242     243     244     245
     244     236     245     246     245     247     245     248
     249     251     249     252     249     250     252     254
     252     253     254     255     255     256     255     257
     255     258     258     259     259     262     259     260
     259     261     262     264     262     284     262     263
     264     265     265     267     265     281     265     266
     267     270     267     268     268     269     270     272
     270     271     272     273     272     274     274     276
     274     275     276     277     276     268     277     278
     277     279     277     280     281     283     281     284
     281     282     284     286     284     285     286     287
     287     288     287     289     287     290     290     291
     291     294     291     292     291     293     294     296
     294     316     294     295     296     297     297     299
     297     313     297     298     299     302     299     300
     300     301     302     304     302     303     304     305
     304     306     306     308     306     307     308     309
     308     300     309     310     309     311     309     312
     313     315     313     316     313     314     316     318
     316     317     318     319     319     320     319     321
     319     322     322     323     323     326     323     324
     323     325     326     328     326     348     326     327
     328     329     329     331     329     345     329     330
     331     334     331     332     332     333     334     336
     334     335     336     337     336     338     338     340
     338     339     340     341     340     332     341     342
     341     343     341     344     345     347     345     348
     345     346     348     350     348     349     350     351
     351     352     351     353     351     354     354     355
     355     358     355     356     355     357     358     360
     358     380     358     359     360     361     361     363
     361     377     361     362     363     366     363     364
     364     365     366     368     366     367     368     369
     368     370     370     372     370     371     372     373
     372     364     373     374     373     375     373     376
     377     379     377     380     377     378     380     382
     380     381     382     383     383     384     383     385
     383     386     386     387     387     390     387     388
     387     389     390     392     390     412     390     391
     392     393     393     395     393     409     393     394
     395     398     395     396     396     397     398     400
     398     399     400     401     400     402     402     404
     402     403     404     405     404     396     405     406
     405     407     405     408     409     411     409     412
     409     410     412     414     412     413     414     415
     415     416     415     417     415     418     418     419
     419     422     419     420     419     421     422     424
     422     444     422     423     424     425     425     427
     425     441     425     426     427     430     427     428
     428     429     430     432     430     431     432     433
     432     434     434     436     434     435     436     437
     436     428     437     438     437     439     437     440
     441     443     441     444     441     442     444     446
     444     445     446     447     447     448     447     449
     447     450     450     451     451     454     451     452
     451     453     454     456     454     476     454     455
     456     457     457     459     457     473     457     458
     459     462     459     460     460     461     462     464
     462     463     464     465     464     466     466     468
     466     467     468     469     468     460     469     470
     469     471     469     472     473     475     473     476
     473     474     476     478     476     477     478     479
     479     480     479     481     479     482     482     483
     483     486     483     484     483     485     486     488
     486     508     486     487     488     489     489     491
     489     505     489     490     491     494     491     492
     492     493     494     496     494     495     496     497
     496     498     498     500     498     499     500     501
     500     492     501     502     501     503     501     504
     505     507     505     508     505     506     508     510
     508     509     510     511     511     512     511     513
     511     514     514     515     515     518     515     516
     515     517     518     520     518     540     518     519
     520     521     521     523     521     537     521     522
     523     526     523     524     524     525     526     528
     526     527     528     529     528     530     530     532
     530     531     532     533     532     524     533     534
     533     535     533     536     537     539     537     540
     537     538     540     542     540     541     542     543
     543     544     543     545     543     546     546     547
     547     550     547     548     547     549     550     552
     550     572     550     551     552     553     553     555
     553     569     553     554     555     558     555     556
     556     557     558     560     558     559     560     561
     560     562     562     564     562     563     564     565
     564     556     565     566     565     567     565     568
     569     571     569     572     569     570     572     574
     572     573     574     575     575     576     575     577
     575     578     578     579     579     582     579     580
     579     581     582     584     582     604     582     583
     584     585     585     587     585     601     585     586
     587     590     587     588     588     589     590     592
     590     591     592     593     592     594     594     596
     594     595     596     597     596     588     597     598
     597     599     597     600     601     603     601     604
     601     602     604     606     604     605     606     607
     607     608     607     609     607     610     610     611
     611     614     611     612     611     613     614     616
     614     636     614     615     616     617     617     619
     617     633     617     618     619     622     619     620
     620     621     622     624     622     623     624     625
     624     626     626     628     626     627     628     629
     628     620     629     630     629     631     629     632
     633     635     633     636     633     634     636     638
     636     637     638     639     639     640     639     641
     639     642     642     643     643     646     643     644
     643     645     646     648     646     668     646     647
     648     649     649     651     649     665     649     650
     651     654     651     652     652     653     654     656
     654     655     656     657     656     658     658     660
     658     659     660     661     660     652     661     662
     661     663     661     664     665     667     665     668
     665     666     668     670     668     669     670     671
     671     672     671     673     671     674     674     675
     675     678     675     676     675     677     678     680
     678     700     678     679     680     681     681     683
     681     697     681     682     683     686     683     684
     684     685     686     688     686     687     688     689
     688     690     690     692     690     691     692     693
     692     684     693     694     693     695     693     696
     697     699     697     700     697     698     700     702
     700     701     702     703     703     704     703     705
     703     706     706     707     707     710     707     708
     707     709     710     712     710     732     710     711
     712     713     713     715     713     729     713     714
     715     718     715     716     716     717     718     720
     718     719     720     721     720     722     722     724
     722     723     724     725     724     716     725     726
     725     727     725     728     729     731     729     732
     729     730     732     734     732     733     734     735
     735     736     735     737     735     738     738     739
     739     742     739     740     739     741     742     744
     742     764     742     743     744     745     745     747
     745     761     745     746     747     750     747     748
     748     749     750     752     750     751     752     753
     752     754     754     756     754     755     756     757
     756     748     757     758     757     759     757     760
     761     763     761     764     761     762     764     766
     764     765     766     767     767     768     767     769
     767     770     770     771     771     774     771     772
     771     773     774     776     774     796     774     775
     776     777     777     779     777     793     777     778
     779     782     779     780     780     781     782     784
     782     783     784     785     784     786     786     788
     786     787     788     789     788     780     789     790
     789     791     789     792     793     795     793     796
     793     794     796     798     796     797     798     799
     799     800     799     801     799     802     802     803
     803     806     803     804     803     805     806     808
     806     828     806     807     808     809     809     811
     809     825     809     810     811     814     811     812
     812     813     814     816     814     815     816     817
     816     818     818     820     818     819     820     821
     820     812     821     822     821     823     821     824
     825     827     825     828     825     826     828     830
     828     829     830     831     831     832     831     833
     831     834     834     835     835     838     835     836
     835     837     838     840     838     860     838     839
     840     841     841     843     841     857     841     842
     843     846     843     844     844     845     846     848
     846     847     848     849     848     850     850     852
     850     851     852     853     852     844     853     854
     853     855     853     856     857     859     857     860
     857     858     860     862     860     861     862     863
     863     864     863     865     863     866     866     867
     867     870     867     868     867     869     870     872
     870     892     870     871     872     873     873     875
     873     889     873     874     875     878     875     876
     876     877     878     880     878     879     880     881
     880     882     882     884     882     883     884     885
     884     876     885     886     885     887     885     888
     889     891     889     892     889     890     892     894
     892     893     894     895     895     896     895     897
     895     898     898     899     899     902     899     900
     899     901     902     904     902     924     902     903
     904     905     905     907     905     921     905     906
     907     910     907     908     908     909     910     912
     910     911     912     913     912     914     914     916
     914     915     916     917     916     908     917     918
     917     919     917     920     921     923     921     924
     921     922     924     926     924     925     926     927
     927     928     927     929     927     930     930     931
     931     934     931     932     931     933     934     936
     934     956     934     935     936     937     937     939
     937     953     937     938     939     942     939     940
     940     941     942     944     942     943     944     945
     944     946     946     948     946     947     948     949
     948     940     949     950     949     951     949     952
     953     955     953     956     953     954     956     958
     956     957     958     959     959     960     959     961
     959     962     962     963     963     966     963     964
     963     965     966     968     966     988     966     967
     968     969     969     971     969     985     969     970
     971     974     971     972     972     973     974     976
     974     975     976     977     976     978     978     980
     978     979     980     981     980     972     981     982
     981     983     981     984     985     987     985     988
     985     986     988     990     988     989     990     991
     991     992     991     993     991     994     994     995
     995     998     995     996     995     997     998    1000
     998    1020     998     999    1000    1001    1001    1003
    1001    1017    1001    1002    1003    1006    1003    1004
    1004    1005    1006    1008    1006    1007    1008    1009
    1008    1010    1010    1012    1010    1011    1012    1013
    1012    1004    1013    1014    1013    1015    1013    1016
    1017    1019    1017    1020    1017    1018    1020    1022
    1020    1021    1022    1023    1023    1024    1023    1025
    1023    1026    1026    1027    1027    1030    1027    1028
    1027    1029    1030    1032    1030    1052    1030    1031
    1032    1033    1033    1035    1033    1049    1033    1034
    1035    1038    1035    1036    1036    1037    1038    1040
    1038    1039    1040    1041    1040    1042    1042    1044
    1042    1043    1044    1045    1044    1036    1045    1046
    1045    1047    1045    1048    1049    1051    1049    1052
    1049    1050    1052    1054    1052    1053    1054    1055
    1055    1056    1055    1057    1055    1058    1058    1059
    1059    1062    1059    1060    1059    1061    1062    1064
    1062    1084    1062    1063    1064    1065    1065    1067
    1065    1081    1065    1066    1067    1070    1067    1068
    1068    1069    1070    1072    1070    1071    1072    1073
    1072    1074    1074    1076    1074    1075    1076    1077
    1076    1068    1077    1078    1077    1079    1077    1080
    1081    1083    1081    1084    1081    1082    1084    1086
    1084    1085    1086    1087    1087    1088    1087    1089
    1087    1090    1090    1091    1091    1094    1091    1092
    1091    1093    1094    1096    1094    1116    1094    1095
    1096    1097    1097    1099    1097    1113    1097    1098
    1099    1102    1099    1100    1100    1101    1102    1104
    1102    1103    1104    1105    1104    1106    1106    1108
    1106    1107    1108    1109    1108    1100    1109    1110
    1109    1111    1109    1112    1113    1115    1113    1116
    1113    1114    1116    1118    1116    1117    1118    1119
    1119    1120    1119    1121    1119    1122    1122    1123
    1123    1126    1123    1124    1123    1125    1126    1128
    1126    1148    1126    1127    1128    1129    1129    1131
    1129    1145    1129    1130    1131    1134    1131    1132
    1132    1133    1134    1136    1134    1135    1136    1137
    1136    1138    1138    1140    1138    1139    1140    1141
    1140    1132    1141    1142    1141    1143    1141    1144
    1145    1147    1145    1148    1145    1146    1148    1150
    1148    1149    1150    1151    1151    1152    1151    1153
    1151    1154    1154    1155    1155    1158    1155    1156
    1155    1157    1158    1160    1158    1180    1158    1159
    1160    1161    1161    1163    1161    1177    1161    1162
    1163    1166    1163    1164    1164    1165    1166    1168
    1166    1167    1168    1169    1168    1170    1170    1172
    1170    1171    1172    1173    1172    1164    1173    1174
    1173    1175    1173    1176    1177    1179    1177    1180
    1177    1178    1180    1182    1180    1181    1182    1183
    1183    1184    1183    1185    1183    1186    1186    1187
    1187    1190    1187    1188    1187    1189    1190    1192
    1190    1212    1190    1191    1192    1193    1193    1195
    1193    1209    1193    1194    1195    1198    1195    1196
    1196    1197    1198    1200    1198    1199    1200    1201
    1200    1202    1202    1204    1202    1203    1204    1205
    1204    1196    1205    1206    1205    1207    1205    1208
    1209    1211    1209    1212    1209    1210    1212    1214
    1212    1213    1214    1215    1215    1216    1215    1217
    1215    1218    1218    1219    1219    1222    1219    1220
    1219    1221    1222    1224    1222    1244    1222    1223
    1224    1225    1225    1227    1225    1241    1225    1226
    1227    1230    1227    1228    1228    1229    1230    1232
    1230    1231    1232    1233    1232    1234    1234    1236
    1234    1235    1236    1237    1236    1228    1237    1238
    1237    1239    1237    1240    1241    1243    1241    1244
    1241    1242    1244    1246    1244    1245    1246    1247
    1247    1248    1247    1249    1247    1250    1250    1251
    1251    1254    1251    1252    1251    1253    1254    1256
    1254    1276    1254    1255    1256    1257    1257    1259
    1257    1273    1257    1258    1259    1262    1259    1260
    1260    1261    1262    1264    1262    1263    1264    1265
    1264    1266    1266    1268    1266    1267    1268    1269
    1268    1260    1269    1270    1269    1271    1269    1272
    1273    1275    1273    1276    1273    1274    1276    1278
    1276    1277    1278    1279

    2514 !NTHETA: angles
       1       2       3       2       3       5       2       3       4
       2       3       6       3       6       7       3       6      28
       3       6       8       4       3       5       6      28      29
       6      28      30       6      28      25       6       8       9
       6       3       5       6       3       4       8       9      10
       8       9      25       8       9      11       8       6       7
       8       6      28       9      25      26       9      25      28
       9      11      12       9      11      14      11      14      15
      11      14      16      11      12      20      11      12      13
      11       9      10      11       9      25      13      12      20
      14      16      18      14      16      17      14      11      12
      16      18      19      16      18      20      16      14      15
      17      16      18      18      20      12      18      20      21
      20      21      24      20      21      23      20      21      22
      20      18      19      21      20      12      22      21      24
      22      21      23      23      21      24      25      28      29
      25      28      30      25       9      10      27      25      26
      27      25      28      27      25       9      28      30      31
      28      25      26      28       6       7      30      28      29
      31      34      35      32      31      30      32      31      34
      32      31      33      33      31      30      33      31      34
      34      35      37      34      35      36      34      35      38
      34      31      30      35      38      39      35      38      60
      35      38      40      36      35      37      38      60      61
      38      60      62      38      60      57      38      40      41
      38      35      37      38      35      36      40      41      42
      40      41      57      40      41      43      40      38      39
      40      38      60      41      57      58      41      57      60
      41      43      44      41      43      46      43      46      47
      43      46      48      43      44      52      43      44      45
      43      41      42      43      41      57      45      44      52
      46      48      50      46      48      49      46      43      44
      48      50      51      48      50      52      48      46      47
      49      48      50      50      52      44      50      52      53
      52      53      56      52      53      55      52      53      54
      52      50      51      53      52      44      54      53      56
      54      53      55      55      53      56      57      60      61
      57      60      62      57      41      42      59      57      58
      59      57      60      59      57      41      60      62      63
      60      57      58      60      38      39      62      60      61
      63      66      67      64      63      62      64      63      66
      64      63      65      65      63      62      65      63      66
      66      67      69      66      67      68      66      67      70
      66      63      62      67      70      71      67      70      92
      67      70      72      68      67      69      70      92      93
      70      92      94      70      92      89      70      72      73
      70      67      69      70      67      68      72      73      74
      72      73      89      72      73      75      72      70      71
      72      70      92      73      89      90      73      89      92
      73      75      76      73      75      78      75      78      79
      75      78      80      75      76      84      75      76      77
      75      73      74      75      73      89      77      76      84
      78      80      82      78      80      81      78      75      76
      80      82      83      80      82      84      80      78      79
      81      80      82      82      84      76      82      84      85
      84      85      88      84      85      87      84      85      86
      84      82      83      85      84      76      86      85      88
      86      85      87      87      85      88      89      92      93
      89      92      94      89      73      74      91      89      90
      91      89      92      91      89      73      92      94      95
      92      89      90      92      70      71      94      92      93
      95      98      99      96      95      94      96      95      98
      96      95      97      97      95      94      97      95      98
      98      99     101      98      99     100      98      99     102
      98      95      94      99     102     103      99     102     124
      99     102     104     100      99     101     102     124     125
     102     124     126     102     124     121     102     104     105
     102      99     101     102      99     100     104     105     106
     104     105     121     104     105     107     104     102     103
     104     102     124     105     121     122     105     121     124
     105     107     108     105     107     110     107     110     111
     107     110     112     107     108     116     107     108     109
     107     105     106     107     105     121     109     108     116
     110     112     114     110     112     113     110     107     108
     112     114     115     112     114     116     112     110     111
     113     112     114     114     116     108     114     116     117
     116     117     120     116     117     119     116     117     118
     116     114     115     117     116     108     118     117     120
     118     117     119     119     117     120     121     124     125
     121     124     126     121     105     106     123     121     122
     123     121     124     123     121     105     124     126     127
     124     121     122     124     102     103     126     124     125
     127     130     131     128     127     126     128     127     130
     128     127     129     129     127     126     129     127     130
     130     131     133     130     131     132     130     131     134
     130     127     126     131     134     135     131     134     156
     131     134     136     132     131     133     134     156     157
     134     156     158     134     156     153     134     136     137
     134     131     133     134     131     132     136     137     138
     136     137     153     136     137     139     136     134     135
     136     134     156     137     153     154     137     153     156
     137     139     140     137     139     142     139     142     143
     139     142     144     139     140     148     139     140     141
     139     137     138     139     137     153     141     140     148
     142     144     146     142     144     145     142     139     140
     144     146     147     144     146     148     144     142     143
     145     144     146     146     148     140     146     148     149
     148     149     152     148     149     151     148     149     150
     148     146     147     149     148     140     150     149     152
     150     149     151     151     149     152     153     156     157
     153     156     158     153     137     138     155     153     154
     155     153     156     155     153     137     156     158     159
     156     153     154     156     134     135     158     156     157
     159     162     163     160     159     158     160     159     162
     160     159     161     161     159     158     161     159     162
     162     163     165     162     163     164     162     163     166
     162     159     158     163     166     167     163     166     188
     163     166     168     164     163     165     166     188     189
     166     188     190     166     188     185     166     168     169
     166     163     165     166     163     164     168     169     170
     168     169     185     168     169     171     168     166     167
     168     166     188     169     185     186     169     185     188
     169     171     172     169     171     174     171     174     175
     171     174     176     171     172     180     171     172     173
     171     169     170     171     169     185     173     172     180
     174     176     178     174     176     177     174     171     172
     176     178     179     176     178     180     176     174     175
     177     176     178     178     180     172     178     180     181
     180     181     184     180     181     183     180     181     182
     180     178     179     181     180     172     182     181     184
     182     181     183     183     181     184     185     188     189
     185     188     190     185     169     170     187     185     186
     187     185     188     187     185     169     188     190     191
     188     185     186     188     166     167     190     188     189
     191     194     195     192     191     190     192     191     194
     192     191     193     193     191     190     193     191     194
     194     195     197     194     195     196     194     195     198
     194     191     190     195     198     199     195     198     220
     195     198     200     196     195     197     198     220     221
     198     220     222     198     220     217     198     200     201
     198     195     197     198     195     196     200     201     202
     200     201     217     200     201     203     200     198     199
     200     198     220     201     217     218     201     217     220
     201     203     204     201     203     206     203     206     207
     203     206     208     203     204     212     203     204     205
     203     201     202     203     201     217     205     204     212
     206     208     210     206     208     209     206     203     204
     208     210     211     208     210     212     208     206     207
     209     208     210     210     212     204     210     212     213
     212     213     216     212     213     215     212     213     214
     212     210     211     213     212     204     214     213     216
     214     213     215     215     213     216     217     220     221
     217     220     222     217     201     202     219     217     218
     219     217     220     219     217     201     220     222     223
     220     217     218     220     198     199     222     220     221
     223     226     227     224     223     222     224     223     226
     224     223     225     225     223     222     225     223     226
     226     227     229     226     227     228     226     227     230
     226     223     222     227     230     231     227     230     252
     227     230     232     228     227     229     230     252     253
     230     252     254     230     252     249     230     232     233
     230     227     229     230     227     228     232     233     234
     232     233     249     232     233     235     232     230     231
     232     230     252     233     249     250     233     249     252
     233     235     236     233     235     238     235     238     239
     235     238     240     235     236     244     235     236     237
     235     233     234     235     233     249     237     236     244
     238     240     242     238     240     241     238     235     236
     240     242     243     240     242     244     240     238     239
     241     240     242     242     244     236     242     244     245
     244     245     248     244     245     247     244     245     246
     244     242     243     245     244     236     246     245     248
     246     245     247     247     245     248     249     252     253
     249     252     254     249     233     234     251     249     250
     251     249     252     251     249     233     252     254     255
     252     249     250     252     230     231     254     252     253
     255     258     259     256     255     254     256     255     258
     256     255     257     257     255     254     257     255     258
     258     259     261     258     259     260     258     259     262
     258     255     254     259     262     263     259     262     284
     259     262     264     260     259     261     262     284     285
     262     284     286     262     284     281     262     264     265
     262     259     261     262     259     260     264     265     266
     264     265     281     264     265     267     264     262     263
     264     262     284     265     281     282     265     281     284
     265     267     268     265     267     270     267     270     271
     267     270     272     267     268     276     267     268     269
     267     265     266     267     265     281     269     268     276
     270     272     274     270     272     273     270     267     268
     272     274     275     272     274     276     272     270     271
     273     272     274     274     276     268     274     276     277
     276     277     280     276     277     279     276     277     278
     276     274     275     277     276     268     278     277     280
     278     277     279     279     277     280     281     284     285
     281     284     286     281     265     266     283     281     282
     283     281     284     283     281     265     284     286     287
     284     281     282     284     262     263     286     284     285
     287     290     291     288     287     286     288     287     290
     288     287     289     289     287     286     289     287     290
     290     291     293     290     291     292     290     291     294
     290     287     286     291     294     295     291     294     316
     291     294     296     292     291     293     294     316     317
     294     316     318     294     316     313     294     296     297
     294     291     293     294     291     292     296     297     298
     296     297     313     296     297     299     296     294     295
     296     294     316     297     313     314     297     313     316
     297     299     300     297     299     302     299     302     303
     299     302     304     299     300     308     299     300     301
     299     297     298     299     297     313     301     300     308
     302     304     306     302     304     305     302     299     300
     304     306     307     304     306     308     304     302     303
     305     304     306     306     308     300     306     308     309
     308     309     312     308     309     311     308     309     310
     308     306     307     309     308     300     310     309     312
     310     309     311     311     309     312     313     316     317
     313     316     318     313     297     298     315     313     314
     315     313     316     315     313     297     316     318     319
     316     313     314     316     294     295     318     316     317
     319     322     323     320     319     318     320     319     322
     320     319     321     321     319     318     321     319     322
     322     323     325     322     323     324     322     323     326
     322     319     318     323     326     327     323     326     348
     323     326     328     324     323     325     326     348     349
     326     348     350     326     348     345     326     328     329
     326     323     325     326     323     324     328     329     330
     328     329     345     328     329     331     328     326     327
     328     326     348     329     345     346     329     345     348
     329     331     332     329     331     334     331     334     335
     331     334     336     331     332     340     331     332     333
     331     329     330     331     329     345     333     332     340
     334     336     338     334     336     337     334     331     332
     336     338     339     336     338     340     336     334     335
     337     336     338     338     340     332     338     340     341
     340     341     344     340     341     343     340     341     342
     340     338     339     341     340     332     342     341     344
     342     341     343     343     341     344     345     348     349
     345     348     350     345     329     330     347     345     346
     347     345     348     347     345     329     348     350     351
     348     345     346     348     326     327     350     348     349
     351     354     355     352     351     350     352     351     354
     352     351     353     353     351     350     353     351     354
     354     355     357     354     355     356     354     355     358
     354     351     350     355     358     359     355     358     380
     355     358     360     356     355     357     358     380     381
     358     380     382     358     380     377     358     360     361
     358     355     357     358     355     356     360     361     362
     360     361     377     360     361     363     360     358     359
     360     358     380     361     377     378     361     377     380
     361     363     364     361     363     366     363     366     367
     363     366     368     363     364     372     363     364     365
     363     361     362     363     361     377     365     364     372
     366     368     370     366     368     369     366     363     364
     368     370     371     368     370     372     368     366     367
     369     368     370     370     372     364     370     372     373
     372     373     376     372     373     375     372     373     374
     372     370     371     373     372     364     374     373     376
     374     373     375     375     373     376     377     380     381
     377     380     382     377     361     362     379     377     378
     379     377     380     379     377     361     380     382     383
     380     377     378     380     358     359     382     380     381
     383     386     387     384     383     382     384     383     386
     384     383     385     385     383     382     385     383     386
     386     387     389     386     387     388     386     387     390
     386     383     382     387     390     391     387     390     412
     387     390     392     388     387     389     390     412     413
     390     412     414     390     412     409     390     392     393
     390     387     389     390     387     388     392     393     394
     392     393     409     392     393     395     392     390     391
     392     390     412     393     409     410     393     409     412
     393     395     396     393     395     398     395     398     399
     395     398     400     395     396     404     395     396     397
     395     393     394     395     393     409     397     396     404
     398     400     402     398     400     401     398     395     396
     400     402     403     400     402     404     400     398     399
     401     400     402     402     404     396     402     404     405
     404     405     408     404     405     407     404     405     406
     404     402     403     405     404     396     406     405     408
     406     405     407     407     405     408     409     412     413
     409     412     414     409     393     394     411     409     410
     411     409     412     411     409     393     412     414     415
     412     409     410     412     390     391     414     412     413
     415     418     419     416     415     414     416     415     418
     416     415     417     417     415     414     417     415     418
     418     419     421     418     419     420     418     419     422
     418     415     414     419     422     423     419     422     444
     419     422     424     420     419     421     422     444     445
     422     444     446     422     444     441     422     424     425
     422     419     421     422     419     420     424     425     426
     424     425     441     424     425     427     424     422     423
     424     422     444     425     441     442     425     441     444
     425     427     428     425     427     430     427     430     431
     427     430     432     427     428     436     427     428     429
     427     425     426     427     425     441     429     428     436
     430     432     434     430     432     433     430     427     428
     432     434     435     432     434     436     432     430     431
     433     432     434     434     436     428     434     436     437
     436     437     440     436     437     439     436     437     438
     436     434     435     437     436     428     438     437     440
     438     437     439     439     437     440     441     444     445
     441     444     446     441     425     426     443     441     442
     443     441     444     443     441     425     444     446     447
     444     441     442     444     422     423     446     444     445
     447     450     451     448     447     446     448     447     450
     448     447     449     449     447     446     449     447     450
     450     451     453     450     451     452     450     451     454
     450     447     446     451     454     455     451     454     476
     451     454     456     452     451     453     454     476     477
     454     476     478     454     476     473     454     456     457
     454     451     453     454     451     452     456     457     458
     456     457     473     456     457     459     456     454     455
     456     454     476     457     473     474     457     473     476
     457     459     460     457     459     462     459     462     463
     459     462     464     459     460     468     459     460     461
     459     457     458     459     457     473     461     460     468
     462     464     466     462     464     465     462     459     460
     464     466     467     464     466     468     464     462     463
     465     464     466     466     468     460     466     468     469
     468     469     472     468     469     471     468     469     470
     468     466     467     469     468     460     470     469     472
     470     469     471     471     469     472     473     476     477
     473     476     478     473     457     458     475     473     474
     475     473     476     475     473     457     476     478     479
     476     473     474     476     454     455     478     476     477
     479     482     483     480     479     478     480     479     482
     480     479     481     481     479     478     481     479     482
     482     483     485     482     483     484     482     483     486
     482     479     478     483     486     487     483     486     508
     483     486     488     484     483     485     486     508     509
     486     508     510     486     508     505     486     488     489
     486     483     485     486     483     484     488     489     490
     488     489     505     488     489     491     488     486     487
     488     486     508     489     505     506     489     505     508
     489     491     492     489     491     494     491     494     495
     491     494     496     491     492     500     491     492     493
     491     489     490     491     489     505     493     492     500
     494     496     498     494     496     497     494     491     492
     496     498     499     496     498     500     496     494     495
     497     496     498     498     500     492     498     500     501
     500     501     504     500     501     503     500     501     502
     500     498     499     501     500     492     502     501     504
     502     501     503     503     501     504     505     508     509
     505     508     510     505     489     490     507     505     506
     507     505     508     507     505     489     508     510     511
     508     505     506     508     486     487     510     508     509
     511     514     515     512     511     510     512     511     514
     512     511     513     513     511     510     513     511     514
     514     515     517     514     515     516     514     515     518
     514     511     510     515     518     519     515     518     540
     515     518     520     516     515     517     518     540     541
     518     540     542     518     540     537     518     520     521
     518     515     517     518     515     516     520     521     522
     520     521     537     520     521     523     520     518     519
     520     518     540     521     537     538     521     537     540
     521     523     524     521     523     526     523     526     527
     523     526     528     523     524     532     523     524     525
     523     521     522     523     521     537     525     524     532
     526     528     530     526     528     529     526     523     524
     528     530     531     528     530     532     528     526     527
     529     528     530     530     532     524     530     532     533
     532     533     536     532     533     535     532     533     534
     532     530     531     533     532     524     534     533     536
     534     533     535     535     533     536     537     540     541
     537     540     542     537     521     522     539     537     538
     539     537     540     539     537     521     540     542     543
     540     537     538     540     518     519     542     540     541
     543     546     547     544     543     542     544     543     546
     544     543     545     545     543     542     545     543     546
     546     547     549     546     547     548     546     547     550
     546     543     542     547     550     551     547     550     572
     547     550     552     548     547     549     550     572     573
     550     572     574     550     572     569     550     552     553
     550     547     549     550     547     548     552     553     554
     552     553     569     552     553     555     552     550     551
     552     550     572     553     569     570     553     569     572
     553     555     556     553     555     558     555     558     559
     555     558     560     555     556     564     555     556     557
     555     553     554     555     553     569     557     556     564
     558     560     562     558     560     561     558     555     556
     560     562     563     560     562     564     560     558     559
     561     560     562     562     564     556     562     564     565
     564     565     568     564     565     567     564     565     566
     564     562     563     565     564     556     566     565     568
     566     565     567     567     565     568     569     572     573
     569     572     574     569     553     554     571     569     570
     571     569     572     571     569     553     572     574     575
     572     569     570     572     550     551     574     572     573
     575     578     579     576     575     574     576     575     578
     576     575     577     577     575     574     577     575     578
     578     579     581     578     579     580     578     579     582
     578     575     574     579     582     583     579     582     604
     579     582     584     580     579     581     582     604     605
     582     604     606     582     604     601     582     584     585
     582     579     581     582     579     580     584     585     586
     584     585     601     584     585     587     584     582     583
     584     582     604     585     601     602     585     601     604
     585     587     588     585     587     590     587     590     591
     587     590     592     587     588     596     587     588     589
     587     585     586     587     585     601     589     588     596
     590     592     594     590     592     593     590     587     588
     592     594     595     592     594     596     592     590     591
     593     592     594     594     596     588     594     596     597
     596     597     600     596     597     599     596     597     598
     596     594     595     597     596     588     598     597     600
     598     597     599     599     597     600     601     604     605
     601     604     606     601     585     586     603     601     602
     603     601     604     603     601     585     604     606     607
     604     601     602     604     582     583     606     604     605
     607     610     611     608     607     606     608     607     610
     608     607     609     609     607     606     609     607     610
     610     611     613     610     611     612     610     611     614
     610     607     606     611     614     615     611     614     636
     611     614     616     612     611     613     614     636     637
     614     636     638     614     636     633     614     616     617
     614     611     613     614     611     612     616     617     618
     616     617     633     616     617     619     616     614     615
     616     614     636     617     633     634     617     633     636
     617     619     620     617     619     622     619     622     623
     619     622     624     619     620     628     619     620     621
     619     617     618     619     617     633     621     620     628
     622     624     626     622     624     625     622     619     620
     624     626     627     624     626     628     624     622     623
     625     624     626     626     628     620     626     628     629
     628     629     632     628     629     631     628     629     630
     628     626     627     629     628     620     630     629     632
     630     629     631     631     629     632     633     636     637
     633     636     638     633     617     618     635     633     634
     635     633     636     635     633     617     636     638     639
     636     633     634     636     614     615     638     636     637
     639     642     643     640     639     638     640     639     642
     640     639     641     641     639     638     641     639     642
     642     643     645     642     643     644     642     643     646
     642     639     638     643     646     647     643     646     668
     643     646     648     644     643     645     646     668     669
     646     668     670     646     668     665     646     648     649
     646     643     645     646     643     644     648     649     650
     648     649     665     648     649     651     648     646     647
     648     646     668     649     665     666     649     665     668
     649     651     652     649     651     654     651     654     655
     651     654     656     651     652     660     651     652     653
     651     649     650     651     649     665     653     652     660
     654     656     658     654     656     657     654     651     652
     656     658     659     656     658     660     656     654     655
     657     656     658     658     660     652     658     660     661
     660     661     664     660     661     663     660     661     662
     660     658     659     661     660     652     662     661     664
     662     661     663     663     661     664     665     668     669
     665     668     670     665     649     650     667     665     666
     667     665     668     667     665     649     668     670     671
     668     665     666     668     646     647     670     668     669
     671     674     675     672     671     670     672     671     674
     672     671     673     673     671     670     673     671     674
     674     675     677     674     675     676     674     675     678
     674     671     670     675     678     679     675     678     700
     675     678     680     676     675     677     678     700     701
     678     700     702     678     700     697     678     680     681
     678     675     677     678     675     676     680     681     682
     680     681     697     680     681     683     680     678     679
     680     678     700     681     697     698     681     697     700
     681     683     684     681     683     686     683     686     687
     683     686     688     683     684     692     683     684     685
     683     681     682     683     681     697     685     684     692
     686     688     690     686     688     689     686     683     684
     688     690     691     688     690     692     688     686     687
     689     688     690     690     692     684     690     692     693
     692     693     696     692     693     695     692     693     694
     692     690     691     693     692     684     694     693     696
     694     693     695     695     693     696     697     700     701
     697     700     702     697     681     682     699     697     698
     699     697     700     699     697     681     700     702     703
     700     697     698     700     678     679     702     700     701
     703     706     707     704     703     702     704     703     706
     704     703     705     705     703     702     705     703     706
     706     707     709     706     707     708     706     707     710
     706     703     702     707     710     711     707     710     732
     707     710     712     708     707     709     710     732     733
     710     732     734     710     732     729     710     712     713
     710     707     709     710     707     708     712     713     714
     712     713     729     712     713     715     712     710     711
     712     710     732     713     729     730     713     729     732
     713     715     716     713     715     718     715     718     719
     715     718     720     715     716     724     715     716     717
     715     713     714     715     713     729     717     716     724
     718     720     722     718     720     721     718     715     716
     720     722     723     720     722     724     720     718     719
     721     720     722     722     724     716     722     724     725
     724     725     728     724     725     727     724     725     726
     724     722     723     725     724     716     726     725     728
     726     725     727     727     725     728     729     732     733
     729     732     734     729     713     714     731     729     730
     731     729     732     731     729     713     732     734     735
     732     729     730     732     710     711     734     732     733
     735     738     739     736     735     734     736     735     738
     736     735     737     737     735     734     737     735     738
     738     739     741     738     739     740     738     739     742
     738     735     734     739     742     743     739     742     764
     739     742     744     740     739     741     742     764     765
     742     764     766     742     764     761     742     744     745
     742     739     741     742     739     740     744     745     746
     744     745     761     744     745     747     744     742     743
     744     742     764     745     761     762     745     761     764
     745     747     748     745     747     750     747     750     751
     747     750     752     747     748     756     747     748     749
     747     745     746     747     745     761     749     748     756
     750     752     754     750     752     753     750     747     748
     752     754     755     752     754     756     752     750     751
     753     752     754     754     756     748     754     756     757
     756     757     760     756     757     759     756     757     758
     756     754     755     757     756     748     758     757     760
     758     757     759     759     757     760     761     764     765
     761     764     766     761     745     746     763     761     762
     763     761     764     763     761     745     764     766     767
     764     761     762     764     742     743     766     764     765
     767     770     771     768     767     766     768     767     770
     768     767     769     769     767     766     769     767     770
     770     771     773     770     771     772     770     771     774
     770     767     766     771     774     775     771     774     796
     771     774     776     772     771     773     774     796     797
     774     796     798     774     796     793     774     776     777
     774     771     773     774     771     772     776     777     778
     776     777     793     776     777     779     776     774     775
     776     774     796     777     793     794     777     793     796
     777     779     780     777     779     782     779     782     783
     779     782     784     779     780     788     779     780     781
     779     777     778     779     777     793     781     780     788
     782     784     786     782     784     785     782     779     780
     784     786     787     784     786     788     784     782     783
     785     784     786     786     788     780     786     788     789
     788     789     792     788     789     791     788     789     790
     788     786     787     789     788     780     790     789     792
     790     789     791     791     789     792     793     796     797
     793     796     798     793     777     778     795     793     794
     795     793     796     795     793     777     796     798     799
     796     793     794     796     774     775     798     796     797
     799     802     803     800     799     798     800     799     802
     800     799     801     801     799     798     801     799     802
     802     803     805     802     803     804     802     803     806
     802     799     798     803     806     807     803     806     828
     803     806     808     804     803     805     806     828     829
     806     828     830     806     828     825     806     808     809
     806     803     805     806     803     804     808     809     810
     808     809     825     808     809     811     808     806     807
     808     806     828     809     825     826     809     825     828
     809     811     812     809     811     814     811     814     815
     811     814     816     811     812     820     811     812     813
     811     809     810     811     809     825     813     812     820
     814     816     818     814     816     817     814     811     812
     816     818     819     816     818     820     816     814     815
     817     816     818     818     820     812     818     820     821
     820     821     824     820     821     823     820     821     822
     820     818     819     821     820     812     822     821     824
     822     821     823     823     821     824     825     828     829
     825     828     830     825     809     810     827     825     826
     827     825     828     827     825     809     828     830     831
     828     825     826     828     806     807     830     828     829
     831     834     835     832     831     830     832     831     834
     832     831     833     833     831     830     833     831     834
     834     835     837     834     835     836     834     835     838
     834     831     830     835     838     839     835     838     860
     835     838     840     836     835     837     838     860     861
     838     860     862     838     860     857     838     840     841
     838     835     837     838     835     836     840     841     842
     840     841     857     840     841     843     840     838     839
     840     838     860     841     857     858     841     857     860
     841     843     844     841     843     846     843     846     847
     843     846     848     843     844     852     843     844     845
     843     841     842     843     841     857     845     844     852
     846     848     850     846     848     849     846     843     844
     848     850     851     848     850     852     848     846     847
     849     848     850     850     852     844     850     852     853
     852     853     856     852     853     855     852     853     854
     852     850     851     853     852     844     854     853     856
     854     853     855     855     853     856     857     860     861
     857     860     862     857     841     842     859     857     858
     859     857     860     859     857     841     860     862     863
     860     857     858     860     838     839     862     860     861
     863     866     867     864     863     862     864     863     866
     864     863     865     865     863     862     865     863     866
     866     867     869     866     867     868     866     867     870
     866     863     862     867     870     871     867     870     892
     867     870     872     868     867     869     870     892     893
     870     892     894     870     892     889     870     872     873
     870     867     869     870     867     868     872     873     874
     872     873     889     872     873     875     872     870     871
     872     870     892     873     889     890     873     889     892
     873     875     876     873     875     878     875     878     879
     875     878     880     875     876     884     875     876     877
     875     873     874     875     873     889     877     876     884
     878     880     882     878     880     881     878     875     876
     880     882     883     880     882     884     880     878     879
     881     880     882     882     884     876     882     884     885
     884     885     888     884     885     887     884     885     886
     884     882     883     885     884     876     886     885     888
     886     885     887     887     885     888     889     892     893
     889     892     894     889     873     874     891     889     890
     891     889     892     891     889     873     892     894     895
     892     889     890     892     870     871     894     892     893
     895     898     899     896     895     894     896     895     898
     896     895     897     897     895     894     897     895     898
     898     899     901     898     899     900     898     899     902
     898     895     894     899     902     903     899     902     924
     899     902     904     900     899     901     902     924     925
     902     924     926     902     924     921     902     904     905
     902     899     901     902     899     900     904     905     906
     904     905     921     904     905     907     904     902     903
     904     902     924     905     921     922     905     921     924
     905     907     908     905     907     910     907     910     911
     907     910     912     907     908     916     907     908     909
     907     905     906     907     905     921     909     908     916
     910     912     914     910     912     913     910     907     908
     912     914     915     912     914     916     912     910     911
     913     912     914     914     916     908     914     916     917
     916     917     920     916     917     919     916     917     918
     916     914     915     917     916     908     918     917     920
     918     917     919     919     917     920     921     924     925
     921     924     926     921     905     906     923     921     922
     923     921     924     923     921     905     924     926     927
     924     921     922     924     902     903     926     924     925
     927     930     931     928     927     926     928     927     930
     928     927     929     929     927     926     929     927     930
     930     931     933     930     931     932     930     931     934
     930     927     926     931     934     935     931     934     956
     931     934     936     932     931     933     934     956     957
     934     956     958     934     956     953     934     936     937
     934     931     933     934     931     932     936     937     938
     936     937     953     936     937     939     936     934     935
     936     934     956     937     953     954     937     953     956
     937     939     940     937     939     942     939     942     943
     939     942     944     939     940     948     939     940     941
     939     937     938     939     937     953     941     940     948
     942     944     946     942     944     945     942     939     940
     944     946     947     944     946     948     944     942     943
     945     944     946     946     948     940     946     948     949
     948     949     952     948     949     951     948     949     950
     948     946     947     949     948     940     950     949     952
     950     949     951     951     949     952     953     956     957
     953     956     958     953     937     938     955     953     954
     955     953     956     955     953     937     956     958     959
     956     953     954     956     934     935     958     956     957
     959     962     963     960     959     958     960     959     962
     960     959     961     961     959     958     961     959     962
     962     963     965     962     963     964     962     963     966
     962     959     958     963     966     967     963     966     988
     963     966     968     964     963     965     966     988     989
     966     988     990     966     988     985     966     968     969
     966     963     965     966     963     964     968     969     970
     968     969     985     968     969     971     968     966     967
     968     966     988     969     985     986     969     985     988
     969     971     972     969     971     974     971     974     975
     971     974     976     971     972     980     971     972     973
     971     969     970     971     969     985     973     972     980
     974     976     978     974     976     977     974     971     972
     976     978     979     976     978     980     976     974     975
     977     976     978     978     980     972     978     980     981
     980     981     984     980     981     983     980     981     982
     980     978     979     981     980     972     982     981     984
     982     981     983     983     981     984     985     988     989
     985     988     990     985     969     970     987     985     986
     987     985     988     987     985     969     988     990     991
     988     985     986     988     966     967     990     988     989
     991     994     995     992     991     990     992     991     994
     992     991     993     993     991     990     993     991     994
     994     995     997     994     995     996     994     995     998
     994     991     990     995     998     999     995     998    1020
     995     998    1000     996     995     997     998    1020    1021
     998    1020    1022     998    1020    1017     998    1000    1001
     998     995     997     998     995     996    1000    1001    1002
    1000    1001    1017    1000    1001    1003    1000     998     999
    1000     998    1020    1001    1017    1018    1001    1017    1020
    1001    1003    1004    1001    1003    1006    1003    1006    1007
    1003    1006    1008    1003    1004    1012    1003    1004    1005
    1003    1001    1002    1003    1001    1017    1005    1004    1012
    1006    1008    1010    1006    1008    1009    1006    1003    1004
    1008    1010    1011    1008    1010    1012    1008    1006    1007
    1009    1008    1010    1010    1012    1004    1010    1012    1013
    1012    1013    1016    1012    1013    1015    1012    1013    1014
    1012    1010    1011    1013    1012    1004    1014    1013    1016
    1014    1013    1015    1015    1013    1016    1017    1020    1021
    1017    1020    1022    1017    1001    1002    1019    1017    1018
    1019    1017    1020    1019    1017    1001    1020    1022    1023
    1020    1017    1018    1020     998     999    1022    1020    1021
    1023    1026    1027    1024    1023    1022    1024    1023    1026
    1024    1023    1025    1025    1023    1022    1025    1023    1026
    1026    1027    1029    1026    1027    1028    1026    1027    1030
    1026    1023    1022    1027    1030    1031    1027    1030    1052
    1027    1030    1032    1028    1027    1029    1030    1052    1053
    1030    1052    1054    1030    1052    1049    1030    1032    1033
    1030    1027    1029    1030    1027    1028    1032    1033    1034
    1032    1033    1049    1032    1033    1035    1032    1030    1031
    1032    1030    1052    1033    1049    1050    1033    1049    1052
    1033    1035    1036    1033    1035    1038    1035    1038    1039
    1035    1038    1040    1035    1036    1044    1035    1036    1037
    1035    1033    1034    1035    1033    1049    1037    1036    1044
    1038    1040    1042    1038    1040    1041    1038    1035    1036
    1040    1042    1043    1040    1042    1044    1040    1038    1039
    1041    1040    1042    1042    1044    1036    1042    1044    1045
    1044    1045    1048    1044    1045    1047    1044    1045    1046
    1044    1042    1043    1045    1044    1036    1046    1045    1048
    1046    1045    1047    1047    1045    1048    1049    1052    1053
    1049    1052    1054    1049    1033    1034    1051    1049    1050
    1051    1049    1052    1051    1049    1033    1052    1054    1055
    1052    1049    1050    1052    1030    1031    1054    1052    1053
    1055    1058    1059    1056    1055    1054    1056    1055    1058
    1056    1055    1057    1057    1055    1054    1057    1055    1058
    1058    1059    1061    1058    1059    1060    1058    1059    1062
    1058    1055    1054    1059    1062    1063    1059    1062    1084
    1059    1062    1064    1060    1059    1061    1062    1084    1085
    1062    1084    1086    1062    1084    1081    1062    1064    1065
    1062    1059    1061    1062    1059    1060    1064    1065    1066
    1064    1065    1081    1064    1065    1067    1064    1062    1063
    1064    1062    1084    1065    1081    1082    1065    1081    1084
    1065    1067    1068    1065    1067    1070    1067    1070    1071
    1067    1070    1072    1067    1068    1076    1067    1068    1069
    1067    1065    1066    1067    1065    1081    1069    1068    1076
    1070    1072    1074    1070    1072    1073    1070    1067    1068
    1072    1074    1075    1072    1074    1076    1072    1070    1071
    1073    1072    1074    1074    1076    1068    1074    1076    1077
    1076    1077    1080    1076    1077    1079    1076    1077    1078
    1076    1074    1075    1077    1076    1068    1078    1077    1080
    1078    1077    1079    1079    1077    1080    1081    1084    1085
    1081    1084    1086    1081    1065    1066    1083    1081    1082
    1083    1081    1084    1083    1081    1065    1084    1086    1087
    1084    1081    1082    1084    1062    1063    1086    1084    1085
    1087    1090    1091    1088    1087    1086    1088    1087    1090
    1088    1087    1089    1089    1087    1086    1089    1087    1090
    1090    1091    1093    1090    1091    1092    1090    1091    1094
    1090    1087    1086    1091    1094    1095    1091    1094    1116
    1091    1094    1096    1092    1091    1093    1094    1116    1117
    1094    1116    1118    1094    1116    1113    1094    1096    1097
    1094    1091    1093    1094    1091    1092    1096    1097    1098
    1096    1097    1113    1096    1097    1099    1096    1094    1095
    1096    1094    1116    1097    1113    1114    1097    1113    1116
    1097    1099    1100    1097    1099    1102    1099    1102    1103
    1099    1102    1104    1099    1100    1108    1099    1100    1101
    1099    1097    1098    1099    1097    1113    1101    1100    1108
    1102    1104    1106    1102    1104    1105    1102    1099    1100
    1104    1106    1107    1104    1106    1108    1104    1102    1103
    1105    1104    1106    1106    1108    1100    1106    1108    1109
    1108    1109    1112    1108    1109    1111    1108    1109    1110
    1108    1106    1107    1109    1108    1100    1110    1109    1112
    1110    1109    1111    1111    1109    1112    1113    1116    1117
    1113    1116    1118    1113    1097    1098    1115    1113    1114
    1115    1113    1116    1115    1113    1097    1116    1118    1119
    1116    1113    1114    1116    1094    1095    1118    1116    1117
    1119    1122    1123    1120    1119    1118    1120    1119    1122
    1120    1119    1121    1121    1119    1118    1121    1119    1122
    1122    1123    1125    1122    1123    1124    1122    1123    1126
    1122    1119    1118    1123    1126    1127    1123    1126    1148
    1123    1126    1128    1124    1123    1125    1126    1148    1149
    1126    1148    1150    1126    1148    1145    1126    1128    1129
    1126    1123    1125    1126    1123    1124    1128    1129    1130
    1128    1129    1145    1128    1129    1131    1128    1126    1127
    1128    1126    1148    1129    1145    1146    1129    1145    1148
    1129    1131    1132    1129    1131    1134    1131    1134    1135
    1131    1134    1136    1131    1132    1140    1131    1132    1133
    1131    1129    1130    1131    1129    1145    1133    1132    1140
    1134    1136    1138    1134    1136    1137    1134    1131    1132
    1136    1138    1139    1136    1138    1140    1136    1134    1135
    1137    1136    1138    1138    1140    1132    1138    1140    1141
    1140    1141    1144    1140    1141    1143    1140    1141    1142
    1140    1138    1139    1141    1140    1132    1142    1141    1144
    1142    1141    1143    1143    1141    1144    1145    1148    1149
    1145    1148    1150    1145    1129    1130    1147    1145    1146
    1147    1145    1148    1147    1145    1129    1148    1150    1151
    1148    1145    1146    1148    1126    1127    1150    1148    1149
    1151    1154    1155    1152    1151    1150    1152    1151    1154
    1152    1151    1153    1153    1151    1150    1153    1151    1154
    1154    1155    1157    1154    1155    1156    1154    1155    1158
    1154    1151    1150    1155    1158    1159    1155    1158    1180
    1155    1158    1160    1156    1155    1157    1158    1180    1181
    1158    1180    1182    1158    1180    1177    1158    1160    1161
    1158    1155    1157    1158    1155    1156    1160    1161    1162
    1160    1161    1177    1160    1161    1163    1160    1158    1159
    1160    1158    1180    1161    1177    1178    1161    1177    1180
    1161    1163    1164    1161    1163    1166    1163    1166    1167
    1163    1166    1168    1163    1164    1172    1163    1164    1165
    1163    1161    1162    1163    1161    1177    1165    1164    1172
    1166    1168    1170    1166    1168    1169    1166    1163    1164
    1168    1170    1171    1168    1170    1172    1168    1166    1167
    1169    1168    1170    1170    1172    1164    1170    1172    1173
    1172    1173    1176    1172    1173    1175    1172    1173    1174
    1172    1170    1171    1173    1172    1164    1174    1173    1176
    1174    1173    1175    1175    1173    1176    1177    1180    1181
    1177    1180    1182    1177    1161    1162    1179    1177    1178
    1179    1177    1180    1179    1177    1161    1180    1182    1183
    1180    1177    1178    1180    1158    1159    1182    1180    1181
    1183    1186    1187    1184    1183    1182    1184    1183    1186
    1184    1183    1185    1185    1183    1182    1185    1183    1186
    1186    1187    1189    1186    1187    1188    1186    1187    1190
    1186    1183    1182    1187    1190    1191    1187    1190    1212
    1187    1190    1192    1188    1187    1189    1190    1212    1213
    1190    1212    1214    1190    1212    1209    1190    1192    1193
    1190    1187    1189    1190    1187    1188    1192    1193    1194
    1192    1193    1209    1192    1193    1195    1192    1190    1191
    1192    1190    1212    1193    1209    1210    1193    1209    1212
    1193    1195    1196    1193    1195    1198    1195    1198    1199
    1195    1198    1200    1195    1196    1204    1195    1196    1197
    1195    1193    1194    1195    1193    1209    1197    1196    1204
    1198    1200    1202    1198    1200    1201    1198    1195    1196
    1200    1202    1203    1200    1202    1204    1200    1198    1199
    1201    1200    1202    1202    1204    1196    1202    1204    1205
    1204    1205    1208    1204    1205    1207    1204    1205    1206
    1204    1202    1203    1205    1204    1196    1206    1205    1208
    1206    1205    1207    1207    1205    1208    1209    1212    1213
    1209    1212    1214    1209    1193    1194    1211    1209    1210
    1211    1209    1212    1211    1209    1193    1212    1214    1215
    1212    1209    1210    1212    1190    1191    1214    1212    1213
    1215    1218    1219    1216    1215    1214    1216    1215    1218
    1216    1215    1217    1217    1215    1214    1217    1215    1218
    1218    1219    1221    1218    1219    1220    1218    1219    1222
    1218    1215    1214    1219    1222    1223    1219    1222    1244
    1219    1222    1224    1220    1219    1221    1222    1244    1245
    1222    1244    1246    1222    1244    1241    1222    1224    1225
    1222    1219    1221    1222    1219    1220    1224    1225    1226
    1224    1225    1241    1224    1225    1227    1224    1222    1223
    1224    1222    1244    1225    1241    1242    1225    1241    1244
    1225    1227    1228    1225    1227    1230    1227    1230    1231
    1227    1230    1232    1227    1228    1236    1227    1228    1229
    1227    1225    1226    1227    1225    1241    1229    1228    1236
    1230    1232    1234    1230    1232    1233    1230    1227    1228
    1232    1234    1235    1232    1234    1236    1232    1230    1231
    1233    1232    1234    1234    1236    1228    1234    1236    1237
    1236    1237    1240    1236    1237    1239    1236    1237    1238
    1236    1234    1235    1237    1236    1228    1238    1237    1240
    1238    1237    1239    1239    1237    1240    1241    1244    1245
    1241    1244    1246    1241    1225    1226    1243    1241    1242
    1243    1241    1244    1243    1241    1225    1244    1246    1247
    1244    1241    1242    1244    1222    1223    1246    1244    1245
    1247    1250    1251    1248    1247    1246    1248    1247    1250
    1248    1247    1249    1249    1247    1246    1249    1247    1250
    1250    1251    1253    1250    1251    1252    1250    1251    1254
    1250    1247    1246    1251    1254    1255    1251    1254    1276
    1251    1254    1256    1252    1251    1253    1254    1276    1277
    1254    1276    1278    1254    1276    1273    1254    1256    1257
    1254    1251    1253    1254    1251    1252    1256    1257    1258
    1256    1257    1273    1256    1257    1259    1256    1254    1255
    1256    1254    1276    1257    1273    1274    1257    1273    1276
    1257    1259    1260    1257    1259    1262    1259    1262    1263
    1259    1262    1264    1259    1260    1268    1259    1260    1261
    1259    1257    1258    1259    1257    1273    1261    1260    1268
    1262    1264    1266    1262    1264    1265    1262    1259    1260
    1264    1266    1267    1264    1266    1268    1264    1262    1263
    1265    1264    1266    1266    1268    1260    1266    1268    1269
    1268    1269    1272    1268    1269    1271    1268    1269    1270
    1268    1266    1267    1269    1268    1260    1270    1269    1272
    1270    1269    1271    1271    1269    1272    1273    1276    1277
    1273    1276    1278    1273    1257    1258    1275    1273    1274
    1275    1273    1276    1275    1273    1257    1276    1273    1274
    1276    1254    1255    1278    1276    1277    1279    1278    1276

    3594 !NPHI: dihedrals
       1       2       3       6       1       2       3       4
       1       2       3       5       2       3       6       8
       2       3       6      28       2       3       6       7
       3       6       8       9       3       6      28      25
       3       6      28      30       3       6      28      29
       4       3       6       8       4       3       6      28
       4       3       6       7       5       3       6       8
       5       3       6      28       5       3       6       7
       6      28      25      27       6      28      25       9
       6      28      25      26       6      28      30      31
       6       8       9      11       6       8       9      25
       6       8       9      10       7       6       8       9
       7       6      28      25       7       6      28      30
       7       6      28      29       8       9      11      14
       8       9      11      12       8       9      25      27
       8       9      25      28       8       9      25      26
       8       6      28      25       8       6      28      30
       8       6      28      29       9      25      28      30
       9      25      28      29       9      11      14      16
       9      11      14      15       9      11      12      13
       9      11      12      20       9       8       6      28
      10       9      11      14      10       9      11      12
      10       9      25      27      10       9      25      28
      10       9      25      26      11      14      16      17
      11      14      16      18      11      12      20      18
      11      12      20      21      11       9      25      27
      11       9      25      28      11       9      25      26
      12      20      18      16      12      20      18      19
      12      20      21      22      12      20      21      23
      12      20      21      24      12      11       9      25
      12      11      14      16      12      11      14      15
      13      12      11      14      13      12      20      18
      13      12      20      21      14      16      18      20
      14      16      18      19      14      11       9      25
      14      11      12      20      15      14      16      17
      15      14      16      18      16      18      20      21
      17      16      18      20      17      16      18      19
      18      20      21      22      18      20      21      23
      18      20      21      24      19      18      20      21
      25      28      30      31      26      25      28      30
      26      25      28      29      27      25      28      30
      27      25      28      29      28      30      31      32
      28      30      31      33      28      30      31      34
      29      28      30      31      30      31      34      35
      31      34      35      38      31      34      35      36
      31      34      35      37      32      31      34      35
      33      31      34      35      34      35      38      40
      34      35      38      60      34      35      38      39
      35      38      40      41      35      38      60      57
      35      38      60      62      35      38      60      61
      36      35      38      40      36      35      38      60
      36      35      38      39      37      35      38      40
      37      35      38      60      37      35      38      39
      38      60      57      59      38      60      57      41
      38      60      57      58      38      60      62      63
      38      40      41      43      38      40      41      57
      38      40      41      42      39      38      40      41
      39      38      60      57      39      38      60      62
      39      38      60      61      40      41      43      46
      40      41      43      44      40      41      57      59
      40      41      57      60      40      41      57      58
      40      38      60      57      40      38      60      62
      40      38      60      61      41      57      60      62
      41      57      60      61      41      43      46      48
      41      43      46      47      41      43      44      45
      41      43      44      52      41      40      38      60
      42      41      43      46      42      41      43      44
      42      41      57      59      42      41      57      60
      42      41      57      58      43      46      48      49
      43      46      48      50      43      44      52      50
      43      44      52      53      43      41      57      59
      43      41      57      60      43      41      57      58
      44      52      50      48      44      52      50      51
      44      52      53      54      44      52      53      55
      44      52      53      56      44      43      41      57
      44      43      46      48      44      43      46      47
      45      44      43      46      45      44      52      50
      45      44      52      53      46      48      50      52
      46      48      50      51      46      43      41      57
      46      43      44      52      47      46      48      49
      47      46      48      50      48      50      52      53
      49      48      50      52      49      48      50      51
      50      52      53      54      50      52      53      55
      50      52      53      56      51      50      52      53
      57      60      62      63      58      57      60      62
      58      57      60      61      59      57      60      62
      59      57      60      61      60      62      63      64
      60      62      63      65      60      62      63      66
      61      60      62      63      62      63      66      67
      63      66      67      70      63      66      67      68
      63      66      67      69      64      63      66      67
      65      63      66      67      66      67      70      72
      66      67      70      92      66      67      70      71
      67      70      72      73      67      70      92      89
      67      70      92      94      67      70      92      93
      68      67      70      72      68      67      70      92
      68      67      70      71      69      67      70      72
      69      67      70      92      69      67      70      71
      70      92      89      91      70      92      89      73
      70      92      89      90      70      92      94      95
      70      72      73      75      70      72      73      89
      70      72      73      74      71      70      72      73
      71      70      92      89      71      70      92      94
      71      70      92      93      72      73      75      78
      72      73      75      76      72      73      89      91
      72      73      89      92      72      73      89      90
      72      70      92      89      72      70      92      94
      72      70      92      93      73      89      92      94
      73      89      92      93      73      75      78      80
      73      75      78      79      73      75      76      77
      73      75      76      84      73      72      70      92
      74      73      75      78      74      73      75      76
      74      73      89      91      74      73      89      92
      74      73      89      90      75      78      80      81
      75      78      80      82      75      76      84      82
      75      76      84      85      75      73      89      91
      75      73      89      92      75      73      89      90
      76      84      82      80      76      84      82      83
      76      84      85      86      76      84      85      87
      76      84      85      88      76      75      73      89
      76      75      78      80      76      75      78      79
      77      76      75      78      77      76      84      82
      77      76      84      85      78      80      82      84
      78      80      82      83      78      75      73      89
      78      75      76      84      79      78      80      81
      79      78      80      82      80      82      84      85
      81      80      82      84      81      80      82      83
      82      84      85      86      82      84      85      87
      82      84      85      88      83      82      84      85
      89      92      94      95      90      89      92      94
      90      89      92      93      91      89      92      94
      91      89      92      93      92      94      95      96
      92      94      95      97      92      94      95      98
      93      92      94      95      94      95      98      99
      95      98      99     102      95      98      99     100
      95      98      99     101      96      95      98      99
      97      95      98      99      98      99     102     104
      98      99     102     124      98      99     102     103
      99     102     104     105      99     102     124     121
      99     102     124     126      99     102     124     125
     100      99     102     104     100      99     102     124
     100      99     102     103     101      99     102     104
     101      99     102     124     101      99     102     103
     102     124     121     123     102     124     121     105
     102     124     121     122     102     124     126     127
     102     104     105     107     102     104     105     121
     102     104     105     106     103     102     104     105
     103     102     124     121     103     102     124     126
     103     102     124     125     104     105     107     110
     104     105     107     108     104     105     121     123
     104     105     121     124     104     105     121     122
     104     102     124     121     104     102     124     126
     104     102     124     125     105     121     124     126
     105     121     124     125     105     107     110     112
     105     107     110     111     105     107     108     109
     105     107     108     116     105     104     102     124
     106     105     107     110     106     105     107     108
     106     105     121     123     106     105     121     124
     106     105     121     122     107     110     112     113
     107     110     112     114     107     108     116     114
     107     108     116     117     107     105     121     123
     107     105     121     124     107     105     121     122
     108     116     114     112     108     116     114     115
     108     116     117     118     108     116     117     119
     108     116     117     120     108     107     105     121
     108     107     110     112     108     107     110     111
     109     108     107     110     109     108     116     114
     109     108     116     117     110     112     114     116
     110     112     114     115     110     107     105     121
     110     107     108     116     111     110     112     113
     111     110     112     114     112     114     116     117
     113     112     114     116     113     112     114     115
     114     116     117     118     114     116     117     119
     114     116     117     120     115     114     116     117
     121     124     126     127     122     121     124     126
     122     121     124     125     123     121     124     126
     123     121     124     125     124     126     127     128
     124     126     127     129     124     126     127     130
     125     124     126     127     126     127     130     131
     127     130     131     134     127     130     131     132
     127     130     131     133     128     127     130     131
     129     127     130     131     130     131     134     136
     130     131     134     156     130     131     134     135
     131     134     136     137     131     134     156     153
     131     134     156     158     131     134     156     157
     132     131     134     136     132     131     134     156
     132     131     134     135     133     131     134     136
     133     131     134     156     133     131     134     135
     134     156     153     155     134     156     153     137
     134     156     153     154     134     156     158     159
     134     136     137     139     134     136     137     153
     134     136     137     138     135     134     136     137
     135     134     156     153     135     134     156     158
     135     134     156     157     136     137     139     142
     136     137     139     140     136     137     153     155
     136     137     153     156     136     137     153     154
     136     134     156     153     136     134     156     158
     136     134     156     157     137     153     156     158
     137     153     156     157     137     139     142     144
     137     139     142     143     137     139     140     141
     137     139     140     148     137     136     134     156
     138     137     139     142     138     137     139     140
     138     137     153     155     138     137     153     156
     138     137     153     154     139     142     144     145
     139     142     144     146     139     140     148     146
     139     140     148     149     139     137     153     155
     139     137     153     156     139     137     153     154
     140     148     146     144     140     148     146     147
     140     148     149     150     140     148     149     151
     140     148     149     152     140     139     137     153
     140     139     142     144     140     139     142     143
     141     140     139     142     141     140     148     146
     141     140     148     149     142     144     146     148
     142     144     146     147     142     139     137     153
     142     139     140     148     143     142     144     145
     143     142     144     146     144     146     148     149
     145     144     146     148     145     144     146     147
     146     148     149     150     146     148     149     151
     146     148     149     152     147     146     148     149
     153     156     158     159     154     153     156     158
     154     153     156     157     155     153     156     158
     155     153     156     157     156     158     159     160
     156     158     159     161     156     158     159     162
     157     156     158     159     158     159     162     163
     159     162     163     166     159     162     163     164
     159     162     163     165     160     159     162     163
     161     159     162     163     162     163     166     168
     162     163     166     188     162     163     166     167
     163     166     168     169     163     166     188     185
     163     166     188     190     163     166     188     189
     164     163     166     168     164     163     166     188
     164     163     166     167     165     163     166     168
     165     163     166     188     165     163     166     167
     166     188     185     187     166     188     185     169
     166     188     185     186     166     188     190     191
     166     168     169     171     166     168     169     185
     166     168     169     170     167     166     168     169
     167     166     188     185     167     166     188     190
     167     166     188     189     168     169     171     174
     168     169     171     172     168     169     185     187
     168     169     185     188     168     169     185     186
     168     166     188     185     168     166     188     190
     168     166     188     189     169     185     188     190
     169     185     188     189     169     171     174     176
     169     171     174     175     169     171     172     173
     169     171     172     180     169     168     166     188
     170     169     171     174     170     169     171     172
     170     169     185     187     170     169     185     188
     170     169     185     186     171     174     176     177
     171     174     176     178     171     172     180     178
     171     172     180     181     171     169     185     187
     171     169     185     188     171     169     185     186
     172     180     178     176     172     180     178     179
     172     180     181     182     172     180     181     183
     172     180     181     184     172     171     169     185
     172     171     174     176     172     171     174     175
     173     172     171     174     173     172     180     178
     173     172     180     181     174     176     178     180
     174     176     178     179     174     171     169     185
     174     171     172     180     175     174     176     177
     175     174     176     178     176     178     180     181
     177     176     178     180     177     176     178     179
     178     180     181     182     178     180     181     183
     178     180     181     184     179     178     180     181
     185     188     190     191     186     185     188     190
     186     185     188     189     187     185     188     190
     187     185     188     189     188     190     191     192
     188     190     191     193     188     190     191     194
     189     188     190     191     190     191     194     195
     191     194     195     198     191     194     195     196
     191     194     195     197     192     191     194     195
     193     191     194     195     194     195     198     200
     194     195     198     220     194     195     198     199
     195     198     200     201     195     198     220     217
     195     198     220     222     195     198     220     221
     196     195     198     200     196     195     198     220
     196     195     198     199     197     195     198     200
     197     195     198     220     197     195     198     199
     198     220     217     219     198     220     217     201
     198     220     217     218     198     220     222     223
     198     200     201     203     198     200     201     217
     198     200     201     202     199     198     200     201
     199     198     220     217     199     198     220     222
     199     198     220     221     200     201     203     206
     200     201     203     204     200     201     217     219
     200     201     217     220     200     201     217     218
     200     198     220     217     200     198     220     222
     200     198     220     221     201     217     220     222
     201     217     220     221     201     203     206     208
     201     203     206     207     201     203     204     205
     201     203     204     212     201     200     198     220
     202     201     203     206     202     201     203     204
     202     201     217     219     202     201     217     220
     202     201     217     218     203     206     208     209
     203     206     208     210     203     204     212     210
     203     204     212     213     203     201     217     219
     203     201     217     220     203     201     217     218
     204     212     210     208     204     212     210     211
     204     212     213     214     204     212     213     215
     204     212     213     216     204     203     201     217
     204     203     206     208     204     203     206     207
     205     204     203     206     205     204     212     210
     205     204     212     213     206     208     210     212
     206     208     210     211     206     203     201     217
     206     203     204     212     207     206     208     209
     207     206     208     210     208     210     212     213
     209     208     210     212     209     208     210     211
     210     212     213     214     210     212     213     215
     210     212     213     216     211     210     212     213
     217     220     222     223     218     217     220     222
     218     217     220     221     219     217     220     222
     219     217     220     221     220     222     223     224
     220     222     223     225     220     222     223     226
     221     220     222     223     222     223     226     227
     223     226     227     230     223     226     227     228
     223     226     227     229     224     223     226     227
     225     223     226     227     226     227     230     232
     226     227     230     252     226     227     230     231
     227     230     232     233     227     230     252     249
     227     230     252     254     227     230     252     253
     228     227     230     232     228     227     230     252
     228     227     230     231     229     227     230     232
     229     227     230     252     229     227     230     231
     230     252     249     251     230     252     249     233
     230     252     249     250     230     252     254     255
     230     232     233     235     230     232     233     249
     230     232     233     234     231     230     232     233
     231     230     252     249     231     230     252     254
     231     230     252     253     232     233     235     238
     232     233     235     236     232     233     249     251
     232     233     249     252     232     233     249     250
     232     230     252     249     232     230     252     254
     232     230     252     253     233     249     252     254
     233     249     252     253     233     235     238     240
     233     235     238     239     233     235     236     237
     233     235     236     244     233     232     230     252
     234     233     235     238     234     233     235     236
     234     233     249     251     234     233     249     252
     234     233     249     250     235     238     240     241
     235     238     240     242     235     236     244     242
     235     236     244     245     235     233     249     251
     235     233     249     252     235     233     249     250
     236     244     242     240     236     244     242     243
     236     244     245     246     236     244     245     247
     236     244     245     248     236     235     233     249
     236     235     238     240     236     235     238     239
     237     236     235     238     237     236     244     242
     237     236     244     245     238     240     242     244
     238     240     242     243     238     235     233     249
     238     235     236     244     239     238     240     241
     239     238     240     242     240     242     244     245
     241     240     242     244     241     240     242     243
     242     244     245     246     242     244     245     247
     242     244     245     248     243     242     244     245
     249     252     254     255     250     249     252     254
     250     249     252     253     251     249     252     254
     251     249     252     253     252     254     255     256
     252     254     255     257     252     254     255     258
     253     252     254     255     254     255     258     259
     255     258     259     262     255     258     259     260
     255     258     259     261     256     255     258     259
     257     255     258     259     258     259     262     264
     258     259     262     284     258     259     262     263
     259     262     264     265     259     262     284     281
     259     262     284     286     259     262     284     285
     260     259     262     264     260     259     262     284
     260     259     262     263     261     259     262     264
     261     259     262     284     261     259     262     263
     262     284     281     283     262     284     281     265
     262     284     281     282     262     284     286     287
     262     264     265     267     262     264     265     281
     262     264     265     266     263     262     264     265
     263     262     284     281     263     262     284     286
     263     262     284     285     264     265     267     270
     264     265     267     268     264     265     281     283
     264     265     281     284     264     265     281     282
     264     262     284     281     264     262     284     286
     264     262     284     285     265     281     284     286
     265     281     284     285     265     267     270     272
     265     267     270     271     265     267     268     269
     265     267     268     276     265     264     262     284
     266     265     267     270     266     265     267     268
     266     265     281     283     266     265     281     284
     266     265     281     282     267     270     272     273
     267     270     272     274     267     268     276     274
     267     268     276     277     267     265     281     283
     267     265     281     284     267     265     281     282
     268     276     274     272     268     276     274     275
     268     276     277     278     268     276     277     279
     268     276     277     280     268     267     265     281
     268     267     270     272     268     267     270     271
     269     268     267     270     269     268     276     274
     269     268     276     277     270     272     274     276
     270     272     274     275     270     267     265     281
     270     267     268     276     271     270     272     273
     271     270     272     274     272     274     276     277
     273     272     274     276     273     272     274     275
     274     276     277     278     274     276     277     279
     274     276     277     280     275     274     276     277
     281     284     286     287     282     281     284     286
     282     281     284     285     283     281     284     286
     283     281     284     285     284     286     287     288
     284     286     287     289     284     286     287     290
     285     284     286     287     286     287     290     291
     287     290     291     294     287     290     291     292
     287     290     291     293     288     287     290     291
     289     287     290     291     290     291     294     296
     290     291     294     316     290     291     294     295
     291     294     296     297     291     294     316     313
     291     294     316     318     291     294     316     317
     292     291     294     296     292     291     294     316
     292     291     294     295     293     291     294     296
     293     291     294     316     293     291     294     295
     294     316     313     315     294     316     313     297
     294     316     313     314     294     316     318     319
     294     296     297     299     294     296     297     313
     294     296     297     298     295     294     296     297
     295     294     316     313     295     294     316     318
     295     294     316     317     296     297     299     302
     296     297     299     300     296     297     313     315
     296     297     313     316     296     297     313     314
     296     294     316     313     296     294     316     318
     296     294     316     317     297     313     316     318
     297     313     316     317     297     299     302     304
     297     299     302     303     297     299     300     301
     297     299     300     308     297     296     294     316
     298     297     299     302     298     297     299     300
     298     297     313     315     298     297     313     316
     298     297     313     314     299     302     304     305
     299     302     304     306     299     300     308     306
     299     300     308     309     299     297     313     315
     299     297     313     316     299     297     313     314
     300     308     306     304     300     308     306     307
     300     308     309     310     300     308     309     311
     300     308     309     312     300     299     297     313
     300     299     302     304     300     299     302     303
     301     300     299     302     301     300     308     306
     301     300     308     309     302     304     306     308
     302     304     306     307     302     299     297     313
     302     299     300     308     303     302     304     305
     303     302     304     306     304     306     308     309
     305     304     306     308     305     304     306     307
     306     308     309     310     306     308     309     311
     306     308     309     312     307     306     308     309
     313     316     318     319     314     313     316     318
     314     313     316     317     315     313     316     318
     315     313     316     317     316     318     319     320
     316     318     319     321     316     318     319     322
     317     316     318     319     318     319     322     323
     319     322     323     326     319     322     323     324
     319     322     323     325     320     319     322     323
     321     319     322     323     322     323     326     328
     322     323     326     348     322     323     326     327
     323     326     328     329     323     326     348     345
     323     326     348     350     323     326     348     349
     324     323     326     328     324     323     326     348
     324     323     326     327     325     323     326     328
     325     323     326     348     325     323     326     327
     326     348     345     347     326     348     345     329
     326     348     345     346     326     348     350     351
     326     328     329     331     326     328     329     345
     326     328     329     330     327     326     328     329
     327     326     348     345     327     326     348     350
     327     326     348     349     328     329     331     334
     328     329     331     332     328     329     345     347
     328     329     345     348     328     329     345     346
     328     326     348     345     328     326     348     350
     328     326     348     349     329     345     348     350
     329     345     348     349     329     331     334     336
     329     331     334     335     329     331     332     333
     329     331     332     340     329     328     326     348
     330     329     331     334     330     329     331     332
     330     329     345     347     330     329     345     348
     330     329     345     346     331     334     336     337
     331     334     336     338     331     332     340     338
     331     332     340     341     331     329     345     347
     331     329     345     348     331     329     345     346
     332     340     338     336     332     340     338     339
     332     340     341     342     332     340     341     343
     332     340     341     344     332     331     329     345
     332     331     334     336     332     331     334     335
     333     332     331     334     333     332     340     338
     333     332     340     341     334     336     338     340
     334     336     338     339     334     331     329     345
     334     331     332     340     335     334     336     337
     335     334     336     338     336     338     340     341
     337     336     338     340     337     336     338     339
     338     340     341     342     338     340     341     343
     338     340     341     344     339     338     340     341
     345     348     350     351     346     345     348     350
     346     345     348     349     347     345     348     350
     347     345     348     349     348     350     351     352
     348     350     351     353     348     350     351     354
     349     348     350     351     350     351     354     355
     351     354     355     358     351     354     355     356
     351     354     355     357     352     351     354     355
     353     351     354     355     354     355     358     360
     354     355     358     380     354     355     358     359
     355     358     360     361     355     358     380     377
     355     358     380     382     355     358     380     381
     356     355     358     360     356     355     358     380
     356     355     358     359     357     355     358     360
     357     355     358     380     357     355     358     359
     358     380     377     379     358     380     377     361
     358     380     377     378     358     380     382     383
     358     360     361     363     358     360     361     377
     358     360     361     362     359     358     360     361
     359     358     380     377     359     358     380     382
     359     358     380     381     360     361     363     366
     360     361     363     364     360     361     377     379
     360     361     377     380     360     361     377     378
     360     358     380     377     360     358     380     382
     360     358     380     381     361     377     380     382
     361     377     380     381     361     363     366     368
     361     363     366     367     361     363     364     365
     361     363     364     372     361     360     358     380
     362     361     363     366     362     361     363     364
     362     361     377     379     362     361     377     380
     362     361     377     378     363     366     368     369
     363     366     368     370     363     364     372     370
     363     364     372     373     363     361     377     379
     363     361     377     380     363     361     377     378
     364     372     370     368     364     372     370     371
     364     372     373     374     364     372     373     375
     364     372     373     376     364     363     361     377
     364     363     366     368     364     363     366     367
     365     364     363     366     365     364     372     370
     365     364     372     373     366     368     370     372
     366     368     370     371     366     363     361     377
     366     363     364     372     367     366     368     369
     367     366     368     370     368     370     372     373
     369     368     370     372     369     368     370     371
     370     372     373     374     370     372     373     375
     370     372     373     376     371     370     372     373
     377     380     382     383     378     377     380     382
     378     377     380     381     379     377     380     382
     379     377     380     381     380     382     383     384
     380     382     383     385     380     382     383     386
     381     380     382     383     382     383     386     387
     383     386     387     390     383     386     387     388
     383     386     387     389     384     383     386     387
     385     383     386     387     386     387     390     392
     386     387     390     412     386     387     390     391
     387     390     392     393     387     390     412     409
     387     390     412     414     387     390     412     413
     388     387     390     392     388     387     390     412
     388     387     390     391     389     387     390     392
     389     387     390     412     389     387     390     391
     390     412     409     411     390     412     409     393
     390     412     409     410     390     412     414     415
     390     392     393     395     390     392     393     409
     390     392     393     394     391     390     392     393
     391     390     412     409     391     390     412     414
     391     390     412     413     392     393     395     398
     392     393     395     396     392     393     409     411
     392     393     409     412     392     393     409     410
     392     390     412     409     392     390     412     414
     392     390     412     413     393     409     412     414
     393     409     412     413     393     395     398     400
     393     395     398     399     393     395     396     397
     393     395     396     404     393     392     390     412
     394     393     395     398     394     393     395     396
     394     393     409     411     394     393     409     412
     394     393     409     410     395     398     400     401
     395     398     400     402     395     396     404     402
     395     396     404     405     395     393     409     411
     395     393     409     412     395     393     409     410
     396     404     402     400     396     404     402     403
     396     404     405     406     396     404     405     407
     396     404     405     408     396     395     393     409
     396     395     398     400     396     395     398     399
     397     396     395     398     397     396     404     402
     397     396     404     405     398     400     402     404
     398     400     402     403     398     395     393     409
     398     395     396     404     399     398     400     401
     399     398     400     402     400     402     404     405
     401     400     402     404     401     400     402     403
     402     404     405     406     402     404     405     407
     402     404     405     408     403     402     404     405
     409     412     414     415     410     409     412     414
     410     409     412     413     411     409     412     414
     411     409     412     413     412     414     415     416
     412     414     415     417     412     414     415     418
     413     412     414     415     414     415     418     419
     415     418     419     422     415     418     419     420
     415     418     419     421     416     415     418     419
     417     415     418     419     418     419     422     424
     418     419     422     444     418     419     422     423
     419     422     424     425     419     422     444     441
     419     422     444     446     419     422     444     445
     420     419     422     424     420     419     422     444
     420     419     422     423     421     419     422     424
     421     419     422     444     421     419     422     423
     422     444     441     443     422     444     441     425
     422     444     441     442     422     444     446     447
     422     424     425     427     422     424     425     441
     422     424     425     426     423     422     424     425
     423     422     444     441     423     422     444     446
     423     422     444     445     424     425     427     430
     424     425     427     428     424     425     441     443
     424     425     441     444     424     425     441     442
     424     422     444     441     424     422     444     446
     424     422     444     445     425     441     444     446
     425     441     444     445     425     427     430     432
     425     427     430     431     425     427     428     429
     425     427     428     436     425     424     422     444
     426     425     427     430     426     425     427     428
     426     425     441     443     426     425     441     444
     426     425     441     442     427     430     432     433
     427     430     432     434     427     428     436     434
     427     428     436     437     427     425     441     443
     427     425     441     444     427     425     441     442
     428     436     434     432     428     436     434     435
     428     436     437     438     428     436     437     439
     428     436     437     440     428     427     425     441
     428     427     430     432     428     427     430     431
     429     428     427     430     429     428     436     434
     429     428     436     437     430     432     434     436
     430     432     434     435     430     427     425     441
     430     427     428     436     431     430     432     433
     431     430     432     434     432     434     436     437
     433     432     434     436     433     432     434     435
     434     436     437     438     434     436     437     439
     434     436     437     440     435     434     436     437
     441     444     446     447     442     441     444     446
     442     441     444     445     443     441     444     446
     443     441     444     445     444     446     447     448
     444     446     447     449     444     446     447     450
     445     444     446     447     446     447     450     451
     447     450     451     454     447     450     451     452
     447     450     451     453     448     447     450     451
     449     447     450     451     450     451     454     456
     450     451     454     476     450     451     454     455
     451     454     456     457     451     454     476     473
     451     454     476     478     451     454     476     477
     452     451     454     456     452     451     454     476
     452     451     454     455     453     451     454     456
     453     451     454     476     453     451     454     455
     454     476     473     475     454     476     473     457
     454     476     473     474     454     476     478     479
     454     456     457     459     454     456     457     473
     454     456     457     458     455     454     456     457
     455     454     476     473     455     454     476     478
     455     454     476     477     456     457     459     462
     456     457     459     460     456     457     473     475
     456     457     473     476     456     457     473     474
     456     454     476     473     456     454     476     478
     456     454     476     477     457     473     476     478
     457     473     476     477     457     459     462     464
     457     459     462     463     457     459     460     461
     457     459     460     468     457     456     454     476
     458     457     459     462     458     457     459     460
     458     457     473     475     458     457     473     476
     458     457     473     474     459     462     464     465
     459     462     464     466     459     460     468     466
     459     460     468     469     459     457     473     475
     459     457     473     476     459     457     473     474
     460     468     466     464     460     468     466     467
     460     468     469     470     460     468     469     471
     460     468     469     472     460     459     457     473
     460     459     462     464     460     459     462     463
     461     460     459     462     461     460     468     466
     461     460     468     469     462     464     466     468
     462     464     466     467     462     459     457     473
     462     459     460     468     463     462     464     465
     463     462     464     466     464     466     468     469
     465     464     466     468     465     464     466     467
     466     468     469     470     466     468     469     471
     466     468     469     472     467     466     468     469
     473     476     478     479     474     473     476     478
     474     473     476     477     475     473     476     478
     475     473     476     477     476     478     479     480
     476     478     479     481     476     478     479     482
     477     476     478     479     478     479     482     483
     479     482     483     486     479     482     483     484
     479     482     483     485     480     479     482     483
     481     479     482     483     482     483     486     488
     482     483     486     508     482     483     486     487
     483     486     488     489     483     486     508     505
     483     486     508     510     483     486     508     509
     484     483     486     488     484     483     486     508
     484     483     486     487     485     483     486     488
     485     483     486     508     485     483     486     487
     486     508     505     507     486     508     505     489
     486     508     505     506     486     508     510     511
     486     488     489     491     486     488     489     505
     486     488     489     490     487     486     488     489
     487     486     508     505     487     486     508     510
     487     486     508     509     488     489     491     494
     488     489     491     492     488     489     505     507
     488     489     505     508     488     489     505     506
     488     486     508     505     488     486     508     510
     488     486     508     509     489     505     508     510
     489     505     508     509     489     491     494     496
     489     491     494     495     489     491     492     493
     489     491     492     500     489     488     486     508
     490     489     491     494     490     489     491     492
     490     489     505     507     490     489     505     508
     490     489     505     506     491     494     496     497
     491     494     496     498     491     492     500     498
     491     492     500     501     491     489     505     507
     491     489     505     508     491     489     505     506
     492     500     498     496     492     500     498     499
     492     500     501     502     492     500     501     503
     492     500     501     504     492     491     489     505
     492     491     494     496     492     491     494     495
     493     492     491     494     493     492     500     498
     493     492     500     501     494     496     498     500
     494     496     498     499     494     491     489     505
     494     491     492     500     495     494     496     497
     495     494     496     498     496     498     500     501
     497     496     498     500     497     496     498     499
     498     500     501     502     498     500     501     503
     498     500     501     504     499     498     500     501
     505     508     510     511     506     505     508     510
     506     505     508     509     507     505     508     510
     507     505     508     509     508     510     511     512
     508     510     511     513     508     510     511     514
     509     508     510     511     510     511     514     515
     511     514     515     518     511     514     515     516
     511     514     515     517     512     511     514     515
     513     511     514     515     514     515     518     520
     514     515     518     540     514     515     518     519
     515     518     520     521     515     518     540     537
     515     518     540     542     515     518     540     541
     516     515     518     520     516     515     518     540
     516     515     518     519     517     515     518     520
     517     515     518     540     517     515     518     519
     518     540     537     539     518     540     537     521
     518     540     537     538     518     540     542     543
     518     520     521     523     518     520     521     537
     518     520     521     522     519     518     520     521
     519     518     540     537     519     518     540     542
     519     518     540     541     520     521     523     526
     520     521     523     524     520     521     537     539
     520     521     537     540     520     521     537     538
     520     518     540     537     520     518     540     542
     520     518     540     541     521     537     540     542
     521     537     540     541     521     523     526     528
     521     523     526     527     521     523     524     525
     521     523     524     532     521     520     518     540
     522     521     523     526     522     521     523     524
     522     521     537     539     522     521     537     540
     522     521     537     538     523     526     528     529
     523     526     528     530     523     524     532     530
     523     524     532     533     523     521     537     539
     523     521     537     540     523     521     537     538
     524     532     530     528     524     532     530     531
     524     532     533     534     524     532     533     535
     524     532     533     536     524     523     521     537
     524     523     526     528     524     523     526     527
     525     524     523     526     525     524     532     530
     525     524     532     533     526     528     530     532
     526     528     530     531     526     523     521     537
     526     523     524     532     527     526     528     529
     527     526     528     530     528     530     532     533
     529     528     530     532     529     528     530     531
     530     532     533     534     530     532     533     535
     530     532     533     536     531     530     532     533
     537     540     542     543     538     537     540     542
     538     537     540     541     539     537     540     542
     539     537     540     541     540     542     543     544
     540     542     543     545     540     542     543     546
     541     540     542     543     542     543     546     547
     543     546     547     550     543     546     547     548
     543     546     547     549     544     543     546     547
     545     543     546     547     546     547     550     552
     546     547     550     572     546     547     550     551
     547     550     552     553     547     550     572     569
     547     550     572     574     547     550     572     573
     548     547     550     552     548     547     550     572
     548     547     550     551     549     547     550     552
     549     547     550     572     549     547     550     551
     550     572     569     571     550     572     569     553
     550     572     569     570     550     572     574     575
     550     552     553     555     550     552     553     569
     550     552     553     554     551     550     552     553
     551     550     572     569     551     550     572     574
     551     550     572     573     552     553     555     558
     552     553     555     556     552     553     569     571
     552     553     569     572     552     553     569     570
     552     550     572     569     552     550     572     574
     552     550     572     573     553     569     572     574
     553     569     572     573     553     555     558     560
     553     555     558     559     553     555     556     557
     553     555     556     564     553     552     550     572
     554     553     555     558     554     553     555     556
     554     553     569     571     554     553     569     572
     554     553     569     570     555     558     560     561
     555     558     560     562     555     556     564     562
     555     556     564     565     555     553     569     571
     555     553     569     572     555     553     569     570
     556     564     562     560     556     564     562     563
     556     564     565     566     556     564     565     567
     556     564     565     568     556     555     553     569
     556     555     558     560     556     555     558     559
     557     556     555     558     557     556     564     562
     557     556     564     565     558     560     562     564
     558     560     562     563     558     555     553     569
     558     555     556     564     559     558     560     561
     559     558     560     562     560     562     564     565
     561     560     562     564     561     560     562     563
     562     564     565     566     562     564     565     567
     562     564     565     568     563     562     564     565
     569     572     574     575     570     569     572     574
     570     569     572     573     571     569     572     574
     571     569     572     573     572     574     575     576
     572     574     575     577     572     574     575     578
     573     572     574     575     574     575     578     579
     575     578     579     582     575     578     579     580
     575     578     579     581     576     575     578     579
     577     575     578     579     578     579     582     584
     578     579     582     604     578     579     582     583
     579     582     584     585     579     582     604     601
     579     582     604     606     579     582     604     605
     580     579     582     584     580     579     582     604
     580     579     582     583     581     579     582     584
     581     579     582     604     581     579     582     583
     582     604     601     603     582     604     601     585
     582     604     601     602     582     604     606     607
     582     584     585     587     582     584     585     601
     582     584     585     586     583     582     584     585
     583     582     604     601     583     582     604     606
     583     582     604     605     584     585     587     590
     584     585     587     588     584     585     601     603
     584     585     601     604     584     585     601     602
     584     582     604     601     584     582     604     606
     584     582     604     605     585     601     604     606
     585     601     604     605     585     587     590     592
     585     587     590     591     585     587     588     589
     585     587     588     596     585     584     582     604
     586     585     587     590     586     585     587     588
     586     585     601     603     586     585     601     604
     586     585     601     602     587     590     592     593
     587     590     592     594     587     588     596     594
     587     588     596     597     587     585     601     603
     587     585     601     604     587     585     601     602
     588     596     594     592     588     596     594     595
     588     596     597     598     588     596     597     599
     588     596     597     600     588     587     585     601
     588     587     590     592     588     587     590     591
     589     588     587     590     589     588     596     594
     589     588     596     597     590     592     594     596
     590     592     594     595     590     587     585     601
     590     587     588     596     591     590     592     593
     591     590     592     594     592     594     596     597
     593     592     594     596     593     592     594     595
     594     596     597     598     594     596     597     599
     594     596     597     600     595     594     596     597
     601     604     606     607     602     601     604     606
     602     601     604     605     603     601     604     606
     603     601     604     605     604     606     607     608
     604     606     607     609     604     606     607     610
     605     604     606     607     606     607     610     611
     607     610     611     614     607     610     611     612
     607     610     611     613     608     607     610     611
     609     607     610     611     610     611     614     616
     610     611     614     636     610     611     614     615
     611     614     616     617     611     614     636     633
     611     614     636     638     611     614     636     637
     612     611     614     616     612     611     614     636
     612     611     614     615     613     611     614     616
     613     611     614     636     613     611     614     615
     614     636     633     635     614     636     633     617
     614     636     633     634     614     636     638     639
     614     616     617     619     614     616     617     633
     614     616     617     618     615     614     616     617
     615     614     636     633     615     614     636     638
     615     614     636     637     616     617     619     622
     616     617     619     620     616     617     633     635
     616     617     633     636     616     617     633     634
     616     614     636     633     616     614     636     638
     616     614     636     637     617     633     636     638
     617     633     636     637     617     619     622     624
     617     619     622     623     617     619     620     621
     617     619     620     628     617     616     614     636
     618     617     619     622     618     617     619     620
     618     617     633     635     618     617     633     636
     618     617     633     634     619     622     624     625
     619     622     624     626     619     620     628     626
     619     620     628     629     619     617     633     635
     619     617     633     636     619     617     633     634
     620     628     626     624     620     628     626     627
     620     628     629     630     620     628     629     631
     620     628     629     632     620     619     617     633
     620     619     622     624     620     619     622     623
     621     620     619     622     621     620     628     626
     621     620     628     629     622     624     626     628
     622     624     626     627     622     619     617     633
     622     619     620     628     623     622     624     625
     623     622     624     626     624     626     628     629
     625     624     626     628     625     624     626     627
     626     628     629     630     626     628     629     631
     626     628     629     632     627     626     628     629
     633     636     638     639     634     633     636     638
     634     633     636     637     635     633     636     638
     635     633     636     637     636     638     639     640
     636     638     639     641     636     638     639     642
     637     636     638     639     638     639     642     643
     639     642     643     646     639     642     643     644
     639     642     643     645     640     639     642     643
     641     639     642     643     642     643     646     648
     642     643     646     668     642     643     646     647
     643     646     648     649     643     646     668     665
     643     646     668     670     643     646     668     669
     644     643     646     648     644     643     646     668
     644     643     646     647     645     643     646     648
     645     643     646     668     645     643     646     647
     646     668     665     667     646     668     665     649
     646     668     665     666     646     668     670     671
     646     648     649     651     646     648     649     665
     646     648     649     650     647     646     648     649
     647     646     668     665     647     646     668     670
     647     646     668     669     648     649     651     654
     648     649     651     652     648     649     665     667
     648     649     665     668     648     649     665     666
     648     646     668     665     648     646     668     670
     648     646     668     669     649     665     668     670
     649     665     668     669     649     651     654     656
     649     651     654     655     649     651     652     653
     649     651     652     660     649     648     646     668
     650     649     651     654     650     649     651     652
     650     649     665     667     650     649     665     668
     650     649     665     666     651     654     656     657
     651     654     656     658     651     652     660     658
     651     652     660     661     651     649     665     667
     651     649     665     668     651     649     665     666
     652     660     658     656     652     660     658     659
     652     660     661     662     652     660     661     663
     652     660     661     664     652     651     649     665
     652     651     654     656     652     651     654     655
     653     652     651     654     653     652     660     658
     653     652     660     661     654     656     658     660
     654     656     658     659     654     651     649     665
     654     651     652     660     655     654     656     657
     655     654     656     658     656     658     660     661
     657     656     658     660     657     656     658     659
     658     660     661     662     658     660     661     663
     658     660     661     664     659     658     660     661
     665     668     670     671     666     665     668     670
     666     665     668     669     667     665     668     670
     667     665     668     669     668     670     671     672
     668     670     671     673     668     670     671     674
     669     668     670     671     670     671     674     675
     671     674     675     678     671     674     675     676
     671     674     675     677     672     671     674     675
     673     671     674     675     674     675     678     680
     674     675     678     700     674     675     678     679
     675     678     680     681     675     678     700     697
     675     678     700     702     675     678     700     701
     676     675     678     680     676     675     678     700
     676     675     678     679     677     675     678     680
     677     675     678     700     677     675     678     679
     678     700     697     699     678     700     697     681
     678     700     697     698     678     700     702     703
     678     680     681     683     678     680     681     697
     678     680     681     682     679     678     680     681
     679     678     700     697     679     678     700     702
     679     678     700     701     680     681     683     686
     680     681     683     684     680     681     697     699
     680     681     697     700     680     681     697     698
     680     678     700     697     680     678     700     702
     680     678     700     701     681     697     700     702
     681     697     700     701     681     683     686     688
     681     683     686     687     681     683     684     685
     681     683     684     692     681     680     678     700
     682     681     683     686     682     681     683     684
     682     681     697     699     682     681     697     700
     682     681     697     698     683     686     688     689
     683     686     688     690     683     684     692     690
     683     684     692     693     683     681     697     699
     683     681     697     700     683     681     697     698
     684     692     690     688     684     692     690     691
     684     692     693     694     684     692     693     695
     684     692     693     696     684     683     681     697
     684     683     686     688     684     683     686     687
     685     684     683     686     685     684     692     690
     685     684     692     693     686     688     690     692
     686     688     690     691     686     683     681     697
     686     683     684     692     687     686     688     689
     687     686     688     690     688     690     692     693
     689     688     690     692     689     688     690     691
     690     692     693     694     690     692     693     695
     690     692     693     696     691     690     692     693
     697     700     702     703     698     697     700     702
     698     697     700     701     699     697     700     702
     699     697     700     701     700     702     703     704
     700     702     703     705     700     702     703     706
     701     700     702     703     702     703     706     707
     703     706     707     710     703     706     707     708
     703     706     707     709     704     703     706     707
     705     703     706     707     706     707     710     712
     706     707     710     732     706     707     710     711
     707     710     712     713     707     710     732     729
     707     710     732     734     707     710     732     733
     708     707     710     712     708     707     710     732
     708     707     710     711     709     707     710     712
     709     707     710     732     709     707     710     711
     710     732     729     731     710     732     729     713
     710     732     729     730     710     732     734     735
     710     712     713     715     710     712     713     729
     710     712     713     714     711     710     712     713
     711     710     732     729     711     710     732     734
     711     710     732     733     712     713     715     718
     712     713     715     716     712     713     729     731
     712     713     729     732     712     713     729     730
     712     710     732     729     712     710     732     734
     712     710     732     733     713     729     732     734
     713     729     732     733     713     715     718     720
     713     715     718     719     713     715     716     717
     713     715     716     724     713     712     710     732
     714     713     715     718     714     713     715     716
     714     713     729     731     714     713     729     732
     714     713     729     730     715     718     720     721
     715     718     720     722     715     716     724     722
     715     716     724     725     715     713     729     731
     715     713     729     732     715     713     729     730
     716     724     722     720     716     724     722     723
     716     724     725     726     716     724     725     727
     716     724     725     728     716     715     713     729
     716     715     718     720     716     715     718     719
     717     716     715     718     717     716     724     722
     717     716     724     725     718     720     722     724
     718     720     722     723     718     715     713     729
     718     715     716     724     719     718     720     721
     719     718     720     722     720     722     724     725
     721     720     722     724     721     720     722     723
     722     724     725     726     722     724     725     727
     722     724     725     728     723     722     724     725
     729     732     734     735     730     729     732     734
     730     729     732     733     731     729     732     734
     731     729     732     733     732     734     735     736
     732     734     735     737     732     734     735     738
     733     732     734     735     734     735     738     739
     735     738     739     742     735     738     739     740
     735     738     739     741     736     735     738     739
     737     735     738     739     738     739     742     744
     738     739     742     764     738     739     742     743
     739     742     744     745     739     742     764     761
     739     742     764     766     739     742     764     765
     740     739     742     744     740     739     742     764
     740     739     742     743     741     739     742     744
     741     739     742     764     741     739     742     743
     742     764     761     763     742     764     761     745
     742     764     761     762     742     764     766     767
     742     744     745     747     742     744     745     761
     742     744     745     746     743     742     744     745
     743     742     764     761     743     742     764     766
     743     742     764     765     744     745     747     750
     744     745     747     748     744     745     761     763
     744     745     761     764     744     745     761     762
     744     742     764     761     744     742     764     766
     744     742     764     765     745     761     764     766
     745     761     764     765     745     747     750     752
     745     747     750     751     745     747     748     749
     745     747     748     756     745     744     742     764
     746     745     747     750     746     745     747     748
     746     745     761     763     746     745     761     764
     746     745     761     762     747     750     752     753
     747     750     752     754     747     748     756     754
     747     748     756     757     747     745     761     763
     747     745     761     764     747     745     761     762
     748     756     754     752     748     756     754     755
     748     756     757     758     748     756     757     759
     748     756     757     760     748     747     745     761
     748     747     750     752     748     747     750     751
     749     748     747     750     749     748     756     754
     749     748     756     757     750     752     754     756
     750     752     754     755     750     747     745     761
     750     747     748     756     751     750     752     753
     751     750     752     754     752     754     756     757
     753     752     754     756     753     752     754     755
     754     756     757     758     754     756     757     759
     754     756     757     760     755     754     756     757
     761     764     766     767     762     761     764     766
     762     761     764     765     763     761     764     766
     763     761     764     765     764     766     767     768
     764     766     767     769     764     766     767     770
     765     764     766     767     766     767     770     771
     767     770     771     774     767     770     771     772
     767     770     771     773     768     767     770     771
     769     767     770     771     770     771     774     776
     770     771     774     796     770     771     774     775
     771     774     776     777     771     774     796     793
     771     774     796     798     771     774     796     797
     772     771     774     776     772     771     774     796
     772     771     774     775     773     771     774     776
     773     771     774     796     773     771     774     775
     774     796     793     795     774     796     793     777
     774     796     793     794     774     796     798     799
     774     776     777     779     774     776     777     793
     774     776     777     778     775     774     776     777
     775     774     796     793     775     774     796     798
     775     774     796     797     776     777     779     782
     776     777     779     780     776     777     793     795
     776     777     793     796     776     777     793     794
     776     774     796     793     776     774     796     798
     776     774     796     797     777     793     796     798
     777     793     796     797     777     779     782     784
     777     779     782     783     777     779     780     781
     777     779     780     788     777     776     774     796
     778     777     779     782     778     777     779     780
     778     777     793     795     778     777     793     796
     778     777     793     794     779     782     784     785
     779     782     784     786     779     780     788     786
     779     780     788     789     779     777     793     795
     779     777     793     796     779     777     793     794
     780     788     786     784     780     788     786     787
     780     788     789     790     780     788     789     791
     780     788     789     792     780     779     777     793
     780     779     782     784     780     779     782     783
     781     780     779     782     781     780     788     786
     781     780     788     789     782     784     786     788
     782     784     786     787     782     779     777     793
     782     779     780     788     783     782     784     785
     783     782     784     786     784     786     788     789
     785     784     786     788     785     784     786     787
     786     788     789     790     786     788     789     791
     786     788     789     792     787     786     788     789
     793     796     798     799     794     793     796     798
     794     793     796     797     795     793     796     798
     795     793     796     797     796     798     799     800
     796     798     799     801     796     798     799     802
     797     796     798     799     798     799     802     803
     799     802     803     806     799     802     803     804
     799     802     803     805     800     799     802     803
     801     799     802     803     802     803     806     808
     802     803     806     828     802     803     806     807
     803     806     808     809     803     806     828     825
     803     806     828     830     803     806     828     829
     804     803     806     808     804     803     806     828
     804     803     806     807     805     803     806     808
     805     803     806     828     805     803     806     807
     806     828     825     827     806     828     825     809
     806     828     825     826     806     828     830     831
     806     808     809     811     806     808     809     825
     806     808     809     810     807     806     808     809
     807     806     828     825     807     806     828     830
     807     806     828     829     808     809     811     814
     808     809     811     812     808     809     825     827
     808     809     825     828     808     809     825     826
     808     806     828     825     808     806     828     830
     808     806     828     829     809     825     828     830
     809     825     828     829     809     811     814     816
     809     811     814     815     809     811     812     813
     809     811     812     820     809     808     806     828
     810     809     811     814     810     809     811     812
     810     809     825     827     810     809     825     828
     810     809     825     826     811     814     816     817
     811     814     816     818     811     812     820     818
     811     812     820     821     811     809     825     827
     811     809     825     828     811     809     825     826
     812     820     818     816     812     820     818     819
     812     820     821     822     812     820     821     823
     812     820     821     824     812     811     809     825
     812     811     814     816     812     811     814     815
     813     812     811     814     813     812     820     818
     813     812     820     821     814     816     818     820
     814     816     818     819     814     811     809     825
     814     811     812     820     815     814     816     817
     815     814     816     818     816     818     820     821
     817     816     818     820     817     816     818     819
     818     820     821     822     818     820     821     823
     818     820     821     824     819     818     820     821
     825     828     830     831     826     825     828     830
     826     825     828     829     827     825     828     830
     827     825     828     829     828     830     831     832
     828     830     831     833     828     830     831     834
     829     828     830     831     830     831     834     835
     831     834     835     838     831     834     835     836
     831     834     835     837     832     831     834     835
     833     831     834     835     834     835     838     840
     834     835     838     860     834     835     838     839
     835     838     840     841     835     838     860     857
     835     838     860     862     835     838     860     861
     836     835     838     840     836     835     838     860
     836     835     838     839     837     835     838     840
     837     835     838     860     837     835     838     839
     838     860     857     859     838     860     857     841
     838     860     857     858     838     860     862     863
     838     840     841     843     838     840     841     857
     838     840     841     842     839     838     840     841
     839     838     860     857     839     838     860     862
     839     838     860     861     840     841     843     846
     840     841     843     844     840     841     857     859
     840     841     857     860     840     841     857     858
     840     838     860     857     840     838     860     862
     840     838     860     861     841     857     860     862
     841     857     860     861     841     843     846     848
     841     843     846     847     841     843     844     845
     841     843     844     852     841     840     838     860
     842     841     843     846     842     841     843     844
     842     841     857     859     842     841     857     860
     842     841     857     858     843     846     848     849
     843     846     848     850     843     844     852     850
     843     844     852     853     843     841     857     859
     843     841     857     860     843     841     857     858
     844     852     850     848     844     852     850     851
     844     852     853     854     844     852     853     855
     844     852     853     856     844     843     841     857
     844     843     846     848     844     843     846     847
     845     844     843     846     845     844     852     850
     845     844     852     853     846     848     850     852
     846     848     850     851     846     843     841     857
     846     843     844     852     847     846     848     849
     847     846     848     850     848     850     852     853
     849     848     850     852     849     848     850     851
     850     852     853     854     850     852     853     855
     850     852     853     856     851     850     852     853
     857     860     862     863     858     857     860     862
     858     857     860     861     859     857     860     862
     859     857     860     861     860     862     863     864
     860     862     863     865     860     862     863     866
     861     860     862     863     862     863     866     867
     863     866     867     870     863     866     867     868
     863     866     867     869     864     863     866     867
     865     863     866     867     866     867     870     872
     866     867     870     892     866     867     870     871
     867     870     872     873     867     870     892     889
     867     870     892     894     867     870     892     893
     868     867     870     872     868     867     870     892
     868     867     870     871     869     867     870     872
     869     867     870     892     869     867     870     871
     870     892     889     891     870     892     889     873
     870     892     889     890     870     892     894     895
     870     872     873     875     870     872     873     889
     870     872     873     874     871     870     872     873
     871     870     892     889     871     870     892     894
     871     870     892     893     872     873     875     878
     872     873     875     876     872     873     889     891
     872     873     889     892     872     873     889     890
     872     870     892     889     872     870     892     894
     872     870     892     893     873     889     892     894
     873     889     892     893     873     875     878     880
     873     875     878     879     873     875     876     877
     873     875     876     884     873     872     870     892
     874     873     875     878     874     873     875     876
     874     873     889     891     874     873     889     892
     874     873     889     890     875     878     880     881
     875     878     880     882     875     876     884     882
     875     876     884     885     875     873     889     891
     875     873     889     892     875     873     889     890
     876     884     882     880     876     884     882     883
     876     884     885     886     876     884     885     887
     876     884     885     888     876     875     873     889
     876     875     878     880     876     875     878     879
     877     876     875     878     877     876     884     882
     877     876     884     885     878     880     882     884
     878     880     882     883     878     875     873     889
     878     875     876     884     879     878     880     881
     879     878     880     882     880     882     884     885
     881     880     882     884     881     880     882     883
     882     884     885     886     882     884     885     887
     882     884     885     888     883     882     884     885
     889     892     894     895     890     889     892     894
     890     889     892     893     891     889     892     894
     891     889     892     893     892     894     895     896
     892     894     895     897     892     894     895     898
     893     892     894     895     894     895     898     899
     895     898     899     902     895     898     899     900
     895     898     899     901     896     895     898     899
     897     895     898     899     898     899     902     904
     898     899     902     924     898     899     902     903
     899     902     904     905     899     902     924     921
     899     902     924     926     899     902     924     925
     900     899     902     904     900     899     902     924
     900     899     902     903     901     899     902     904
     901     899     902     924     901     899     902     903
     902     924     921     923     902     924     921     905
     902     924     921     922     902     924     926     927
     902     904     905     907     902     904     905     921
     902     904     905     906     903     902     904     905
     903     902     924     921     903     902     924     926
     903     902     924     925     904     905     907     910
     904     905     907     908     904     905     921     923
     904     905     921     924     904     905     921     922
     904     902     924     921     904     902     924     926
     904     902     924     925     905     921     924     926
     905     921     924     925     905     907     910     912
     905     907     910     911     905     907     908     909
     905     907     908     916     905     904     902     924
     906     905     907     910     906     905     907     908
     906     905     921     923     906     905     921     924
     906     905     921     922     907     910     912     913
     907     910     912     914     907     908     916     914
     907     908     916     917     907     905     921     923
     907     905     921     924     907     905     921     922
     908     916     914     912     908     916     914     915
     908     916     917     918     908     916     917     919
     908     916     917     920     908     907     905     921
     908     907     910     912     908     907     910     911
     909     908     907     910     909     908     916     914
     909     908     916     917     910     912     914     916
     910     912     914     915     910     907     905     921
     910     907     908     916     911     910     912     913
     911     910     912     914     912     914     916     917
     913     912     914     916     913     912     914     915
     914     916     917     918     914     916     917     919
     914     916     917     920     915     914     916     917
     921     924     926     927     922     921     924     926
     922     921     924     925     923     921     924     926
     923     921     924     925     924     926     927     928
     924     926     927     929     924     926     927     930
     925     924     926     927     926     927     930     931
     927     930     931     934     927     930     931     932
     927     930     931     933     928     927     930     931
     929     927     930     931     930     931     934     936
     930     931     934     956     930     931     934     935
     931     934     936     937     931     934     956     953
     931     934     956     958     931     934     956     957
     932     931     934     936     932     931     934     956
     932     931     934     935     933     931     934     936
     933     931     934     956     933     931     934     935
     934     956     953     955     934     956     953     937
     934     956     953     954     934     956     958     959
     934     936     937     939     934     936     937     953
     934     936     937     938     935     934     936     937
     935     934     956     953     935     934     956     958
     935     934     956     957     936     937     939     942
     936     937     939     940     936     937     953     955
     936     937     953     956     936     937     953     954
     936     934     956     953     936     934     956     958
     936     934     956     957     937     953     956     958
     937     953     956     957     937     939     942     944
     937     939     942     943     937     939     940     941
     937     939     940     948     937     936     934     956
     938     937     939     942     938     937     939     940
     938     937     953     955     938     937     953     956
     938     937     953     954     939     942     944     945
     939     942     944     946     939     940     948     946
     939     940     948     949     939     937     953     955
     939     937     953     956     939     937     953     954
     940     948     946     944     940     948     946     947
     940     948     949     950     940     948     949     951
     940     948     949     952     940     939     937     953
     940     939     942     944     940     939     942     943
     941     940     939     942     941     940     948     946
     941     940     948     949     942     944     946     948
     942     944     946     947     942     939     937     953
     942     939     940     948     943     942     944     945
     943     942     944     946     944     946     948     949
     945     944     946     948     945     944     946     947
     946     948     949     950     946     948     949     951
     946     948     949     952     947     946     948     949
     953     956     958     959     954     953     956     958
     954     953     956     957     955     953     956     958
     955     953     956     957     956     958     959     960
     956     958     959     961     956     958     959     962
     957     956     958     959     958     959     962     963
     959     962     963     966     959     962     963     964
     959     962     963     965     960     959     962     963
     961     959     962     963     962     963     966     968
     962     963     966     988     962     963     966     967
     963     966     968     969     963     966     988     985
     963     966     988     990     963     966     988     989
     964     963     966     968     964     963     966     988
     964     963     966     967     965     963     966     968
     965     963     966     988     965     963     966     967
     966     988     985     987     966     988     985     969
     966     988     985     986     966     988     990     991
     966     968     969     971     966     968     969     985
     966     968     969     970     967     966     968     969
     967     966     988     985     967     966     988     990
     967     966     988     989     968     969     971     974
     968     969     971     972     968     969     985     987
     968     969     985     988     968     969     985     986
     968     966     988     985     968     966     988     990
     968     966     988     989     969     985     988     990
     969     985     988     989     969     971     974     976
     969     971     974     975     969     971     972     973
     969     971     972     980     969     968     966     988
     970     969     971     974     970     969     971     972
     970     969     985     987     970     969     985     988
     970     969     985     986     971     974     976     977
     971     974     976     978     971     972     980     978
     971     972     980     981     971     969     985     987
     971     969     985     988     971     969     985     986
     972     980     978     976     972     980     978     979
     972     980     981     982     972     980     981     983
     972     980     981     984     972     971     969     985
     972     971     974     976     972     971     974     975
     973     972     971     974     973     972     980     978
     973     972     980     981     974     976     978     980
     974     976     978     979     974     971     969     985
     974     971     972     980     975     974     976     977
     975     974     976     978     976     978     980     981
     977     976     978     980     977     976     978     979
     978     980     981     982     978     980     981     983
     978     980     981     984     979     978     980     981
     985     988     990     991     986     985     988     990
     986     985     988     989     987     985     988     990
     987     985     988     989     988     990     991     992
     988     990     991     993     988     990     991     994
     989     988     990     991     990     991     994     995
     991     994     995     998     991     994     995     996
     991     994     995     997     992     991     994     995
     993     991     994     995     994     995     998    1000
     994     995     998    1020     994     995     998     999
     995     998    1000    1001     995     998    1020    1017
     995     998    1020    1022     995     998    1020    1021
     996     995     998    1000     996     995     998    1020
     996     995     998     999     997     995     998    1000
     997     995     998    1020     997     995     998     999
     998    1020    1017    1019     998    1020    1017    1001
     998    1020    1017    1018     998    1020    1022    1023
     998    1000    1001    1003     998    1000    1001    1017
     998    1000    1001    1002     999     998    1000    1001
     999     998    1020    1017     999     998    1020    1022
     999     998    1020    1021    1000    1001    1003    1006
    1000    1001    1003    1004    1000    1001    1017    1019
    1000    1001    1017    1020    1000    1001    1017    1018
    1000     998    1020    1017    1000     998    1020    1022
    1000     998    1020    1021    1001    1017    1020    1022
    1001    1017    1020    1021    1001    1003    1006    1008
    1001    1003    1006    1007    1001    1003    1004    1005
    1001    1003    1004    1012    1001    1000     998    1020
    1002    1001    1003    1006    1002    1001    1003    1004
    1002    1001    1017    1019    1002    1001    1017    1020
    1002    1001    1017    1018    1003    1006    1008    1009
    1003    1006    1008    1010    1003    1004    1012    1010
    1003    1004    1012    1013    1003    1001    1017    1019
    1003    1001    1017    1020    1003    1001    1017    1018
    1004    1012    1010    1008    1004    1012    1010    1011
    1004    1012    1013    1014    1004    1012    1013    1015
    1004    1012    1013    1016    1004    1003    1001    1017
    1004    1003    1006    1008    1004    1003    1006    1007
    1005    1004    1003    1006    1005    1004    1012    1010
    1005    1004    1012    1013    1006    1008    1010    1012
    1006    1008    1010    1011    1006    1003    1001    1017
    1006    1003    1004    1012    1007    1006    1008    1009
    1007    1006    1008    1010    1008    1010    1012    1013
    1009    1008    1010    1012    1009    1008    1010    1011
    1010    1012    1013    1014    1010    1012    1013    1015
    1010    1012    1013    1016    1011    1010    1012    1013
    1017    1020    1022    1023    1018    1017    1020    1022
    1018    1017    1020    1021    1019    1017    1020    1022
    1019    1017    1020    1021    1020    1022    1023    1024
    1020    1022    1023    1025    1020    1022    1023    1026
    1021    1020    1022    1023    1022    1023    1026    1027
    1023    1026    1027    1030    1023    1026    1027    1028
    1023    1026    1027    1029    1024    1023    1026    1027
    1025    1023    1026    1027    1026    1027    1030    1032
    1026    1027    1030    1052    1026    1027    1030    1031
    1027    1030    1032    1033    1027    1030    1052    1049
    1027    1030    1052    1054    1027    1030    1052    1053
    1028    1027    1030    1032    1028    1027    1030    1052
    1028    1027    1030    1031    1029    1027    1030    1032
    1029    1027    1030    1052    1029    1027    1030    1031
    1030    1052    1049    1051    1030    1052    1049    1033
    1030    1052    1049    1050    1030    1052    1054    1055
    1030    1032    1033    1035    1030    1032    1033    1049
    1030    1032    1033    1034    1031    1030    1032    1033
    1031    1030    1052    1049    1031    1030    1052    1054
    1031    1030    1052    1053    1032    1033    1035    1038
    1032    1033    1035    1036    1032    1033    1049    1051
    1032    1033    1049    1052    1032    1033    1049    1050
    1032    1030    1052    1049    1032    1030    1052    1054
    1032    1030    1052    1053    1033    1049    1052    1054
    1033    1049    1052    1053    1033    1035    1038    1040
    1033    1035    1038    1039    1033    1035    1036    1037
    1033    1035    1036    1044    1033    1032    1030    1052
    1034    1033    1035    1038    1034    1033    1035    1036
    1034    1033    1049    1051    1034    1033    1049    1052
    1034    1033    1049    1050    1035    1038    1040    1041
    1035    1038    1040    1042    1035    1036    1044    1042
    1035    1036    1044    1045    1035    1033    1049    1051
    1035    1033    1049    1052    1035    1033    1049    1050
    1036    1044    1042    1040    1036    1044    1042    1043
    1036    1044    1045    1046    1036    1044    1045    1047
    1036    1044    1045    1048    1036    1035    1033    1049
    1036    1035    1038    1040    1036    1035    1038    1039
    1037    1036    1035    1038    1037    1036    1044    1042
    1037    1036    1044    1045    1038    1040    1042    1044
    1038    1040    1042    1043    1038    1035    1033    1049
    1038    1035    1036    1044    1039    1038    1040    1041
    1039    1038    1040    1042    1040    1042    1044    1045
    1041    1040    1042    1044    1041    1040    1042    1043
    1042    1044    1045    1046    1042    1044    1045    1047
    1042    1044    1045    1048    1043    1042    1044    1045
    1049    1052    1054    1055    1050    1049    1052    1054
    1050    1049    1052    1053    1051    1049    1052    1054
    1051    1049    1052    1053    1052    1054    1055    1056
    1052    1054    1055    1057    1052    1054    1055    1058
    1053    1052    1054    1055    1054    1055    1058    1059
    1055    1058    1059    1062    1055    1058    1059    1060
    1055    1058    1059    1061    1056    1055    1058    1059
    1057    1055    1058    1059    1058    1059    1062    1064
    1058    1059    1062    1084    1058    1059    1062    1063
    1059    1062    1064    1065    1059    1062    1084    1081
    1059    1062    1084    1086    1059    1062    1084    1085
    1060    1059    1062    1064    1060    1059    1062    1084
    1060    1059    1062    1063    1061    1059    1062    1064
    1061    1059    1062    1084    1061    1059    1062    1063
    1062    1084    1081    1083    1062    1084    1081    1065
    1062    1084    1081    1082    1062    1084    1086    1087
    1062    1064    1065    1067    1062    1064    1065    1081
    1062    1064    1065    1066    1063    1062    1064    1065
    1063    1062    1084    1081    1063    1062    1084    1086
    1063    1062    1084    1085    1064    1065    1067    1070
    1064    1065    1067    1068    1064    1065    1081    1083
    1064    1065    1081    1084    1064    1065    1081    1082
    1064    1062    1084    1081    1064    1062    1084    1086
    1064    1062    1084    1085    1065    1081    1084    1086
    1065    1081    1084    1085    1065    1067    1070    1072
    1065    1067    1070    1071    1065    1067    1068    1069
    1065    1067    1068    1076    1065    1064    1062    1084
    1066    1065    1067    1070    1066    1065    1067    1068
    1066    1065    1081    1083    1066    1065    1081    1084
    1066    1065    1081    1082    1067    1070    1072    1073
    1067    1070    1072    1074    1067    1068    1076    1074
    1067    1068    1076    1077    1067    1065    1081    1083
    1067    1065    1081    1084    1067    1065    1081    1082
    1068    1076    1074    1072    1068    1076    1074    1075
    1068    1076    1077    1078    1068    1076    1077    1079
    1068    1076    1077    1080    1068    1067    1065    1081
    1068    1067    1070    1072    1068    1067    1070    1071
    1069    1068    1067    1070    1069    1068    1076    1074
    1069    1068    1076    1077    1070    1072    1074    1076
    1070    1072    1074    1075    1070    1067    1065    1081
    1070    1067    1068    1076    1071    1070    1072    1073
    1071    1070    1072    1074    1072    1074    1076    1077
    1073    1072    1074    1076    1073    1072    1074    1075
    1074    1076    1077    1078    1074    1076    1077    1079
    1074    1076    1077    1080    1075    1074    1076    1077
    1081    1084    1086    1087    1082    1081    1084    1086
    1082    1081    1084    1085    1083    1081    1084    1086
    1083    1081    1084    1085    1084    1086    1087    1088
    1084    1086    1087    1089    1084    1086    1087    1090
    1085    1084    1086    1087    1086    1087    1090    1091
    1087    1090    1091    1094    1087    1090    1091    1092
    1087    1090    1091    1093    1088    1087    1090    1091
    1089    1087    1090    1091    1090    1091    1094    1096
    1090    1091    1094    1116    1090    1091    1094    1095
    1091    1094    1096    1097    1091    1094    1116    1113
    1091    1094    1116    1118    1091    1094    1116    1117
    1092    1091    1094    1096    1092    1091    1094    1116
    1092    1091    1094    1095    1093    1091    1094    1096
    1093    1091    1094    1116    1093    1091    1094    1095
    1094    1116    1113    1115    1094    1116    1113    1097
    1094    1116    1113    1114    1094    1116    1118    1119
    1094    1096    1097    1099    1094    1096    1097    1113
    1094    1096    1097    1098    1095    1094    1096    1097
    1095    1094    1116    1113    1095    1094    1116    1118
    1095    1094    1116    1117    1096    1097    1099    1102
    1096    1097    1099    1100    1096    1097    1113    1115
    1096    1097    1113    1116    1096    1097    1113    1114
    1096    1094    1116    1113    1096    1094    1116    1118
    1096    1094    1116    1117    1097    1113    1116    1118
    1097    1113    1116    1117    1097    1099    1102    1104
    1097    1099    1102    1103    1097    1099    1100    1101
    1097    1099    1100    1108    1097    1096    1094    1116
    1098    1097    1099    1102    1098    1097    1099    1100
    1098    1097    1113    1115    1098    1097    1113    1116
    1098    1097    1113    1114    1099    1102    1104    1105
    1099    1102    1104    1106    1099    1100    1108    1106
    1099    1100    1108    1109    1099    1097    1113    1115
    1099    1097    1113    1116    1099    1097    1113    1114
    1100    1108    1106    1104    1100    1108    1106    1107
    1100    1108    1109    1110    1100    1108    1109    1111
    1100    1108    1109    1112    1100    1099    1097    1113
    1100    1099    1102    1104    1100    1099    1102    1103
    1101    1100    1099    1102    1101    1100    1108    1106
    1101    1100    1108    1109    1102    1104    1106    1108
    1102    1104    1106    1107    1102    1099    1097    1113
    1102    1099    1100    1108    1103    1102    1104    1105
    1103    1102    1104    1106    1104    1106    1108    1109
    1105    1104    1106    1108    1105    1104    1106    1107
    1106    1108    1109    1110    1106    1108    1109    1111
    1106    1108    1109    1112    1107    1106    1108    1109
    1113    1116    1118    1119    1114    1113    1116    1118
    1114    1113    1116    1117    1115    1113    1116    1118
    1115    1113    1116    1117    1116    1118    1119    1120
    1116    1118    1119    1121    1116    1118    1119    1122
    1117    1116    1118    1119    1118    1119    1122    1123
    1119    1122    1123    1126    1119    1122    1123    1124
    1119    1122    1123    1125    1120    1119    1122    1123
    1121    1119    1122    1123    1122    1123    1126    1128
    1122    1123    1126    1148    1122    1123    1126    1127
    1123    1126    1128    1129    1123    1126    1148    1145
    1123    1126    1148    1150    1123    1126    1148    1149
    1124    1123    1126    1128    1124    1123    1126    1148
    1124    1123    1126    1127    1125    1123    1126    1128
    1125    1123    1126    1148    1125    1123    1126    1127
    1126    1148    1145    1147    1126    1148    1145    1129
    1126    1148    1145    1146    1126    1148    1150    1151
    1126    1128    1129    1131    1126    1128    1129    1145
    1126    1128    1129    1130    1127    1126    1128    1129
    1127    1126    1148    1145    1127    1126    1148    1150
    1127    1126    1148    1149    1128    1129    1131    1134
    1128    1129    1131    1132    1128    1129    1145    1147
    1128    1129    1145    1148    1128    1129    1145    1146
    1128    1126    1148    1145    1128    1126    1148    1150
    1128    1126    1148    1149    1129    1145    1148    1150
    1129    1145    1148    1149    1129    1131    1134    1136
    1129    1131    1134    1135    1129    1131    1132    1133
    1129    1131    1132    1140    1129    1128    1126    1148
    1130    1129    1131    1134    1130    1129    1131    1132
    1130    1129    1145    1147    1130    1129    1145    1148
    1130    1129    1145    1146    1131    1134    1136    1137
    1131    1134    1136    1138    1131    1132    1140    1138
    1131    1132    1140    1141    1131    1129    1145    1147
    1131    1129    1145    1148    1131    1129    1145    1146
    1132    1140    1138    1136    1132    1140    1138    1139
    1132    1140    1141    1142    1132    1140    1141    1143
    1132    1140    1141    1144    1132    1131    1129    1145
    1132    1131    1134    1136    1132    1131    1134    1135
    1133    1132    1131    1134    1133    1132    1140    1138
    1133    1132    1140    1141    1134    1136    1138    1140
    1134    1136    1138    1139    1134    1131    1129    1145
    1134    1131    1132    1140    1135    1134    1136    1137
    1135    1134    1136    1138    1136    1138    1140    1141
    1137    1136    1138    1140    1137    1136    1138    1139
    1138    1140    1141    1142    1138    1140    1141    1143
    1138    1140    1141    1144    1139    1138    1140    1141
    1145    1148    1150    1151    1146    1145    1148    1150
    1146    1145    1148    1149    1147    1145    1148    1150
    1147    1145    1148    1149    1148    1150    1151    1152
    1148    1150    1151    1153    1148    1150    1151    1154
    1149    1148    1150    1151    1150    1151    1154    1155
    1151    1154    1155    1158    1151    1154    1155    1156
    1151    1154    1155    1157    1152    1151    1154    1155
    1153    1151    1154    1155    1154    1155    1158    1160
    1154    1155    1158    1180    1154    1155    1158    1159
    1155    1158    1160    1161    1155    1158    1180    1177
    1155    1158    1180    1182    1155    1158    1180    1181
    1156    1155    1158    1160    1156    1155    1158    1180
    1156    1155    1158    1159    1157    1155    1158    1160
    1157    1155    1158    1180    1157    1155    1158    1159
    1158    1180    1177    1179    1158    1180    1177    1161
    1158    1180    1177    1178    1158    1180    1182    1183
    1158    1160    1161    1163    1158    1160    1161    1177
    1158    1160    1161    1162    1159    1158    1160    1161
    1159    1158    1180    1177    1159    1158    1180    1182
    1159    1158    1180    1181    1160    1161    1163    1166
    1160    1161    1163    1164    1160    1161    1177    1179
    1160    1161    1177    1180    1160    1161    1177    1178
    1160    1158    1180    1177    1160    1158    1180    1182
    1160    1158    1180    1181    1161    1177    1180    1182
    1161    1177    1180    1181    1161    1163    1166    1168
    1161    1163    1166    1167    1161    1163    1164    1165
    1161    1163    1164    1172    1161    1160    1158    1180
    1162    1161    1163    1166    1162    1161    1163    1164
    1162    1161    1177    1179    1162    1161    1177    1180
    1162    1161    1177    1178    1163    1166    1168    1169
    1163    1166    1168    1170    1163    1164    1172    1170
    1163    1164    1172    1173    1163    1161    1177    1179
    1163    1161    1177    1180    1163    1161    1177    1178
    1164    1172    1170    1168    1164    1172    1170    1171
    1164    1172    1173    1174    1164    1172    1173    1175
    1164    1172    1173    1176    1164    1163    1161    1177
    1164    1163    1166    1168    1164    1163    1166    1167
    1165    1164    1163    1166    1165    1164    1172    1170
    1165    1164    1172    1173    1166    1168    1170    1172
    1166    1168    1170    1171    1166    1163    1161    1177
    1166    1163    1164    1172    1167    1166    1168    1169
    1167    1166    1168    1170    1168    1170    1172    1173
    1169    1168    1170    1172    1169    1168    1170    1171
    1170    1172    1173    1174    1170    1172    1173    1175
    1170    1172    1173    1176    1171    1170    1172    1173
    1177    1180    1182    1183    1178    1177    1180    1182
    1178    1177    1180    1181    1179    1177    1180    1182
    1179    1177    1180    1181    1180    1182    1183    1184
    1180    1182    1183    1185    1180    1182    1183    1186
    1181    1180    1182    1183    1182    1183    1186    1187
    1183    1186    1187    1190    1183    1186    1187    1188
    1183    1186    1187    1189    1184    1183    1186    1187
    1185    1183    1186    1187    1186    1187    1190    1192
    1186    1187    1190    1212    1186    1187    1190    1191
    1187    1190    1192    1193    1187    1190    1212    1209
    1187    1190    1212    1214    1187    1190    1212    1213
    1188    1187    1190    1192    1188    1187    1190    1212
    1188    1187    1190    1191    1189    1187    1190    1192
    1189    1187    1190    1212    1189    1187    1190    1191
    1190    1212    1209    1211    1190    1212    1209    1193
    1190    1212    1209    1210    1190    1212    1214    1215
    1190    1192    1193    1195    1190    1192    1193    1209
    1190    1192    1193    1194    1191    1190    1192    1193
    1191    1190    1212    1209    1191    1190    1212    1214
    1191    1190    1212    1213    1192    1193    1195    1198
    1192    1193    1195    1196    1192    1193    1209    1211
    1192    1193    1209    1212    1192    1193    1209    1210
    1192    1190    1212    1209    1192    1190    1212    1214
    1192    1190    1212    1213    1193    1209    1212    1214
    1193    1209    1212    1213    1193    1195    1198    1200
    1193    1195    1198    1199    1193    1195    1196    1197
    1193    1195    1196    1204    1193    1192    1190    1212
    1194    1193    1195    1198    1194    1193    1195    1196
    1194    1193    1209    1211    1194    1193    1209    1212
    1194    1193    1209    1210    1195    1198    1200    1201
    1195    1198    1200    1202    1195    1196    1204    1202
    1195    1196    1204    1205    1195    1193    1209    1211
    1195    1193    1209    1212    1195    1193    1209    1210
    1196    1204    1202    1200    1196    1204    1202    1203
    1196    1204    1205    1206    1196    1204    1205    1207
    1196    1204    1205    1208    1196    1195    1193    1209
    1196    1195    1198    1200    1196    1195    1198    1199
    1197    1196    1195    1198    1197    1196    1204    1202
    1197    1196    1204    1205    1198    1200    1202    1204
    1198    1200    1202    1203    1198    1195    1193    1209
    1198    1195    1196    1204    1199    1198    1200    1201
    1199    1198    1200    1202    1200    1202    1204    1205
    1201    1200    1202    1204    1201    1200    1202    1203
    1202    1204    1205    1206    1202    1204    1205    1207
    1202    1204    1205    1208    1203    1202    1204    1205
    1209    1212    1214    1215    1210    1209    1212    1214
    1210    1209    1212    1213    1211    1209    1212    1214
    1211    1209    1212    1213    1212    1214    1215    1216
    1212    1214    1215    1217    1212    1214    1215    1218
    1213    1212    1214    1215    1214    1215    1218    1219
    1215    1218    1219    1222    1215    1218    1219    1220
    1215    1218    1219    1221    1216    1215    1218    1219
    1217    1215    1218    1219    1218    1219    1222    1224
    1218    1219    1222    1244    1218    1219    1222    1223
    1219    1222    1224    1225    1219    1222    1244    1241
    1219    1222    1244    1246    1219    1222    1244    1245
    1220    1219    1222    1224    1220    1219    1222    1244
    1220    1219    1222    1223    1221    1219    1222    1224
    1221    1219    1222    1244    1221    1219    1222    1223
    1222    1244    1241    1243    1222    1244    1241    1225
    1222    1244    1241    1242    1222    1244    1246    1247
    1222    1224    1225    1227    1222    1224    1225    1241
    1222    1224    1225    1226    1223    1222    1224    1225
    1223    1222    1244    1241    1223    1222    1244    1246
    1223    1222    1244    1245    1224    1225    1227    1230
    1224    1225    1227    1228    1224    1225    1241    1243
    1224    1225    1241    1244    1224    1225    1241    1242
    1224    1222    1244    1241    1224    1222    1244    1246
    1224    1222    1244    1245    1225    1241    1244    1246
    1225    1241    1244    1245    1225    1227    1230    1232
    1225    1227    1230    1231    1225    1227    1228    1229
    1225    1227    1228    1236    1225    1224    1222    1244
    1226    1225    1227    1230    1226    1225    1227    1228
    1226    1225    1241    1243    1226    1225    1241    1244
    1226    1225    1241    1242    1227    1230    1232    1233
    1227    1230    1232    1234    1227    1228    1236    1234
    1227    1228    1236    1237    1227    1225    1241    1243
    1227    1225    1241    1244    1227    1225    1241    1242
    1228    1236    1234    1232    1228    1236    1234    1235
    1228    1236    1237    1238    1228    1236    1237    1239
    1228    1236    1237    1240    1228    1227    1225    1241
    1228    1227    1230    1232    1228    1227    1230    1231
    1229    1228    1227    1230    1229    1228    1236    1234
    1229    1228    1236    1237    1230    1232    1234    1236
    1230    1232    1234    1235    1230    1227    1225    1241
    1230    1227    1228    1236    1231    1230    1232    1233
    1231    1230    1232    1234    1232    1234    1236    1237
    1233    1232    1234    1236    1233    1232    1234    1235
    1234    1236    1237    1238    1234    1236    1237    1239
    1234    1236    1237    1240    1235    1234    1236    1237
    1241    1244    1246    1247    1242    1241    1244    1246
    1242    1241    1244    1245    1243    1241    1244    1246
    1243    1241    1244    1245    1244    1246    1247    1248
    1244    1246    1247    1249    1244    1246    1247    1250
    1245    1244    1246    1247    1246    1247    1250    1251
    1247    1250    1251    1254    1247    1250    1251    1252
    1247    1250    1251    1253    1248    1247    1250    1251
    1249    1247    1250    1251    1250    1251    1254    1256
    1250    1251    1254    1276    1250    1251    1254    1255
    1251    1254    1256    1257    1251    1254    1276    1273
    1251    1254    1276    1278    1251    1254    1276    1277
    1252    1251    1254    1256    1252    1251    1254    1276
    1252    1251    1254    1255    1253    1251    1254    1256
    1253    1251    1254    1276    1253    1251    1254    1255
    1254    1276    1273    1275    1254    1276    1273    1257
    1254    1276    1273    1274    1254    1276    1278    1279
    1254    1256    1257    1259    1254    1256    1257    1273
    1254    1256    1257    1258    1255    1254    1256    1257
    1255    1254    1276    1273    1255    1254    1276    1278
    1255    1254    1276    1277    1256    1257    1259    1262
    1256    1257    1259    1260    1256    1257    1273    1275
    1256    1257    1273    1276    1256    1257    1273    1274
    1256    1254    1276    1273    1256    1254    1276    1278
    1256    1254    1276    1277    1257    1273    1276    1278
    1257    1273    1276    1277    1257    1259    1262    1264
    1257    1259    1262    1263    1257    1259    1260    1261
    1257    1259    1260    1268    1257    1256    1254    1276
    1258    1257    1259    1262    1258    1257    1259    1260
    1258    1257    1273    1275    1258    1257    1273    1276
    1258    1257    1273    1274    1259    1262    1264    1265
    1259    1262    1264    1266    1259    1260    1268    1266
    1259    1260    1268    1269    1259    1257    1273    1275
    1259    1257    1273    1276    1259    1257    1273    1274
    1260    1268    1266    1264    1260    1268    1266    1267
    1260    1268    1269    1270    1260    1268    1269    1271
    1260    1268    1269    1272    1260    1259    1257    1273
    1260    1259    1262    1264    1260    1259    1262    1263
    1261    1260    1259    1262    1261    1260    1268    1266
    1261    1260    1268    1269    1262    1264    1266    1268
    1262    1264    1266    1267    1262    1259    1257    1273
    1262    1259    1260    1268    1263    1262    1264    1265
    1263    1262    1264    1266    1264    1266    1268    1269
    1265    1264    1266    1268    1265    1264    1266    1267
    1266    1268    1269    1270    1266    1268    1269    1271
    1266    1268    1269    1272    1267    1266    1268    1269
    1273    1276    1278    1279    1274    1273    1276    1278
    1274    1273    1276    1277    1275    1273    1276    1278
    1275    1273    1276    1277    1277    1276    1278    1279

     120 !NIMPHI: impropers
      14      11      16      15      18      16      20      19
      20      18      12      21      46      43      48      47
      50      48      52      51      52      50      44      53
      78      75      80      79      82      80      84      83
      84      82      76      85     110     107     112     111
     114     112     116     115     116     114     108     117
     142     139     144     143     146     144     148     147
     148     146     140     149     174     171     176     175
     178     176     180     179     180     178     172     181
     206     203     208     207     210     208     212     211
     212     210     204     213     238     235     240     239
     242     240     244     243     244     242     236     245
     270     267     272     271     274     272     276     275
     276     274     268     277     302     299     304     303
     306     304     308     307     308     306     300     309
     334     331     336     335     338     336     340     339
     340     338     332     341     366     363     368     367
     370     368     372     371     372     370     364     373
     398     395     400     399     402     400     404     403
     404     402     396     405     430     427     432     431
     434     432     436     435     436     434     428     437
     462     459     464     463     466     464     468     467
     468     466     460     469     494     491     496     495
     498     496     500     499     500     498     492     501
     526     523     528     527     530     528     532     531
     532     530     524     533     558     555     560     559
     562     560     564     563     564     562     556     565
     590     587     592     591     594     592     596     595
     596     594     588     597     622     619     624     623
     626     624     628     627     628     626     620     629
     654     651     656     655     658     656     660     659
     660     658     652     661     686     683     688     687
     690     688     692     691     692     690     684     693
     718     715     720     719     722     720     724     723
     724     722     716     725     750     747     752     751
     754     752     756     755     756     754     748     757
     782     779     784     783     786     784     788     787
     788     786     780     789     814     811     816     815
     818     816     820     819     820     818     812     821
     846     843     848     847     850     848     852     851
     852     850     844     853     878     875     880     879
     882     880     884     883     884     882     876     885
     910     907     912     911     914     912     916     915
     916     914     908     917     942     939     944     943
     946     944     948     947     948     946     940     949
     974     971     976     975     978     976     980     979
     980     978     972     981    1006    1003    1008    1007
    1010    1008    1012    1011    1012    1010    1004    1013
    1038    1035    1040    1039    1042    1040    1044    1043
    1044    1042    1036    1045    1070    1067    1072    1071
    1074    1072    1076    1075    1076    1074    1068    1077
    1102    1099    1104    1103    1106    1104    1108    1107
    1108    1106    1100    1109    1134    1131    1136    1135
    1138    1136    1140    1139    1140    1138    1132    1141
    1166    1163    1168    1167    1170    1168    1172    1171
    1172    1170    1164    1173    1198    1195    1200    1199
    1202    1200    1204    1203    1204    1202    1196    1205
    1230    1227    1232    1231    1234    1232    1236    1235
    1236    1234    1228    1237    1262    1259    1264    1263
    1266    1264    1268    1267    1268    1266    1260    1269

       0 !NDON: donors


       0 !NACC: acceptors


       0 !NNB

       0       0       0       0       0       0       0       0
       0       0       0       0       0       0       0       0
       0       0       0       0       0       0       0       0
       0       0       0       0       0       0       0       0
       0       0       0       0       0       0       0       0
       0       0       0       0       0       0       0       0
       0       0       0       0       0       0       0       0
       0       0       0       0       0       0       0       0
       0       0       0       0       0       0       0       0
       0       0       0       0       0       0       0       0
       0       0       0       0       0       0       0       0
       0       0       0       0       0       0       0       0
       0       0       0       0       0       0       0       0
       0       0       0       0       0       0       0       0
       0       0       0       0       0       0       0       0
       0       0       0       0       0       0       0       0
       0       0       0       0       0       0       0       0
       0       0       0       0       0       0       0       0
       0       0       0       0       0       0       0       0
       0       0       0       0       0       0       0       0
       0       0       0       0       0       0       0       0
       0       0       0       0       0       0       0       0
       0       0       0       0       0       0       0       0
       0       0       0       0       0       0       0       0
       0       0       0       0       0       0       0       0
       0       0       0       0       0       0       0       0
       0       0       0       0       0       0       0       0
       0       0       0       0       0       0       0       0
       0       0       0       0       0       0       0       0
       0       0       0       0       0       0       0       0
       0       0       0       0       0       0       0       0
       0       0       0       0       0       0       0       0
       0       0       0       0       0       0       0       0
       0       0       0       0       0       0       0       0
       0       0       0       0       0       0       0       0
       0       0       0       0       0       0       0       0
       0       0       0       0       0       0       0       0
       0       0       0       0       0       0       0       0
       0       0       0       0       0       0       0       0
       0       0       0       0       0       0       0       0
       0       0       0       0       0       0       0       0
       0       0       0       0       0       0       0       0
       0       0       0       0       0       0       0       0
       0       0       0       0       0       0       0       0
       0       0       0       0       0       0       0       0
       0       0       0       0       0       0       0       0
       0       0       0       0       0       0       0       0
       0       0       0       0       0       0       0       0
       0       0       0       0       0       0       0       0
       0       0       0       0       0       0       0       0
       0       0       0       0       0       0       0       0
       0       0       0       0       0       0       0       0
       0       0       0       0       0       0       0       0
       0       0       0       0       0       0       0       0
       0       0       0       0       0       0       0       0
       0       0       0       0       0       0       0       0
       0       0       0       0       0       0       0       0
       0       0       0       0       0       0       0       0
       0       0       0       0       0       0       0       0
       0       0       0       0       0       0       0       0
       0       0       0       0       0       0       0       0
       0       0       0       0       0       0       0       0
       0       0       0       0       0       0       0       0
       0       0       0       0       0       0       0       0
       0       0       0       0       0       0       0       0
       0       0       0       0       0       0       0       0
       0       0       0       0       0       0       0       0
       0       0       0       0       0       0       0       0
       0       0       0       0       0       0       0       0
       0       0       0       0       0       0       0       0
       0       0       0       0       0       0       0       0
       0       0       0       0       0       0       0       0
       0       0       0       0       0       0       0       0
       0       0       0       0       0       0       0       0
       0       0       0       0       0       0       0       0
       0       0       0       0       0       0       0       0
       0       0       0       0       0       0       0       0
       0       0       0       0       0       0       0       0
       0       0       0       0       0       0       0       0
       0       0       0       0       0       0       0       0
       0       0       0       0       0       0       0       0
       0       0       0       0       0       0       0       0
       0       0       0       0       0       0       0       0
       0       0       0       0       0       0       0       0
       0       0       0       0       0       0       0       0
       0       0       0       0       0       0       0       0
       0       0       0       0       0       0       0       0
       0       0       0       0       0       0       0       0
       0       0       0       0       0       0       0       0
       0       0       0       0       0       0       0       0
       0       0       0       0       0       0       0       0
       0       0       0       0       0       0       0       0
       0       0       0       0       0       0       0       0
       0       0       0       0       0       0       0       0
       0       0       0       0       0       0       0       0
       0       0       0       0       0       0       0       0
       0       0       0       0       0       0       0       0
       0       0       0       0       0       0       0       0
       0       0       0       0       0       0       0       0
       0       0       0       0       0       0       0       0
       0       0       0       0       0       0       0       0
       0       0       0       0       0       0       0       0
       0       0       0       0       0       0       0       0
       0       0       0       0       0       0       0       0
       0       0       0       0       0       0       0       0
       0       0       0       0       0       0       0       0
       0       0       0       0       0       0       0       0
       0       0       0       0       0       0       0       0
       0       0       0       0       0       0       0       0
       0       0       0       0       0       0       0       0
       0       0       0       0       0       0       0       0
       0       0       0       0       0       0       0       0
       0       0       0       0       0       0       0       0
       0       0       0       0       0       0       0       0
       0       0       0       0       0       0       0       0
       0       0       0       0       0       0       0       0
       0       0       0       0       0       0       0       0
       0       0       0       0       0       0       0       0
       0       0       0       0       0       0       0       0
       0       0       0       0       0       0       0       0
       0       0       0       0       0       0       0       0
       0       0       0       0       0       0       0       0
       0       0       0       0       0       0       0       0
       0       0       0       0       0       0       0       0
       0       0       0       0       0       0       0       0
       0       0       0       0       0       0       0       0
       0       0       0       0       0       0       0       0
       0       0       0       0       0       0       0       0
       0       0       0       0       0       0       0       0
       0       0       0       0       0       0       0       0
       0       0       0       0       0       0       0       0
       0       0       0       0       0       0       0       0
       0       0       0       0       0       0       0       0
       0       0       0       0       0       0       0       0
       0       0       0       0       0       0       0       0
       0       0       0       0       0       0       0       0
       0       0       0       0       0       0       0       0
       0       0       0       0       0       0       0       0
       0       0       0       0       0       0       0       0
       0       0       0       0       0       0       0       0
       0       0       0       0       0       0       0       0
       0       0       0       0       0       0       0       0
       0       0       0       0       0       0       0       0
       0       0       0       0       0       0       0       0
       0       0       0       0       0       0       0       0
       0       0       0       0       0       0       0       0
       0       0       0       0       0       0       0       0
       0       0       0       0       0       0       0       0
       0       0       0       0       0       0       0       0
       0       0       0       0       0       0       0       0
       0       0       0       0       0       0       0       0
       0       0       0       0       0       0       0       0
       0       0       0       0       0       0       0       0
       0       0       0       0       0       0       0       0
       0       0       0       0       0       0       0       0
       0       0       0       0       0       0       0       0
       0       0       0       0       0       0       0       0
       0       0       0       0       0       0       0       0
       0       0       0       0       0       0       0       0
       0       0       0       0       0       0       0

       1       0 !NGRP
       0       0       0

